Title
82271
    1SAPS     N    1   1.851   3.612  11.005  0.0125 -0.0169 -0.0939
    1SAPS   HN1    2   1.914   3.648  11.079 -1.3277  1.2518  0.4678
    1SAPS   HN2    3   1.898   3.544  10.941  0.7457  0.2399  0.1581
    1SAPS   HN3    4   1.821   3.694  10.949  2.2989 -0.2814 -1.8812
    1SAPS   C12    5   1.739   3.547  11.065  0.6477  0.2136 -0.0528
    1SAPS  H12A    6   1.779   3.499  11.153  0.6417  0.8150  0.2828
    1SAPS   C13    7   1.627   3.644  11.108 -0.4133  0.6162  0.3474
    1SAPS  O13A    8   1.620   3.757  11.052 -0.0578 -0.2450  0.1896
    1SAPS  O13B    9   1.524   3.604  11.172 -0.0348 -0.5511 -0.2308
    1SAPS   C11   10   1.663   3.449  10.963  0.1665  0.1916 -0.2599
    1SAPS  H11A   11   1.589   3.398  11.028 -2.0714  1.4010 -1.7450
    1SAPS  H11B   12   1.738   3.373  10.930  1.1087  0.7360  0.5723
    1SAPS     P   13   1.524   3.445  10.740 -0.0971 -0.4173 -0.0692
    1SAPS   O13   14   1.406   3.530  10.712  0.0441 -0.0278  0.2013
    1SAPS   O14   15   1.605   3.391  10.627  0.3719 -0.3129 -0.1565
    1SAPS   O12   16   1.613   3.518  10.845  1.0691 -0.0451 -0.1170
    1SAPS   O11   17   1.469   3.318  10.817 -0.3173 -0.3919  0.2893
    1SAPS    C1   18   1.338   3.312  10.868  0.6706 -0.2507 -0.6764
    1SAPS    HA   19   1.338   3.253  10.962 -1.5301  1.2684  0.3538
    1SAPS    HB   20   1.293   3.411  10.892 -1.7832 -1.4863  0.0665
    1SAPS    C2   21   1.237   3.244  10.774 -0.0411  1.0873 -0.0461
    1SAPS    HS   22   1.265   3.136  10.773  0.1261  1.1019  1.5920
    1SAPS   O21   23   1.225   3.309  10.640  0.8996 -0.1178 -0.1562
    1SAPS   C21   24   1.279   3.251  10.540 -0.0918 -0.0065 -1.0546
    1SAPS   O22   25   1.323   3.136  10.544 -0.1035 -0.4830  0.6385
    1SAPS   C22   26   1.273   3.340  10.412 -0.6287 -0.2562  0.5770
    1SAPS   H2R   27   1.177   3.388  10.384  1.4671  3.5772 -0.8299
    1SAPS   H2S   28   1.340   3.425  10.438 -0.3319 -0.7541  1.5130
    1SAPS    C3   29   1.091   3.241  10.829  0.1354 -0.5207  0.5148
    1SAPS    HX   30   1.065   3.349  10.832  2.6139  0.1313  1.2313
    1SAPS    HY   31   1.091   3.214  10.937  0.6573 -0.4864  0.5287
    1SAPS   O31   32   1.005   3.165  10.755 -0.3555 -0.4416 -0.0317
    1SAPS   C31   33   1.008   3.032  10.761  0.0128 -0.7264  0.3107
    1SAPS   O32   34   1.057   2.960  10.848 -0.0344 -0.6538  0.0008
    1SAPS   C32   35   0.929   2.993  10.633 -0.1228 -0.3568 -0.3620
    1SAPS   H2X   36   0.959   3.056  10.546  1.8730 -1.1975 -0.3377
    1SAPS   H2Y   37   0.821   3.002  10.655 -0.3672 -0.3062 -1.5312
    1SAPS   C23   38   1.320   3.263  10.282  0.2376  0.0247 -0.0136
    1SAPS   H3R   39   1.405   3.191  10.292  0.3507 -0.1902 -2.1519
    1SAPS   H3S   40   1.352   3.339  10.208 -1.1155 -0.9874 -1.7065
    1SAPS   C24   41   1.198   3.195  10.213 -0.7194 -0.3791 -0.1009
    1SAPS   H4R   42   1.131   3.276  10.175 -0.0074 -0.0312 -0.6293
    1SAPS   H4S   43   1.142   3.135  10.289  0.3382 -0.9840  0.2170
    1SAPS   C25   44   1.232   3.103  10.098 -0.5017 -0.0919 -0.1570
    1SAPS   H5R   45   1.290   3.015  10.132  0.8840 -0.1666 -2.4973
    1SAPS   C26   46   1.214   3.111   9.968 -1.2236 -0.0857 -0.7227
    1SAPS   H6R   47   1.247   3.023   9.912 -0.3781  0.4160 -1.0195
    1SAPS   C27   48   1.153   3.225   9.886 -0.0412  0.3747  0.2528
    1SAPS   H7R   49   1.066   3.268   9.941  1.3064  0.8668  2.0793
    1SAPS   H7S   50   1.107   3.186   9.792  1.0121 -1.2842  0.3746
    1SAPS   C28   51   1.254   3.334   9.861 -0.7126  0.9306 -0.4029
    1SAPS   H8R   52   1.286   3.381   9.954 -0.5943  2.2921 -1.1033
    1SAPS   C29   53   1.306   3.365   9.739 -0.7784  0.1716 -0.5713
    1SAPS   H9R   54   1.392   3.432   9.736 -0.6078 -0.0070  0.2669
    1SAPS  C210   55   1.279   3.301   9.608  0.2455 -0.7294  0.1384
    1SAPS  H10R   56   1.314   3.196   9.617  0.9156 -0.4577  0.7389
    1SAPS  H10S   57   1.339   3.349   9.528 -1.5130  0.5277 -0.5074
    1SAPS  C211   58   1.133   3.300   9.550 -0.6874  0.3025  0.1006
    1SAPS  H11R   59   1.051   3.285   9.621  0.3079 -0.4342  1.1322
    1SAPS  C212   60   1.104   3.311   9.416 -0.8718 -0.0125 -0.0174
    1SAPS  H12R   61   0.998   3.307   9.389 -1.3130  2.2443  1.1355
    1SAPS  C213   62   1.196   3.339   9.296  0.2394 -0.0689 -0.0517
    1SAPS  H13R   63   1.164   3.274   9.212  0.8031  0.7904 -0.9569
    1SAPS  H13S   64   1.297   3.302   9.324  0.1781  0.5910  1.0867
    1SAPS  C214   65   1.206   3.478   9.244 -0.0301 -0.3907 -0.0840
    1SAPS  H14R   66   1.135   3.554   9.277  0.0188  0.0718 -1.0174
    1SAPS  C215   67   1.260   3.502   9.124 -0.6428 -0.3609 -0.0604
    1SAPS  H15R   68   1.266   3.604   9.083 -0.6802 -0.4218 -0.2187
    1SAPS  C216   69   1.326   3.395   9.035 -0.4282 -0.0091 -0.2610
    1SAPS  H16R   70   1.388   3.329   9.098  2.4634  1.5968 -1.2352
    1SAPS  H16S   71   1.409   3.435   8.973  0.2140 -0.0916  0.5297
    1SAPS  C217   72   1.213   3.340   8.937 -0.0557 -0.4440  0.1366
    1SAPS  H17R   73   1.134   3.277   8.986  0.0771 -1.5633 -1.0306
    1SAPS  H17S   74   1.261   3.270   8.866  0.3226 -1.4520  1.3476
    1SAPS  C218   75   1.142   3.440   8.844  0.8976 -0.5490 -0.5663
    1SAPS  H18R   76   1.099   3.524   8.904  2.3353 -0.6192  0.6272
    1SAPS  H18S   77   1.062   3.384   8.792  0.8323  0.1134 -1.1958
    1SAPS  C219   78   1.228   3.499   8.732 -0.6106 -0.2204 -0.0741
    1SAPS  H19R   79   1.298   3.421   8.695 -0.9211 -0.1837 -0.7501
    1SAPS  H19S   80   1.296   3.572   8.782  2.1234 -1.2745 -2.0180
    1SAPS  C220   81   1.150   3.545   8.613 -0.4229 -0.5349  0.4322
    1SAPS  H20R   82   1.069   3.618   8.635 -0.0619 -0.7574  2.6497
    1SAPS  H20S   83   1.096   3.462   8.562 -0.6141  0.3716 -0.9171
    1SAPS  H20T   84   1.216   3.579   8.530 -2.0357  0.8760 -0.3509
    1SAPS   C33   85   0.958   2.842  10.599 -0.6404  0.0919  0.0982
    1SAPS   H3X   86   0.954   2.781  10.692  0.7253 -0.0096  0.0981
    1SAPS   H3Y   87   1.064   2.837  10.569 -0.4469 -0.2885  0.8167
    1SAPS   C34   88   0.863   2.796  10.488 -0.1893  0.0186  0.3627
    1SAPS   H4X   89   0.876   2.877  10.413  0.6766  0.8897  1.4161
    1SAPS   H4Y   90   0.757   2.801  10.523 -0.6433  0.8934 -1.0450
    1SAPS   C35   91   0.900   2.658  10.429  0.8710 -0.1363 -0.2339
    1SAPS   H5X   92   0.882   2.578  10.504  1.3203  0.9116  1.0217
    1SAPS   H5Y   93   1.008   2.649  10.404  0.5995 -0.6385 -1.2887
    1SAPS   C36   94   0.822   2.619  10.300  0.3640  0.2703  0.0765
    1SAPS   H6X   95   0.832   2.509  10.291  2.1733  0.5465 -2.1670
    1SAPS   H6Y   96   0.855   2.671  10.208  0.3758 -0.2324 -0.2028
    1SAPS   C37   97   0.678   2.652  10.313  0.2375  0.1445 -0.3083
    1SAPS   H7X   98   0.662   2.761  10.300  1.2611  0.4235  0.6623
    1SAPS   H7Y   99   0.641   2.620  10.413  0.7177 -1.1254 -0.5122
    1SAPS   C38  100   0.581   2.589  10.212 -0.5391 -0.1646  0.0567
    1SAPS   H8X  101   0.474   2.593  10.243 -0.8925 -0.6863 -1.0149
    1SAPS   H8Y  102   0.613   2.484  10.198  0.3323  0.0359  0.5236
    1SAPS   C39  103   0.580   2.668  10.073 -0.3796  0.3937 -0.0607
    1SAPS   H9X  104   0.675   2.649  10.018  1.2582  0.3368  2.5999
    1SAPS   H9Y  105   0.580   2.777  10.094  2.1244  0.5328 -0.4649
    1SAPS  C310  106   0.476   2.613   9.969 -0.8308 -0.0328 -0.6027
    1SAPS  H10X  107   0.369   2.632   9.994 -0.0911  1.3342  1.8414
    1SAPS  H10Y  108   0.492   2.503   9.967 -1.2396 -0.1664  1.4205
    1SAPS  C311  109   0.514   2.662   9.831  0.6367  0.6339 -0.1811
    1SAPS  H11X  110   0.619   2.636   9.807 -0.0375 -0.1849 -2.4778
    1SAPS  H11Y  111   0.498   2.771   9.820  1.0738  0.5371 -2.2459
    1SAPS  C312  112   0.418   2.589   9.732 -0.5354 -0.2695 -0.3141
    1SAPS  H12X  113   0.315   2.630   9.736 -0.2186  0.4379  1.0306
    1SAPS  H12Y  114   0.398   2.483   9.758 -0.6054  0.4017  2.6592
    1SAPS  C313  115   0.477   2.598   9.590  0.1809 -0.1075 -0.0908
    1SAPS  H13X  116   0.564   2.530   9.579  0.2268  0.2175 -1.9937
    1SAPS  H13Y  117   0.522   2.698   9.575  0.2093  0.5692  3.6218
    1SAPS  C314  118   0.380   2.573   9.477 -0.0039  0.9584  0.5426
    1SAPS  H14X  119   0.293   2.642   9.483 -2.3273 -1.8691  1.7084
    1SAPS  H14Y  120   0.341   2.471   9.496 -0.4300  0.6745 -1.6527
    1SAPS  C315  121   0.435   2.563   9.336  0.7134 -0.4417 -0.2889
    1SAPS  H15X  122   0.506   2.478   9.335  0.3411 -0.7911  0.9186
    1SAPS  H15Y  123   0.490   2.657   9.311 -1.2554  0.8672  0.0682
    1SAPS  C316  124   0.327   2.538   9.230 -0.0710 -0.7760 -0.4945
    1SAPS  H16X  125   0.253   2.620   9.244  0.1109 -0.5095 -1.0474
    1SAPS  H16Y  126   0.268   2.445   9.241 -0.2167 -0.7091 -0.6968
    1SAPS  C317  127   0.384   2.542   9.086 -0.4030  0.3505  0.4836
    1SAPS  H17X  128   0.459   2.462   9.070 -0.4258  0.4813 -0.3435
    1SAPS  H17Y  129   0.444   2.633   9.069  0.2840 -0.0266  0.8391
    1SAPS  C318  130   0.275   2.533   8.978 -0.0855  0.2292  1.0063
    1SAPS  H18X  131   0.179   2.587   8.995 -0.5300 -0.4107  0.5922
    1SAPS  H18Y  132   0.253   2.426   8.954  0.5905  0.5691 -1.4678
    1SAPS  H18Z  133   0.325   2.575   8.888 -0.2908  0.7867  1.1471
    2SAPS     N  134   5.281   0.906  11.141 -0.3091 -0.2562 -0.4660
    2SAPS   HN1  135   5.329   0.854  11.064  0.4925 -0.3911  0.1208
    2SAPS   HN2  136   5.297   1.009  11.142 -5.3875  0.8188  0.9581
    2SAPS   HN3  137   5.324   0.866  11.227 -1.8664 -0.0561  0.4335
    2SAPS   C12  138   5.142   0.871  11.124  0.1763 -0.1955  0.0106
    2SAPS  H12A  139   5.144   0.776  11.073 -1.3099 -0.0438 -0.3962
    2SAPS   C13  140   5.068   0.870  11.268 -0.7999  0.9152  0.3168
    2SAPS  O13A  141   5.131   0.897  11.373  0.5281 -0.4439  0.3886
    2SAPS  O13B  142   4.961   0.801  11.272  0.4792 -0.0723 -0.4310
    2SAPS   C11  143   5.078   0.990  11.034 -0.0953  1.0867  0.6025
    2SAPS  H11A  144   5.080   1.085  11.092 -2.0972  1.5273  0.0278
    2SAPS  H11B  145   4.971   0.965  11.025  0.0128  0.5506  0.7950
    2SAPS     P  146   5.204   1.125  10.855  0.5795  0.2983 -0.1556
    2SAPS   O13  147   5.306   1.177  10.941  0.3178 -0.0520 -0.3209
    2SAPS   O14  148   5.247   1.098  10.717  0.1021  0.6387  0.1504
    2SAPS   O12  149   5.147   0.994  10.917  0.2063 -0.5008  1.5316
    2SAPS   O11  150   5.077   1.219  10.864 -0.7421  0.2117 -0.4085
    2SAPS    C1  151   4.959   1.205  10.792  0.6252 -0.0465  0.1950
    2SAPS    HA  152   4.942   1.102  10.756 -1.0387 -0.7701  2.7514
    2SAPS    HB  153   4.867   1.230  10.849  0.0191 -0.6573 -0.4910
    2SAPS    C2  154   4.957   1.306  10.675 -0.0335 -0.4506 -0.0320
    2SAPS    HS  155   4.867   1.289  10.612  0.7158 -1.1461 -0.9603
    2SAPS   O21  156   5.071   1.300  10.587  0.8580  0.2450 -0.3125
    2SAPS   C21  157   5.073   1.194  10.504 -0.3880 -0.1656  0.6163
    2SAPS   O22  158   4.990   1.107  10.499  0.6217  0.3844  0.5165
    2SAPS   C22  159   5.181   1.209  10.403 -0.0022 -0.4693 -0.2685
    2SAPS   H2R  160   5.248   1.295  10.421  0.1029 -0.1481 -2.0128
    2SAPS   H2S  161   5.231   1.111  10.385  0.4685 -0.4774  1.0069
    2SAPS    C3  162   4.952   1.452  10.715 -0.2664 -0.1741 -0.0481
    2SAPS    HX  163   5.046   1.458  10.775 -0.0458 -0.8402 -0.3185
    2SAPS    HY  164   4.872   1.478  10.788  0.9516  2.1965  0.5701
    2SAPS   O31  165   4.968   1.554  10.607  0.2952  0.0445 -0.6840
    2SAPS   C31  166   4.856   1.589  10.554  0.4794 -0.9127  0.1580
    2SAPS   O32  167   4.745   1.549  10.581 -0.5146 -0.2386  0.2712
    2SAPS   C32  168   4.876   1.702  10.448  0.9225  0.1867 -0.0202
    2SAPS   H2X  169   4.947   1.778  10.487  1.2665  0.2927 -0.8326
    2SAPS   H2Y  170   4.776   1.746  10.429  1.1883  1.2059  0.8571
    2SAPS   C23  171   5.117   1.254  10.268 -0.0203  0.2631 -0.3033
    2SAPS   H3R  172   5.043   1.337  10.277  1.9303  1.9144  1.2232
    2SAPS   H3S  173   5.060   1.163  10.238 -2.2574  0.3139  3.1810
    2SAPS   C24  174   5.210   1.308  10.160  0.5324  0.4227  0.2270
    2SAPS   H4R  175   5.262   1.399  10.196 -0.3198  1.5745 -1.3691
    2SAPS   H4S  176   5.148   1.346  10.077  1.0802  0.3535 -0.2178
    2SAPS   C25  177   5.305   1.203  10.113  0.3596 -0.6732 -0.2763
    2SAPS   H5R  178   5.400   1.206  10.169 -0.4998  0.4651  1.2018
    2SAPS   C26  179   5.284   1.108  10.020  0.8518  0.4178  0.3800
    2SAPS   H6R  180   5.368   1.048   9.981 -0.8796 -1.3856 -0.7205
    2SAPS   C27  181   5.155   1.094   9.943  0.2564 -0.2231  0.5720
    2SAPS   H7R  182   5.074   1.148   9.996  0.6873  1.1408 -0.1183
    2SAPS   H7S  183   5.127   0.986   9.937 -0.2325 -0.0604 -0.3285
    2SAPS   C28  184   5.155   1.151   9.805 -0.1718 -0.2561  0.3634
    2SAPS   H8R  185   5.248   1.198   9.767 -0.0715 -1.0476 -0.3876
    2SAPS   C29  186   5.055   1.149   9.719  0.1949 -0.1487 -0.1414
    2SAPS   H9R  187   5.064   1.184   9.615  0.3562 -2.4819 -0.9709
    2SAPS  C210  188   4.918   1.091   9.755  0.3626 -0.2194 -0.3958
    2SAPS  H10R  189   4.840   1.169   9.738 -1.1957 -1.3006  1.3918
    2SAPS  H10S  190   4.907   1.068   9.863  0.6343 -0.2029 -0.3639
    2SAPS  C211  191   4.905   0.963   9.673 -0.4103 -0.3054  0.6623
    2SAPS  H11R  192   4.962   0.873   9.698  0.9119  0.2227 -0.3390
    2SAPS  C212  193   4.837   0.947   9.556 -0.6097  0.2305  0.1638
    2SAPS  H12R  194   4.840   0.849   9.506  1.2344  0.6666 -0.6764
    2SAPS  C213  195   4.758   1.045   9.485  0.2721  0.5328  0.4114
    2SAPS  H13R  196   4.811   1.067   9.390 -0.8680 -0.6314 -0.5333
    2SAPS  H13S  197   4.752   1.149   9.526  1.1233  1.0114 -0.6364
    2SAPS  C214  198   4.611   0.996   9.476 -0.4164  0.5554 -0.6524
    2SAPS  H14R  199   4.556   1.019   9.569  2.6244  1.9024  1.0012
    2SAPS  C215  200   4.549   0.930   9.375  0.2391 -0.2461 -0.0962
    2SAPS  H15R  201   4.440   0.914   9.380  0.2738 -1.7385 -2.5425
    2SAPS  C216  202   4.617   0.905   9.237 -0.3918 -0.2282 -0.5714
    2SAPS  H16R  203   4.671   0.807   9.243 -0.7471 -0.4743 -1.3102
    2SAPS  H16S  204   4.694   0.980   9.211 -1.1428  1.2656  1.3200
    2SAPS  C217  205   4.525   0.893   9.112  0.7096 -0.1737 -0.3011
    2SAPS  H17R  206   4.435   0.956   9.125  1.3186  0.8005 -0.6243
    2SAPS  H17S  207   4.473   0.796   9.121 -2.7914  1.5499 -0.3962
    2SAPS  C218  208   4.597   0.923   8.982  0.0308 -0.3810  0.5035
    2SAPS  H18R  209   4.680   0.852   8.966 -0.7721 -1.0810 -0.7402
    2SAPS  H18S  210   4.626   1.030   8.979  0.3346 -0.4357  1.2393
    2SAPS  C219  211   4.508   0.890   8.857 -0.6324  0.1467  0.2721
    2SAPS  H19R  212   4.426   0.963   8.875  0.5995  1.3280  1.2830
    2SAPS  H19S  213   4.473   0.784   8.857  1.2739 -0.5202 -0.1244
    2SAPS  C220  214   4.585   0.903   8.723  1.5797  0.4348 -0.1271
    2SAPS  H20R  215   4.618   1.008   8.710  0.4896  1.0724  1.9030
    2SAPS  H20S  216   4.516   0.866   8.644 -1.5493 -2.2682  3.4611
    2SAPS  H20T  217   4.670   0.831   8.718  0.5325 -0.8049 -0.5823
    2SAPS   C33  218   4.936   1.638  10.318  0.1033  0.0204 -0.0505
    2SAPS   H3X  219   5.032   1.584  10.333 -0.0245 -0.3268 -0.4662
    2SAPS   H3Y  220   4.965   1.731  10.265  2.9765 -0.2880  0.8282
    2SAPS   C34  221   4.830   1.559  10.242 -0.2933  0.6017 -0.1373
    2SAPS   H4X  222   4.737   1.620  10.250 -1.0369 -0.2949 -1.4756
    2SAPS   H4Y  223   4.812   1.459  10.285 -2.0154  0.5165 -0.9853
    2SAPS   C35  224   4.868   1.548  10.093  0.0685  0.1975  0.0957
    2SAPS   H5X  225   4.956   1.482  10.079  0.0681  0.3980 -0.9230
    2SAPS   H5Y  226   4.892   1.648  10.051 -1.5885  0.3453 -0.5896
    2SAPS   C36  227   4.768   1.482  10.005  0.4062 -0.2452  0.3386
    2SAPS   H6X  228   4.668   1.525  10.025 -0.7584 -1.9126 -1.4499
    2SAPS   H6Y  229   4.754   1.373  10.023  0.2384 -0.0764  1.2275
    2SAPS   C37  230   4.814   1.510   9.852 -0.3943 -0.5556  0.1124
    2SAPS   H7X  231   4.896   1.441   9.825  0.0308 -0.6271  1.5006
    2SAPS   H7Y  232   4.847   1.615   9.848 -0.4778 -0.5668 -1.1195
    2SAPS   C38  233   4.697   1.485   9.759 -0.9046  0.3221  0.8580
    2SAPS   H8X  234   4.621   1.561   9.785 -2.4189 -0.7918 -0.1861
    2SAPS   H8Y  235   4.646   1.388   9.780  0.4909 -0.2609  1.6839
    2SAPS   C39  236   4.736   1.490   9.613 -0.5110 -0.2040  0.1616
    2SAPS   H9X  237   4.822   1.429   9.577  0.7175  1.1817  0.6247
    2SAPS   H9Y  238   4.768   1.594   9.590 -0.9150  0.0511  0.7407
    2SAPS  C310  239   4.618   1.463   9.519 -0.1805  0.2502 -0.1883
    2SAPS  H10X  240   4.526   1.516   9.550  0.2613 -0.4580  2.5692
    2SAPS  H10Y  241   4.595   1.355   9.520  3.6099 -0.7122 -0.1587
    2SAPS  C311  242   4.645   1.493   9.370 -0.4100 -0.2175 -0.3219
    2SAPS  H11X  243   4.703   1.588   9.363 -2.2383  0.8207 -3.0006
    2SAPS  H11Y  244   4.550   1.522   9.321 -0.5145 -1.3553 -0.8173
    2SAPS  C312  245   4.707   1.376   9.294  0.5611 -0.5740 -0.2678
    2SAPS  H12X  246   4.653   1.279   9.298 -0.4459 -0.1994 -3.1137
    2SAPS  H12Y  247   4.807   1.354   9.337  0.5531  1.6055  1.0336
    2SAPS  C313  248   4.724   1.406   9.146  0.4982  0.4255 -0.1451
    2SAPS  H13X  249   4.812   1.471   9.128  0.4904  0.2811 -0.7072
    2SAPS  H13Y  250   4.636   1.457   9.102  0.5149  0.9293  0.3940
    2SAPS  C314  251   4.747   1.271   9.064 -0.3218  0.3962 -0.3590
    2SAPS  H14X  252   4.656   1.209   9.078 -0.8066  1.5113  2.0279
    2SAPS  H14Y  253   4.839   1.223   9.105 -0.3930 -0.7191 -1.4780
    2SAPS  C315  254   4.779   1.292   8.915 -0.1409 -0.5309  0.4740
    2SAPS  H15X  255   4.807   1.199   8.861  3.8232  1.1131 -0.6768
    2SAPS  H15Y  256   4.875   1.347   8.912  0.7654 -1.9358  1.8280
    2SAPS  C316  257   4.659   1.356   8.846 -0.0311  0.1551 -0.5979
    2SAPS  H16X  258   4.574   1.360   8.917 -0.2362  0.1463 -0.8415
    2SAPS  H16Y  259   4.633   1.275   8.775  0.6950 -1.4549  0.9079
    2SAPS  C317  260   4.685   1.488   8.779 -0.0622 -0.6683  0.2813
    2SAPS  H17X  261   4.757   1.476   8.696  1.4737 -0.9691  1.5897
    2SAPS  H17Y  262   4.734   1.549   8.858  2.8884  1.4159 -2.8927
    2SAPS  C318  263   4.560   1.561   8.734  0.8699 -0.1568  0.4495
    2SAPS  H18X  264   4.585   1.662   8.694 -1.2099 -0.3056 -1.4417
    2SAPS  H18Y  265   4.487   1.583   8.814 -0.1331  0.9077 -0.7322
    2SAPS  H18Z  266   4.511   1.504   8.653  0.1149 -0.9257  1.4290
    3SAPS     N  267   1.422   3.847  11.274  0.1843  0.0028 -0.2981
    3SAPS   HN1  268   1.451   3.942  11.243 -0.1347  0.8329  1.7747
    3SAPS   HN2  269   1.479   3.827  11.358  0.1361  1.0413  0.0001
    3SAPS   HN3  270   1.444   3.775  11.202  2.6589 -0.3907  0.7387
    3SAPS   C12  271   1.274   3.870  11.311 -0.7226 -0.1775  0.2200
    3SAPS  H12A  272   1.239   3.793  11.379 -1.5453 -0.1646 -0.1784
    3SAPS   C13  273   1.232   3.994  11.388  0.4895 -1.3252 -0.2383
    3SAPS  O13A  274   1.314   4.088  11.410  0.2415 -0.1832  0.7729
    3SAPS  O13B  275   1.116   3.997  11.442  0.4188  0.0226  0.0032
    3SAPS   C11  276   1.197   3.878  11.181 -0.0368  0.4912  0.1673
    3SAPS  H11A  277   1.234   3.962  11.117 -1.8997  2.2786  1.3009
    3SAPS  H11B  278   1.090   3.899  11.202  0.1966  0.3521  1.6088
    3SAPS     P  279   1.095   3.670  11.077 -0.0916 -0.3937  0.3480
    3SAPS   O13  280   1.147   3.536  11.039  0.6015 -0.4871  0.0413
    3SAPS   O14  281   0.999   3.677  11.183  0.0985 -0.1322 -0.1863
    3SAPS   O12  282   1.216   3.758  11.118  0.6629 -0.4631 -0.0324
    3SAPS   O11  283   1.054   3.751  10.948  0.4543  0.3940  0.7333
    3SAPS    C1  284   1.003   3.691  10.831  0.3302  0.0221  0.0494
    3SAPS    HA  285   1.032   3.749  10.741  0.0538  1.6480  0.9493
    3SAPS    HB  286   1.034   3.585  10.830  1.1400  0.2542 -0.1264
    3SAPS    C2  287   0.847   3.709  10.846  0.9815  0.1811 -0.0644
    3SAPS    HS  288   0.824   3.683  10.951 -0.7847  2.3921  0.1762
    3SAPS   O21  289   0.785   3.624  10.741 -0.3897  0.3401  0.2928
    3SAPS   C21  290   0.772   3.501  10.765  0.3570 -0.2156 -0.3448
    3SAPS   O22  291   0.790   3.449  10.874 -0.4253  0.1827 -0.5503
    3SAPS   C22  292   0.710   3.432  10.647 -0.1104 -0.1002 -0.0858
    3SAPS   H2R  293   0.667   3.336  10.683  1.8566 -1.4682 -1.1923
    3SAPS   H2S  294   0.626   3.494  10.609  0.3464  0.0235 -0.8981
    3SAPS    C3  295   0.801   3.853  10.830  0.8781  0.1501 -0.7303
    3SAPS    HX  296   0.845   3.912  10.913  0.9093 -3.3367  2.0061
    3SAPS    HY  297   0.693   3.852  10.855  0.7597  1.1779 -1.1717
    3SAPS   O31  298   0.840   3.904  10.701  0.3335  0.0671  0.3117
    3SAPS   C31  299   0.744   3.914  10.605 -0.8843  0.5535 -0.1197
    3SAPS   O32  300   0.627   3.879  10.626  0.2016 -0.7545  0.1471
    3SAPS   C32  301   0.807   3.923  10.464 -0.2167 -0.1153 -0.8221
    3SAPS   H2X  302   0.854   4.023  10.452 -1.2069  0.6671  1.2532
    3SAPS   H2Y  303   0.718   3.908  10.399 -0.0453  0.7491 -1.2743
    3SAPS   C23  304   0.820   3.402  10.545  1.0909 -0.1738 -0.1988
    3SAPS   H3R  305   0.896   3.332  10.587  0.7098 -0.1767  0.5085
    3SAPS   H3S  306   0.869   3.500  10.526 -0.3964  0.9925  1.5960
    3SAPS   C24  307   0.757   3.343  10.421  0.1810 -0.4358 -0.7905
    3SAPS   H4R  308   0.821   3.337  10.330 -0.5111 -0.4445 -1.2832
    3SAPS   H4S  309   0.667   3.401  10.390  0.2849 -0.3821 -0.9953
    3SAPS   C25  310   0.706   3.204  10.429  0.2340 -0.1206 -1.1642
    3SAPS   H5R  311   0.675   3.163  10.527  1.4296 -1.7915 -1.4470
    3SAPS   C26  312   0.706   3.106  10.340  0.0154 -0.2039  0.0701
    3SAPS   H6R  313   0.655   3.012  10.368  1.6154 -1.3856 -0.7716
    3SAPS   C27  314   0.757   3.096  10.202  0.3413  0.1696 -0.2251
    3SAPS   H7R  315   0.776   2.987  10.187  0.2630 -0.1404  1.6247
    3SAPS   H7S  316   0.851   3.154  10.193  0.6606 -0.4914 -1.2899
    3SAPS   C28  317   0.674   3.151  10.092  0.2464  0.2972  0.5818
    3SAPS   H8R  318   0.619   3.241  10.125 -0.3883  0.1906 -0.1593
    3SAPS   C29  319   0.654   3.112   9.960  0.5059  0.2531 -0.5047
    3SAPS   H9R  320   0.597   3.174   9.890 -0.0368 -1.1604 -1.3483
    3SAPS  C210  321   0.732   2.993   9.890 -0.1540  0.5367  0.0713
    3SAPS  H10R  322   0.656   2.915   9.867  1.1314 -1.1003  1.1633
    3SAPS  H10S  323   0.804   2.945   9.960 -0.2610 -0.1001 -0.2459
    3SAPS  C211  324   0.807   3.032   9.761  0.3207  0.1291  0.2037
    3SAPS  H11R  325   0.909   3.073   9.771  0.7607 -0.6929 -0.8263
    3SAPS  C212  326   0.749   3.034   9.643  0.2341  0.8685  0.9602
    3SAPS  H12R  327   0.805   3.062   9.552 -2.2434  1.5804 -0.4514
    3SAPS  C213  328   0.600   3.004   9.607 -0.3329  0.1772 -0.0168
    3SAPS  H13R  329   0.542   2.998   9.701 -1.7639  1.7843 -0.7486
    3SAPS  H13S  330   0.596   2.897   9.577 -1.1757  0.0434  0.5446
    3SAPS  C214  331   0.528   3.095   9.508  0.1145 -0.5692 -0.1760
    3SAPS  H14R  332   0.503   3.198   9.534 -0.3852 -0.0500 -2.4875
    3SAPS  C215  333   0.494   3.066   9.381 -0.1719 -0.2518 -0.4781
    3SAPS  H15R  334   0.450   3.144   9.318 -1.1602 -0.3693  0.0390
    3SAPS  C216  335   0.514   2.928   9.315 -0.3723 -0.1805  0.3482
    3SAPS  H16R  336   0.435   2.853   9.338 -0.4795 -0.2788 -0.3253
    3SAPS  H16S  337   0.613   2.888   9.345 -0.5867 -2.0028 -1.1600
    3SAPS  C217  338   0.512   2.947   9.157  0.1193 -0.1207 -0.0334
    3SAPS  H17R  339   0.524   2.846   9.114  1.3006  0.0398 -0.1207
    3SAPS  H17S  340   0.608   2.994   9.128  2.5890 -4.4679  0.2585
    3SAPS  C218  341   0.384   2.998   9.087 -0.1269  0.4386  0.5346
    3SAPS  H18R  342   0.367   3.108   9.096  0.7188  0.6583 -0.3010
    3SAPS  H18S  343   0.304   2.949   9.147 -0.6404  0.8882  0.2252
    3SAPS  C219  344   0.362   2.945   8.952  0.0384 -0.3981  0.0117
    3SAPS  H19R  345   0.268   2.972   8.901  0.0636  0.0893  0.2204
    3SAPS  H19S  346   0.353   2.836   8.972 -1.3289 -0.6823 -1.9249
    3SAPS  C220  347   0.476   2.975   8.851  0.3323  0.5028 -0.0231
    3SAPS  H20R  348   0.469   3.083   8.823 -3.1292  1.4060  3.5184
    3SAPS  H20S  349   0.458   2.906   8.766  3.1636 -0.2886 -0.0827
    3SAPS  H20T  350   0.576   2.951   8.894  0.8367  1.2945 -0.7218
    3SAPS   C33  351   0.920   3.819  10.451  0.2053  0.0907  0.0695
    3SAPS   H3X  352   0.905   3.726  10.510 -1.6570  0.0320 -0.4239
    3SAPS   H3Y  353   1.002   3.868  10.507 -0.7806  0.3117  1.3580
    3SAPS   C34  354   0.961   3.787  10.307  0.1414  0.4078 -0.9728
    3SAPS   H4X  355   1.069   3.763  10.300  0.5658  2.0242 -0.3269
    3SAPS   H4Y  356   0.930   3.874  10.246 -1.3012  0.6653  0.0911
    3SAPS   C35  357   0.878   3.671  10.247  0.2375 -0.1802 -0.0769
    3SAPS   H5X  358   0.775   3.677  10.289  0.5276  3.4877  0.4358
    3SAPS   H5Y  359   0.922   3.578  10.290  0.8795 -0.0758 -0.5105
    3SAPS   C36  360   0.872   3.673  10.094  0.6311  0.1105 -0.6705
    3SAPS   H6X  361   0.975   3.684  10.054  0.3863 -1.6159 -1.8670
    3SAPS   H6Y  362   0.816   3.763  10.059  0.0956  0.8840  1.9403
    3SAPS   C37  363   0.801   3.554  10.034  0.1543 -0.1842  0.2833
    3SAPS   H7X  364   0.706   3.539  10.089  0.8539  0.4701  1.7339
    3SAPS   H7Y  365   0.872   3.473  10.058  0.9408  0.6620  0.8812
    3SAPS   C38  366   0.782   3.564   9.881  0.7471 -0.4237 -0.3819
    3SAPS   H8X  367   0.714   3.644   9.845  2.0327  1.2061  0.6734
    3SAPS   H8Y  368   0.732   3.469   9.851 -3.0774  1.4741 -0.5705
    3SAPS   C39  369   0.913   3.567   9.814 -0.3323 -0.3966  0.5224
    3SAPS   H9X  370   0.979   3.483   9.844  0.5890 -1.0379 -2.9058
    3SAPS   H9Y  371   0.971   3.661   9.828 -0.7607  0.6092 -3.2760
    3SAPS  C310  372   0.899   3.553   9.660 -0.3276  1.1842 -0.5094
    3SAPS  H10X  373   0.822   3.478   9.635 -1.9244  3.6476 -3.7871
    3SAPS  H10Y  374   1.002   3.533   9.623  0.0789  1.1416  0.6320
    3SAPS  C311  375   0.868   3.688   9.597 -0.8549  0.9190  0.2202
    3SAPS  H11X  376   0.949   3.752   9.638  0.5030 -1.5646  1.6390
    3SAPS  H11Y  377   0.769   3.733   9.620 -2.2359 -2.0950  0.6099
    3SAPS  C312  378   0.885   3.678   9.449 -0.1913 -0.0298  0.3834
    3SAPS  H12X  379   0.995   3.664   9.439 -0.3143 -0.6051 -0.2843
    3SAPS  H12Y  380   0.851   3.771   9.399 -1.4420 -0.9924 -0.6369
    3SAPS  C313  381   0.806   3.556   9.393 -0.3588 -0.1805 -0.5140
    3SAPS  H13X  382   0.705   3.544   9.437 -0.4414 -0.3636 -0.7511
    3SAPS  H13Y  383   0.868   3.468   9.419  0.2891  0.0331 -1.2664
    3SAPS  C314  384   0.785   3.568   9.237 -0.0582  0.4672  0.2753
    3SAPS  H14X  385   0.885   3.547   9.196  0.9033 -0.1261  2.7110
    3SAPS  H14Y  386   0.741   3.667   9.212 -1.2384  0.2744  1.4185
    3SAPS  C315  387   0.683   3.461   9.170  0.1417 -0.1297 -0.2084
    3SAPS  H15X  388   0.691   3.472   9.060  0.4563 -0.3220 -0.2067
    3SAPS  H15Y  389   0.583   3.490   9.209  0.6323  4.0230 -1.5121
    3SAPS  C316  390   0.711   3.314   9.201 -0.3991  0.4836  0.0184
    3SAPS  H16X  391   0.627   3.257   9.156 -0.8711  2.4862 -1.8527
    3SAPS  H16Y  392   0.720   3.294   9.310  2.0253 -1.1004 -0.3992
    3SAPS  C317  393   0.836   3.259   9.132  0.0355  0.1365 -1.1164
    3SAPS  H17X  394   0.919   3.322   9.169 -0.6365  0.0150  0.6609
    3SAPS  H17Y  395   0.827   3.267   9.021  1.6234 -0.8700 -1.3494
    3SAPS  C318  396   0.878   3.119   9.178 -0.4179 -0.0016 -0.0596
    3SAPS  H18X  397   0.803   3.041   9.156  0.6872 -0.1522 -3.9359
    3SAPS  H18Y  398   0.882   3.122   9.289 -2.3187 -2.2841  0.1312
    3SAPS  H18Z  399   0.976   3.088   9.135  1.3047 -3.1323  5.2332
    4SAPS     N  400   3.563   0.465  10.978  0.1229 -0.0953  0.4635
    4SAPS   HN1  401   3.616   0.553  10.995  3.6109 -1.7348 -1.0266
    4SAPS   HN2  402   3.604   0.401  11.050  1.3207  1.3648  1.1376
    4SAPS   HN3  403   3.564   0.436  10.878  0.7451 -0.8590  0.6811
    4SAPS   C12  404   3.417   0.498  11.014  0.7560  0.2971  0.4914
    4SAPS  H12A  405   3.362   0.407  11.030  1.1042 -0.0171 -0.0670
    4SAPS   C13  406   3.390   0.581  11.143  0.2993  0.6530  0.0291
    4SAPS  O13A  407   3.481   0.617  11.217 -0.4651  0.0968 -0.3106
    4SAPS  O13B  408   3.276   0.624  11.163 -0.6386  0.0471  0.9058
    4SAPS   C11  409   3.358   0.587  10.900 -0.0839  0.2179  0.0916
    4SAPS  H11A  410   3.413   0.684  10.894 -1.4050  0.9514 -0.8064
    4SAPS  H11B  411   3.254   0.619  10.923 -1.1297 -2.5966 -0.2916
    4SAPS     P  412   3.238   0.421  10.738  0.4473  0.2064 -0.4801
    4SAPS   O13  413   3.307   0.305  10.683  0.5321  0.1096 -0.0138
    4SAPS   O14  414   3.152   0.384  10.857  0.0769  0.1700  0.0739
    4SAPS   O12  415   3.347   0.519  10.772 -0.0849  0.1438 -0.8135
    4SAPS   O11  416   3.149   0.492  10.630 -0.2500  0.5179  0.2558
    4SAPS    C1  417   3.192   0.601  10.551  0.1041 -0.0072  0.4059
    4SAPS    HA  418   3.186   0.690  10.617 -0.5823  0.1266  0.1759
    4SAPS    HB  419   3.301   0.592  10.534  0.3412 -0.8712  2.2324
    4SAPS    C2  420   3.114   0.625  10.413  0.2189 -0.1881 -0.4371
    4SAPS    HS  421   3.005   0.614  10.431  0.1638 -0.7792 -1.1090
    4SAPS   O21  422   3.157   0.523  10.327 -0.0511 -0.0958 -0.1978
    4SAPS   C21  423   3.056   0.486  10.239 -0.6292  0.4903 -0.7612
    4SAPS   O22  424   2.945   0.538  10.242 -0.3686 -0.0090 -0.0085
    4SAPS   C22  425   3.105   0.381  10.147  0.6185  1.3768 -0.1014
    4SAPS   H2R  426   3.213   0.358  10.162  0.3238 -0.8064 -0.9702
    4SAPS   H2S  427   3.040   0.297  10.176  2.0579  0.3026  0.1105
    4SAPS    C3  428   3.145   0.762  10.352  0.2899 -0.1241  0.3306
    4SAPS    HX  429   3.253   0.768  10.325  0.0463  2.7555 -0.3561
    4SAPS    HY  430   3.138   0.848  10.423  0.4821 -0.4346  0.7264
    4SAPS   O31  431   3.070   0.782  10.226 -0.0402  0.7165 -0.3695
    4SAPS   C31  432   2.950   0.823  10.241 -0.7065  0.5054 -0.0542
    4SAPS   O32  433   2.892   0.842  10.348 -0.1784  0.0847  0.2978
    4SAPS   C32  434   2.881   0.832  10.097  0.0837  0.5214 -0.7154
    4SAPS   H2X  435   2.928   0.754  10.034 -1.8885 -1.7479  0.4354
    4SAPS   H2Y  436   2.889   0.941  10.075 -0.1390  1.2720  2.4330
    4SAPS   C23  437   3.068   0.397   9.996  0.1072  0.0488 -0.3173
    4SAPS   H3R  438   3.110   0.482   9.939 -1.3523 -0.1956 -1.8271
    4SAPS   H3S  439   2.958   0.411   9.997 -0.0570 -0.2475  4.0583
    4SAPS   C24  440   3.091   0.266   9.906 -0.4327  0.0807 -0.1048
    4SAPS   H4R  441   3.072   0.170   9.958  1.5729 -0.1502  0.2731
    4SAPS   H4S  442   3.199   0.263   9.881 -0.3761  1.6071 -0.1475
    4SAPS   C25  443   3.015   0.247   9.780 -0.5118 -0.3203  0.1478
    4SAPS   H5R  444   2.946   0.161   9.784  0.5300 -1.1623  0.7186
    4SAPS   C26  445   3.010   0.323   9.670  0.1583 -0.6834 -0.0086
    4SAPS   H6R  446   2.956   0.277   9.586 -1.4406  0.8593  0.1302
    4SAPS   C27  447   3.087   0.454   9.636 -0.0460 -0.5002 -0.0407
    4SAPS   H7R  448   3.092   0.533   9.714  0.2607  2.3514 -2.7393
    4SAPS   H7S  449   3.024   0.512   9.565 -1.2142  0.1886  1.4982
    4SAPS   C28  450   3.230   0.440   9.583 -0.1614  0.4438 -0.0859
    4SAPS   H8R  451   3.284   0.371   9.650  1.6462  1.8694 -0.0006
    4SAPS   C29  452   3.294   0.503   9.489 -0.5066 -0.0289  0.4009
    4SAPS   H9R  453   3.391   0.457   9.466 -1.2702 -2.4895  1.7631
    4SAPS  C210  454   3.245   0.613   9.401 -0.1827 -0.1345  0.2823
    4SAPS  H10R  455   3.322   0.678   9.354 -0.3563 -0.7743 -0.9393
    4SAPS  H10S  456   3.171   0.676   9.455 -0.5918 -0.4758  0.1277
    4SAPS  C211  457   3.152   0.568   9.293  0.2232  0.3495  0.6083
    4SAPS  H11R  458   3.066   0.505   9.321 -0.3884  0.5742 -0.7130
    4SAPS  C212  459   3.148   0.608   9.164  0.1273 -0.1607  0.3321
    4SAPS  H12R  460   3.071   0.562   9.101  0.5143  2.0627 -1.8696
    4SAPS  C213  461   3.240   0.707   9.096 -0.2786  0.2243 -0.3689
    4SAPS  H13R  462   3.336   0.716   9.150 -0.3715  0.6593 -0.2699
    4SAPS  H13S  463   3.203   0.812   9.090  0.0382  0.2859 -1.4778
    4SAPS  C214  464   3.273   0.648   8.957 -0.0100 -0.4836 -0.1117
    4SAPS  H14R  465   3.342   0.562   8.958  2.9615  1.7143  0.3148
    4SAPS  C215  466   3.247   0.701   8.837  0.1627 -0.0721  0.3418
    4SAPS  H15R  467   3.288   0.651   8.747 -0.6506 -0.2423  0.0621
    4SAPS  C216  468   3.160   0.820   8.819 -0.2730 -0.3701 -0.0037
    4SAPS  H16R  469   3.192   0.906   8.880  2.4846 -0.2627 -1.4779
    4SAPS  H16S  470   3.057   0.788   8.848  0.2267 -2.9077 -0.7188
    4SAPS  C217  471   3.152   0.880   8.679 -0.4093  0.5309 -0.4195
    4SAPS  H17R  472   3.072   0.957   8.677 -1.4092 -0.4166  0.9812
    4SAPS  H17S  473   3.114   0.808   8.603 -2.2678  0.8132  0.1994
    4SAPS  C218  474   3.289   0.934   8.625  0.5885 -1.0459  0.2850
    4SAPS  H18R  475   3.362   0.851   8.633  0.0305 -1.7195 -1.2496
    4SAPS  H18S  476   3.320   1.022   8.685 -2.3462  0.6264 -0.4460
    4SAPS  C219  477   3.288   0.973   8.475 -0.3853 -0.0352  0.1375
    4SAPS  H19R  478   3.227   1.065   8.476  0.1198  0.3364  2.5187
    4SAPS  H19S  479   3.234   0.896   8.414 -3.6160  2.9491 -1.0843
    4SAPS  C220  480   3.426   0.994   8.413 -0.1157 -0.1678 -0.0541
    4SAPS  H20R  481   3.471   1.092   8.438  2.0610 -0.9932 -0.4665
    4SAPS  H20S  482   3.420   0.993   8.302 -0.1805  0.8128 -0.0619
    4SAPS  H20T  483   3.502   0.919   8.445  0.3676 -0.1431 -1.1034
    4SAPS   C33  484   2.731   0.793  10.095  0.2900  0.4683 -0.1885
    4SAPS   H3X  485   2.679   0.851  10.175 -0.4079 -0.7020  0.2296
    4SAPS   H3Y  486   2.720   0.688  10.132 -2.0723  0.3946 -0.9122
    4SAPS   C34  487   2.668   0.814   9.958 -0.5003 -0.9443  0.2817
    4SAPS   H4X  488   2.714   0.908   9.920 -0.1879  0.0319  2.8538
    4SAPS   H4Y  489   2.560   0.826   9.981 -0.3377 -0.4829  0.8275
    4SAPS   C35  490   2.704   0.710   9.861  0.1561  0.2782 -0.8902
    4SAPS   H5X  491   2.654   0.614   9.888  0.3388  0.4745  0.1982
    4SAPS   H5Y  492   2.811   0.685   9.878 -0.7599 -2.3475  1.9868
    4SAPS   C36  493   2.687   0.739   9.713  0.0014  0.5592 -0.2407
    4SAPS   H6X  494   2.766   0.808   9.674  1.0731 -0.1302  0.6526
    4SAPS   H6Y  495   2.587   0.785   9.696 -0.6968 -1.5751 -2.4552
    4SAPS   C37  496   2.697   0.609   9.627  0.0294 -0.2097 -0.0791
    4SAPS   H7X  497   2.612   0.541   9.650 -0.6755  0.1287 -1.5756
    4SAPS   H7Y  498   2.790   0.552   9.647 -0.6039 -1.5703 -0.8615
    4SAPS   C38  499   2.687   0.646   9.476 -0.0563  0.6320 -0.2378
    4SAPS   H8X  500   2.610   0.725   9.462  0.4692  0.6475 -4.1184
    4SAPS   H8Y  501   2.654   0.554   9.422  1.3953 -1.0240  1.5495
    4SAPS   C39  502   2.819   0.695   9.413 -0.4592  0.1501 -0.6215
    4SAPS   H9X  503   2.904   0.630   9.442 -0.4790 -0.2835 -1.5028
    4SAPS   H9Y  504   2.837   0.798   9.453 -0.6338  0.5556 -1.5521
    4SAPS  C310  505   2.820   0.714   9.261  0.2369  0.0366 -0.1208
    4SAPS  H10X  506   2.918   0.755   9.230  0.7911 -0.6426  0.7012
    4SAPS  H10Y  507   2.732   0.779   9.241 -0.8208 -0.4222  2.6378
    4SAPS  C311  508   2.796   0.581   9.191  0.3793 -0.2169 -0.0344
    4SAPS  H11X  509   2.698   0.541   9.223  0.2313 -0.5323 -0.8580
    4SAPS  H11Y  510   2.873   0.514   9.235  3.4916  2.5718 -0.8141
    4SAPS  C312  511   2.797   0.594   9.037 -0.1822 -0.2167 -0.2642
    4SAPS  H12X  512   2.892   0.647   9.013 -0.6120  1.6915  1.8484
    4SAPS  H12Y  513   2.724   0.666   8.996 -1.6680 -0.4850  1.7417
    4SAPS  C313  514   2.792   0.456   8.978 -0.7189 -0.5549  0.0870
    4SAPS  H13X  515   2.689   0.428   8.951 -0.4171  0.3328 -2.2507
    4SAPS  H13Y  516   2.815   0.377   9.053  1.1019 -0.8399 -0.7127
    4SAPS  C314  517   2.881   0.420   8.854  0.1050  0.1374 -0.1882
    4SAPS  H14X  518   2.889   0.310   8.844 -1.7564 -0.2488  1.8780
    4SAPS  H14Y  519   2.978   0.468   8.880 -0.7353  1.6440  0.3017
    4SAPS  C315  520   2.833   0.460   8.710 -0.0178  0.4022  0.9173
    4SAPS  H15X  521   2.725   0.435   8.705  0.6121 -2.4160 -0.8626
    4SAPS  H15Y  522   2.896   0.395   8.645 -0.4026  1.1874 -0.2508
    4SAPS  C316  523   2.849   0.606   8.673 -0.3860  0.4956  0.2210
    4SAPS  H16X  524   2.926   0.655   8.737 -0.5875  0.5917  0.3880
    4SAPS  H16Y  525   2.752   0.651   8.704 -0.5284  0.6412 -0.4012
    4SAPS  C317  526   2.865   0.630   8.524 -0.3275 -0.5821  0.4707
    4SAPS  H17X  527   2.848   0.738   8.508 -1.5594 -1.0848 -2.1209
    4SAPS  H17Y  528   2.790   0.560   8.482 -0.5097  0.5070 -1.1217
    4SAPS  C318  529   3.002   0.585   8.468 -0.6210  0.1262  0.6954
    4SAPS  H18X  530   3.002   0.477   8.440 -1.3141  0.3259 -0.1066
    4SAPS  H18Y  531   3.097   0.607   8.522 -0.6978  1.2249  0.4089
    4SAPS  H18Z  532   3.024   0.637   8.372 -1.2249  1.1146  1.0803
    5SAPS     N  533   1.674   4.192  10.897 -0.2119 -0.3568  0.2702
    5SAPS   HN1  534   1.746   4.259  10.932 -1.0810  0.8435 -0.1851
    5SAPS   HN2  535   1.735   4.115  10.861  1.2908  0.9135 -0.0438
    5SAPS   HN3  536   1.624   4.234  10.816  3.0575  0.5876 -1.4648
    5SAPS   C12  537   1.584   4.145  11.005  0.0920  0.0879 -0.4570
    5SAPS  H12A  538   1.538   4.050  10.983  0.3284 -0.1020 -0.1291
    5SAPS   C13  539   1.652   4.112  11.141  0.4647 -0.1355 -0.0012
    5SAPS  O13A  540   1.772   4.137  11.158  0.2584  0.1418 -0.5007
    5SAPS  O13B  541   1.588   4.043  11.224  0.1979 -0.1044 -0.3418
    5SAPS   C11  542   1.473   4.252  11.036 -0.9683  0.3461  0.5990
    5SAPS  H11A  543   1.528   4.328  11.096  2.6704 -0.8665 -0.8829
    5SAPS  H11B  544   1.392   4.205  11.096 -1.8058 -0.5420 -1.1662
    5SAPS     P  545   1.347   4.435  10.900  0.4413 -0.1369 -0.0153
    5SAPS   O13  546   1.222   4.417  10.975  0.3279  0.3489 -0.4505
    5SAPS   O14  547   1.441   4.536  10.947  0.3180 -0.2069  0.2036
    5SAPS   O12  548   1.429   4.298  10.907 -0.3987  0.3084  0.3020
    5SAPS   O11  549   1.323   4.468  10.744  0.1193  0.6631  0.0658
    5SAPS    C1  550   1.195   4.456  10.677 -0.3649 -0.4331 -0.2176
    5SAPS    HA  551   1.109   4.509  10.724  1.1797  1.5989  0.4470
    5SAPS    HB  552   1.215   4.505  10.580 -0.0343 -1.5016 -0.7108
    5SAPS    C2  553   1.161   4.306  10.651 -0.4278 -0.0792  0.1440
    5SAPS    HS  554   1.173   4.246  10.744  1.1372  0.8504  0.5814
    5SAPS   O21  555   1.265   4.259  10.567 -0.1335 -0.6693 -0.1449
    5SAPS   C21  556   1.257   4.125  10.545  0.2334 -0.0802 -0.1282
    5SAPS   O22  557   1.190   4.041  10.608  0.3698 -0.0854  0.1362
    5SAPS   C22  558   1.356   4.097  10.433 -0.2584  0.2820  0.3322
    5SAPS   H2R  559   1.364   4.181  10.361 -2.5686  1.7862  1.7090
    5SAPS   H2S  560   1.455   4.083  10.482 -0.8220  0.2096  1.4733
    5SAPS    C3  561   1.025   4.286  10.585 -0.5533 -0.2412  0.0091
    5SAPS    HX  562   0.950   4.339  10.647  0.4407 -0.2459  1.2428
    5SAPS    HY  563   1.006   4.178  10.572 -2.0411 -0.1631  1.3265
    5SAPS   O31  564   1.017   4.362  10.462 -0.8166  0.4338 -0.4734
    5SAPS   C31  565   1.017   4.284  10.354 -0.3169  0.1229 -0.4377
    5SAPS   O32  566   1.014   4.162  10.344  0.1001  0.7382  0.3488
    5SAPS   C32  567   1.028   4.374  10.237  0.1548 -0.2534 -0.6565
    5SAPS   H2X  568   1.126   4.427  10.237  0.1463 -0.1033 -3.4224
    5SAPS   H2Y  569   0.939   4.441  10.240  0.5926  0.3051  0.0644
    5SAPS   C23  570   1.331   3.958  10.371 -0.7401  0.4536 -0.1213
    5SAPS   H3R  571   1.228   3.963  10.331 -0.2730 -0.2130 -1.4860
    5SAPS   H3S  572   1.338   3.885  10.454  1.0630  0.8132  0.0859
    5SAPS   C24  573   1.418   3.916  10.249 -0.3687  0.4087  0.3072
    5SAPS   H4R  574   1.391   3.812  10.223  1.5572  0.0806 -0.5144
    5SAPS   H4S  575   1.519   3.894  10.289  0.3088  0.4771 -1.3129
    5SAPS   C25  576   1.419   4.016  10.133 -0.1466 -0.1118 -0.4133
    5SAPS   H5R  577   1.470   4.110  10.158  0.9774 -1.6945  4.1981
    5SAPS   C26  578   1.391   3.990  10.010  0.1836 -0.2471  0.4432
    5SAPS   H6R  579   1.370   4.081   9.952 -0.9079  0.4712  1.8880
    5SAPS   C27  580   1.339   3.863   9.944 -0.3055  0.3609 -0.7649
    5SAPS   H7R  581   1.377   3.774   9.998  2.4684  0.0663 -3.0121
    5SAPS   H7S  582   1.393   3.854   9.848  0.6495  3.4479 -0.6100
    5SAPS   C28  583   1.193   3.868   9.909 -0.8249 -0.2424 -0.1370
    5SAPS   H8R  584   1.122   3.828   9.982  0.2235  1.7923  2.1664
    5SAPS   C29  585   1.146   3.904   9.785 -0.4132  0.1150  0.4756
    5SAPS   H9R  586   1.040   3.886   9.763  0.0370 -1.8664 -0.3331
    5SAPS  C210  587   1.215   3.957   9.663 -0.2611  0.8128 -0.1799
    5SAPS  H10R  588   1.309   4.006   9.697 -0.0510  0.4804 -0.2878
    5SAPS  H10S  589   1.165   4.042   9.611 -2.0480  0.6160  1.1181
    5SAPS  C211  590   1.239   3.841   9.570  0.3839  0.0489 -0.4158
    5SAPS  H11R  591   1.285   3.750   9.611 -1.6249 -1.6145 -1.6284
    5SAPS  C212  592   1.215   3.848   9.438 -0.4574  0.7486 -0.8070
    5SAPS  H12R  593   1.218   3.752   9.384 -1.2175 -0.6601  1.5102
    5SAPS  C213  594   1.165   3.966   9.359  0.2951 -0.3872 -0.0016
    5SAPS  H13R  595   1.169   4.061   9.416  1.8492 -0.6162  0.2983
    5SAPS  H13S  596   1.057   3.942   9.341  0.0725  1.1747 -0.8663
    5SAPS  C214  597   1.242   3.981   9.231  0.0368 -0.1498  0.0055
    5SAPS  H14R  598   1.349   3.991   9.252  0.0441  1.0407 -0.5051
    5SAPS  C215  599   1.197   3.988   9.105  0.4210 -1.3410 -0.2078
    5SAPS  H15R  600   1.278   3.997   9.031  1.3268  1.6560  1.0039
    5SAPS  C216  601   1.053   3.986   9.053 -0.4316  0.6355  0.3259
    5SAPS  H16R  602   1.029   4.074   8.990 -2.1566 -0.3440 -0.4470
    5SAPS  H16S  603   0.980   3.988   9.137 -0.3244  1.5975  0.4118
    5SAPS  C217  604   1.021   3.865   8.972 -0.1964 -0.1915  0.5202
    5SAPS  H17R  605   1.068   3.779   9.024  1.3760 -0.3242 -1.0251
    5SAPS  H17S  606   1.082   3.873   8.879  0.2232 -1.9617  0.6027
    5SAPS  C218  607   0.875   3.837   8.952 -0.3087 -0.0614 -0.5146
    5SAPS  H18R  608   0.826   3.800   9.044 -1.7416  0.6818 -0.9449
    5SAPS  H18S  609   0.822   3.929   8.919  0.8527  0.3769 -1.2516
    5SAPS  C219  610   0.851   3.732   8.845  0.5381  0.2135  0.7156
    5SAPS  H19R  611   0.753   3.681   8.856  1.8933 -2.9547 -0.6163
    5SAPS  H19S  612   0.930   3.654   8.846  2.1092  1.6453 -1.6005
    5SAPS  C220  613   0.852   3.793   8.702 -0.5421 -1.0429 -0.8111
    5SAPS  H20R  614   0.945   3.837   8.661  0.4361 -0.6577  1.6500
    5SAPS  H20S  615   0.775   3.873   8.702  1.0034  0.4921 -0.9605
    5SAPS  H20T  616   0.824   3.711   8.632 -0.3844 -1.9411  0.1528
    5SAPS   C33  617   1.021   4.294  10.117 -0.7697 -0.0978 -0.2369
    5SAPS   H3X  618   0.920   4.248  10.103 -0.9133 -0.1793  0.9746
    5SAPS   H3Y  619   1.089   4.206  10.112 -2.9853 -1.8721 -1.0120
    5SAPS   C34  620   1.032   4.394  10.001 -0.0135 -0.1151 -0.7797
    5SAPS   H4X  621   1.138   4.426   9.995  0.2498 -0.9476 -0.6686
    5SAPS   H4Y  622   0.963   4.480  10.016 -1.1717 -1.0212 -0.8077
    5SAPS   C35  623   0.999   4.333   9.871 -0.5563  0.4309  0.6484
    5SAPS   H5X  624   0.895   4.293   9.862 -1.0083  2.0148 -2.7528
    5SAPS   H5Y  625   1.071   4.251   9.851 -0.3900  1.2610 -2.8018
    5SAPS   C36  626   1.020   4.431   9.752  0.2408 -0.3074 -0.1796
    5SAPS   H6X  627   1.125   4.466   9.765 -0.2076  0.9081  0.2687
    5SAPS   H6Y  628   0.960   4.522   9.773  0.4755 -0.4017  0.9526
    5SAPS   C37  629   0.988   4.382   9.608  0.4597  0.4060  0.4286
    5SAPS   H7X  630   0.879   4.362   9.614  0.1733  2.2216  2.6300
    5SAPS   H7Y  631   1.042   4.285   9.598  0.8394  0.7057 -0.4692
    5SAPS   C38  632   1.026   4.491   9.504  0.1816  0.2433  0.2058
    5SAPS   H8X  633   1.133   4.505   9.528  0.4878 -2.5702  0.8987
    5SAPS   H8Y  634   0.976   4.587   9.528  0.1649  0.1329  0.6085
    5SAPS   C39  635   1.009   4.457   9.356 -0.3043 -0.2946  0.0142
    5SAPS   H9X  636   1.017   4.347   9.346 -2.1097 -0.5051  0.4952
    5SAPS   H9Y  637   1.092   4.504   9.298  0.6423 -0.6548  1.0298
    5SAPS  C310  638   0.868   4.492   9.304  0.6198 -0.0010  0.3668
    5SAPS  H10X  639   0.862   4.601   9.286  2.3311 -0.0173 -0.5704
    5SAPS  H10Y  640   0.796   4.466   9.384  2.6000 -2.5952  1.4586
    5SAPS  C311  641   0.834   4.410   9.173  0.6100 -0.7179 -0.3352
    5SAPS  H11X  642   0.724   4.410   9.163  0.6953 -0.3430 -1.3822
    5SAPS  H11Y  643   0.873   4.307   9.188 -1.0446 -1.6365 -1.9519
    5SAPS  C312  644   0.890   4.464   9.044 -0.2200 -0.4494  0.2178
    5SAPS  H12X  645   0.999   4.479   9.062 -0.0873  1.4610 -1.7864
    5SAPS  H12Y  646   0.849   4.567   9.044 -2.5950 -1.3356  0.8038
    5SAPS  C313  647   0.857   4.399   8.912  0.6301  0.2258 -0.2937
    5SAPS  H13X  648   0.943   4.328   8.907 -1.0836 -2.1872  1.7169
    5SAPS  H13Y  649   0.870   4.463   8.822  0.8059  0.5421 -0.0465
    5SAPS  C314  650   0.714   4.346   8.901  0.2166 -0.1674 -0.6159
    5SAPS  H14X  651   0.645   4.433   8.915 -0.1957 -0.7028  0.9321
    5SAPS  H14Y  652   0.710   4.274   8.986  0.0201  0.3158 -0.2056
    5SAPS  C315  653   0.690   4.281   8.763 -0.7319  0.5513  0.2453
    5SAPS  H15X  654   0.762   4.199   8.744 -2.9305 -1.2764 -0.7444
    5SAPS  H15Y  655   0.706   4.372   8.701 -0.2375  0.5702  0.4006
    5SAPS  C316  656   0.556   4.221   8.745 -0.5225 -0.2595 -0.1303
    5SAPS  H16X  657   0.474   4.293   8.765  0.9545  1.6922 -0.7417
    5SAPS  H16Y  658   0.550   4.146   8.826  0.1849  0.9920  1.1251
    5SAPS  C317  659   0.535   4.173   8.605  0.0815 -0.0546  0.3350
    5SAPS  H17X  660   0.426   4.156   8.605  0.1329 -0.4090 -0.0253
    5SAPS  H17Y  661   0.599   4.083   8.591  1.0561  0.4168  1.5561
    5SAPS  C318  662   0.566   4.275   8.492 -0.0264 -0.3351 -0.6873
    5SAPS  H18X  663   0.523   4.246   8.394  0.5240 -0.5028 -0.8786
    5SAPS  H18Y  664   0.675   4.285   8.476  0.1037  0.8165  0.6617
    5SAPS  H18Z  665   0.518   4.372   8.518  0.8099 -0.0243 -0.2833
    6SAPS     N  666   5.675   3.985  10.961 -0.4762  0.6091 -0.1992
    6SAPS   HN1  667   5.686   4.052  11.040 -1.2701 -0.8734  1.2012
    6SAPS   HN2  668   5.611   4.025  10.889 -0.8797  1.7315  0.7504
    6SAPS   HN3  669   5.624   3.911  11.012 -0.6999  0.8731 -0.0356
    6SAPS   C12  670   5.805   3.939  10.912  0.4112  0.2140  0.3124
    6SAPS  H12A  671   5.838   4.010  10.838 -0.7794  0.3794 -0.0810
    6SAPS   C13  672   5.916   3.937  11.021  0.2782  0.6693 -0.1434
    6SAPS  O13A  673   5.883   3.960  11.141 -0.0250 -0.5688 -0.7766
    6SAPS  O13B  674   6.026   3.886  10.984  0.2559 -0.7374 -0.5827
    6SAPS   C11  675   5.785   3.795  10.848 -0.0134  0.3614  0.2589
    6SAPS  H11A  676   5.750   3.722  10.925 -0.1768  0.3589  0.1806
    6SAPS  H11B  677   5.886   3.771  10.809  0.9846  2.6104  1.2966
    6SAPS     P  678   5.650   3.691  10.654 -0.4449  0.0808 -0.4035
    6SAPS   O13  679   5.644   3.565  10.735 -0.1701 -0.2360  0.4683
    6SAPS   O14  680   5.528   3.720  10.575 -0.3355  0.0335 -0.3007
    6SAPS   O12  681   5.690   3.820  10.742 -0.0477  0.1487 -0.6382
    6SAPS   O11  682   5.776   3.683  10.558  0.2103  0.1053 -0.3249
    6SAPS    C1  683   5.796   3.793  10.469 -0.4708  0.4376 -1.0148
    6SAPS    HA  684   5.712   3.798  10.396 -1.1603  1.2546 -0.1756
    6SAPS    HB  685   5.791   3.888  10.525  4.3731 -0.9907  2.4842
    6SAPS    C2  686   5.919   3.781  10.381  0.1112 -0.0081  0.7940
    6SAPS    HS  687   5.903   3.833  10.284  3.2900  1.1029  0.7292
    6SAPS   O21  688   5.951   3.645  10.365  0.0185 -0.6759  0.2041
    6SAPS   C21  689   5.878   3.588  10.275  0.5917  0.7469  0.5222
    6SAPS   O22  690   5.792   3.638  10.204  0.0510  0.0225  0.1837
    6SAPS   C22  691   5.889   3.437  10.297 -0.4859  0.2218  0.0695
    6SAPS   H2R  692   5.991   3.415  10.257 -0.6295  1.4940 -1.0355
    6SAPS   H2S  693   5.902   3.418  10.406  1.2709  2.0310  0.2352
    6SAPS    C3  694   6.039   3.837  10.458  0.4234  0.3335 -0.3045
    6SAPS    HX  695   6.044   3.781  10.554 -0.8681 -3.9167 -2.4474
    6SAPS    HY  696   6.022   3.945  10.475 -0.7368  0.3102 -1.1302
    6SAPS   O31  697   6.168   3.809  10.392  0.5954 -0.0395 -0.4755
    6SAPS   C31  698   6.267   3.869  10.446  0.8892  0.1584 -0.2479
    6SAPS   O32  699   6.264   3.933  10.551  0.3005  0.0071  0.2987
    6SAPS   C32  700   6.386   3.839  10.358  0.5181 -0.7289  0.3454
    6SAPS   H2X  701   6.375   3.902  10.266  1.6414 -0.5330  0.3321
    6SAPS   H2Y  702   6.379   3.733  10.326  1.0283 -0.9264  0.8748
    6SAPS   C23  703   5.785   3.354  10.223  0.2282  0.1514  0.6437
    6SAPS   H3R  704   5.821   3.251  10.205 -2.0293 -0.4098 -1.3091
    6SAPS   H3S  705   5.760   3.383  10.118 -1.7806 -2.5539  0.2737
    6SAPS   C24  706   5.658   3.342  10.310  0.5337  0.4204  0.2774
    6SAPS   H4R  707   5.683   3.338  10.419 -2.6989  1.3762  1.1568
    6SAPS   H4S  708   5.611   3.243  10.288 -0.3503  0.8271  0.3010
    6SAPS   C25  709   5.566   3.450  10.290  0.0728  0.2368  0.3600
    6SAPS   H5R  710   5.590   3.545  10.340 -0.1828 -0.8505  2.6881
    6SAPS   C26  711   5.459   3.441  10.217  0.5793  0.3054 -0.1266
    6SAPS   H6R  712   5.404   3.532  10.190  0.8405  0.2253 -0.9392
    6SAPS   C27  713   5.399   3.321  10.146 -0.4069 -0.0341 -0.2217
    6SAPS   H7R  714   5.438   3.222  10.180  1.2932 -0.2025 -2.3707
    6SAPS   H7S  715   5.433   3.323  10.040  0.6429  0.3392  0.1059
    6SAPS   C28  716   5.247   3.326  10.165  0.0097  0.4915  0.0232
    6SAPS   H8R  717   5.220   3.356  10.268  4.5829 -1.3888  2.0299
    6SAPS   C29  718   5.138   3.295  10.088  0.2349 -0.1773 -0.1105
    6SAPS   H9R  719   5.039   3.301  10.136 -0.6201 -3.2579 -1.1898
    6SAPS  C210  720   5.133   3.250   9.942  0.2959 -0.0625 -0.0196
    6SAPS  H10R  721   5.102   3.145   9.928 -0.5798  0.2753 -0.6568
    6SAPS  H10S  722   5.232   3.274   9.897 -0.6401 -0.4578 -2.4270
    6SAPS  C211  723   5.021   3.318   9.870 -0.0379 -0.4423 -0.5409
    6SAPS  H11R  724   4.958   3.382   9.933  0.1479 -2.0514  1.3546
    6SAPS  C212  725   4.986   3.302   9.747  0.5261  0.0041 -0.2475
    6SAPS  H12R  726   4.931   3.384   9.697  0.3612  0.3228  0.4491
    6SAPS  C213  727   5.057   3.216   9.648  0.6843 -0.6447 -1.1203
    6SAPS  H13R  728   5.076   3.117   9.694  0.6113  0.0638  0.4909
    6SAPS  H13S  729   5.156   3.262   9.623  1.3079 -2.5685 -2.3949
    6SAPS  C214  730   4.958   3.192   9.539 -0.6800 -0.4515  0.4846
    6SAPS  H14R  731   4.881   3.117   9.563  0.6745 -1.3794  2.1431
    6SAPS  C215  732   4.964   3.245   9.414 -0.0127  0.3681  0.6315
    6SAPS  H15R  733   4.881   3.222   9.346 -0.0907 -2.1726  1.4879
    6SAPS  C216  734   5.071   3.348   9.369  0.0815  0.6956  0.0703
    6SAPS  H16R  735   5.158   3.359   9.437  1.3853  0.3725 -1.4980
    6SAPS  H16S  736   5.026   3.449   9.381 -0.3124  0.9791 -2.9900
    6SAPS  C217  737   5.125   3.330   9.226 -0.1462  0.1648 -0.8570
    6SAPS  H17R  738   5.206   3.403   9.211  0.6660 -0.6797 -0.6585
    6SAPS  H17S  739   5.047   3.370   9.158 -0.5573  0.1781 -0.3849
    6SAPS  C218  740   5.177   3.190   9.196  0.6468  0.1306  0.2267
    6SAPS  H18R  741   5.094   3.120   9.221 -1.3412  1.8196 -1.1873
    6SAPS  H18S  742   5.265   3.159   9.254 -0.0153 -0.3497  0.9912
    6SAPS  C219  743   5.207   3.157   9.048  0.3562 -0.0478 -0.9259
    6SAPS  H19R  744   5.134   3.213   8.986  0.9152  2.3336  0.4723
    6SAPS  H19S  745   5.180   3.050   9.030 -0.0583  0.0773 -1.0629
    6SAPS  C220  746   5.346   3.185   9.004  0.0756  0.2213 -0.2660
    6SAPS  H20R  747   5.355   3.204   8.895  0.5319 -1.2174 -0.5019
    6SAPS  H20S  748   5.419   3.102   9.015  2.0693  1.7429 -1.1207
    6SAPS  H20T  749   5.384   3.275   9.057 -1.0766  0.8379 -0.4574
    6SAPS   C33  750   6.521   3.871  10.431  0.3837 -0.3524 -0.0478
    6SAPS   H3X  751   6.516   3.837  10.537 -0.0217  1.6043  0.6060
    6SAPS   H3Y  752   6.543   3.980  10.435  0.5039 -0.3990  2.9670
    6SAPS   C34  753   6.640   3.803  10.378  0.0513  0.7249  0.7566
    6SAPS   H4X  754   6.623   3.694  10.359  2.9480  0.5801 -1.9506
    6SAPS   H4Y  755   6.720   3.807  10.455  0.0441  0.1690  0.7997
    6SAPS   C35  756   6.689   3.859  10.243  0.2555  0.0746 -0.3912
    6SAPS   H5X  757   6.799   3.875  10.251  0.0599  0.6704  1.7212
    6SAPS   H5Y  758   6.653   3.964  10.248  0.9093  0.3598 -1.3037
    6SAPS   C36  759   6.652   3.775  10.119 -0.2228 -0.1112  0.4908
    6SAPS   H6X  760   6.545   3.750  10.135 -0.3774  1.2886  1.8256
    6SAPS   H6Y  761   6.714   3.683  10.114  0.1347  0.0204  2.0868
    6SAPS   C37  762   6.674   3.854   9.989 -0.5658  0.3941  0.1653
    6SAPS   H7X  763   6.784   3.865   9.974 -0.7916  0.9153 -1.3587
    6SAPS   H7Y  764   6.646   3.961  10.002 -0.6866  0.4169 -0.2617
    6SAPS   C38  765   6.613   3.788   9.866 -0.2635  0.3291 -0.5588
    6SAPS   H8X  766   6.507   3.771   9.894 -1.5831  1.3477 -4.3676
    6SAPS   H8Y  767   6.648   3.684   9.851 -0.1194  0.0639  1.4573
    6SAPS   C39  768   6.614   3.864   9.730 -0.0061 -0.1667  0.2130
    6SAPS   H9X  769   6.688   3.947   9.721 -0.9508  0.6131 -0.7064
    6SAPS   H9Y  770   6.514   3.912   9.725 -0.1481 -0.5385 -0.5541
    6SAPS  C310  771   6.656   3.772   9.610 -0.1230 -0.2018  0.4323
    6SAPS  H10X  772   6.597   3.679   9.593  0.9317 -0.3943 -3.0199
    6SAPS  H10Y  773   6.759   3.734   9.626 -0.2708 -0.8328 -0.0451
    6SAPS  C311  774   6.639   3.849   9.479 -0.1019  0.3605  0.3836
    6SAPS  H11X  775   6.686   3.949   9.478  0.7550 -0.0329 -1.1703
    6SAPS  H11Y  776   6.531   3.870   9.462  0.3762  1.2571 -1.9356
    6SAPS  C312  777   6.690   3.778   9.360 -0.8261  0.4590  0.4844
    6SAPS  H12X  778   6.644   3.678   9.347 -0.4651 -0.1281  3.2327
    6SAPS  H12Y  779   6.799   3.760   9.371 -0.9867 -1.5827 -0.7677
    6SAPS  C313  780   6.657   3.862   9.237 -0.4861  0.3984 -0.6792
    6SAPS  H13X  781   6.688   3.965   9.263 -1.2286 -0.2080  3.2405
    6SAPS  H13Y  782   6.546   3.858   9.227 -0.5712  0.8801  0.0216
    6SAPS  C314  783   6.717   3.808   9.107 -0.1829 -0.0813 -0.1889
    6SAPS  H14X  784   6.652   3.725   9.069  0.6433 -0.9919  0.3336
    6SAPS  H14Y  785   6.814   3.755   9.118  0.2610  0.5963 -0.8163
    6SAPS  C315  786   6.729   3.904   8.991  0.4774 -0.4644  0.6299
    6SAPS  H15X  787   6.797   3.990   9.010 -0.5522  1.5303 -3.5428
    6SAPS  H15Y  788   6.626   3.936   8.963  0.6094 -0.5991 -0.0101
    6SAPS  C316  789   6.793   3.839   8.870  0.8150 -0.3658  0.5000
    6SAPS  H16X  790   6.725   3.760   8.833 -3.6644  3.4198 -0.3492
    6SAPS  H16Y  791   6.899   3.810   8.888  1.0939  0.5323  0.3853
    6SAPS  C317  792   6.814   3.934   8.746 -0.5891  0.1733 -0.7446
    6SAPS  H17X  793   6.890   4.009   8.777 -0.8658 -0.1562  0.7925
    6SAPS  H17Y  794   6.724   3.999   8.742  0.2344  1.5169  0.9496
    6SAPS  C318  795   6.845   3.868   8.615  0.0432  0.3652  0.1333
    6SAPS  H18X  796   6.838   3.936   8.527  0.9413  2.2969  1.4764
    6SAPS  H18Y  797   6.776   3.782   8.597  1.6680 -0.6016 -1.8549
    6SAPS  H18Z  798   6.944   3.819   8.610 -0.4711 -0.7519  0.4441
    7SAPS     N  799   4.860   4.262  10.577 -0.1949  0.3699 -0.5334
    7SAPS   HN1  800   4.811   4.333  10.517  0.5062  1.4099  0.0983
    7SAPS   HN2  801   4.932   4.318  10.626  3.2510 -0.1852 -4.4260
    7SAPS   HN3  802   4.898   4.186  10.517  3.0258  0.8192  0.7422
    7SAPS   C12  803   4.762   4.209  10.680  0.0671  0.4323  0.0789
    7SAPS  H12A  804   4.692   4.135  10.644  0.3167 -0.4835  1.4136
    7SAPS   C13  805   4.835   4.142  10.800  0.6746  0.2815  0.3911
    7SAPS  O13A  806   4.959   4.112  10.796  0.3883  0.3568  0.0719
    7SAPS  O13B  807   4.760   4.097  10.887  0.3083 -0.1023 -0.1557
    7SAPS   C11  808   4.681   4.327  10.725 -0.2482 -0.4094  0.8617
    7SAPS  H11A  809   4.746   4.406  10.769 -0.7718  0.2045  0.5446
    7SAPS  H11B  810   4.621   4.305  10.815 -1.3647  0.5019  0.3584
    7SAPS     P  811   4.484   4.482  10.638 -0.3032 -0.2328  0.2809
    7SAPS   O13  812   4.360   4.430  10.577 -0.2497  0.1132 -0.5185
    7SAPS   O14  813   4.485   4.514  10.784 -0.1733  0.3511 -0.0831
    7SAPS   O12  814   4.599   4.375  10.619  0.3864  0.2190  0.4358
    7SAPS   O11  815   4.543   4.605  10.557  0.4555  0.0202 -0.1532
    7SAPS    C1  816   4.645   4.589  10.463  0.0546  0.8621 -0.0294
    7SAPS    HA  817   4.725   4.663  10.486  0.2732  0.2956  1.0627
    7SAPS    HB  818   4.695   4.490  10.463 -0.1960  0.6898 -1.9321
    7SAPS    C2  819   4.602   4.601  10.310  0.1335  0.2583  1.2334
    7SAPS    HS  820   4.558   4.702  10.295 -0.7624 -0.2851  0.0307
    7SAPS   O21  821   4.525   4.490  10.279 -0.1477  0.7482  0.8297
    7SAPS   C21  822   4.405   4.504  10.236 -0.3987 -0.0826  0.4639
    7SAPS   O22  823   4.339   4.606  10.236  0.3267  0.0559 -0.0289
    7SAPS   C22  824   4.347   4.368  10.193 -0.4737 -0.4152  0.0198
    7SAPS   H2R  825   4.422   4.327  10.122  0.3489  2.1572 -0.7138
    7SAPS   H2S  826   4.335   4.308  10.285  2.4650  1.5469  1.8855
    7SAPS    C3  827   4.716   4.615  10.203  0.1334 -0.6968  0.2961
    7SAPS    HX  828   4.784   4.528  10.217  1.0457  0.1069  0.9235
    7SAPS    HY  829   4.772   4.708  10.222 -0.1876 -0.2613 -0.7997
    7SAPS   O31  830   4.674   4.622  10.069  0.3529 -0.6623 -0.3966
    7SAPS   C31  831   4.645   4.503  10.009  0.0589  0.3470 -0.3361
    7SAPS   O32  832   4.662   4.389  10.053 -0.1638  0.1271  0.0311
    7SAPS   C32  833   4.587   4.535   9.877 -0.3972 -0.4816  0.6634
    7SAPS   H2X  834   4.659   4.597   9.819 -1.7403  1.1360  0.6462
    7SAPS   H2Y  835   4.497   4.600   9.888 -0.2824 -0.4830  1.7572
    7SAPS   C23  836   4.213   4.384  10.122  0.3443 -0.2147 -0.5778
    7SAPS   H3R  837   4.150   4.458  10.177  1.2056 -0.3130  0.5516
    7SAPS   H3S  838   4.159   4.287  10.119 -1.4001  0.6801  0.1850
    7SAPS   C24  839   4.221   4.439   9.979 -0.0092 -0.7939 -0.7485
    7SAPS   H4R  840   4.281   4.370   9.916  0.9681  1.1709 -2.0558
    7SAPS   H4S  841   4.275   4.536   9.980 -2.8734  0.9007 -0.7673
    7SAPS   C25  842   4.087   4.452   9.905  0.0344 -0.6864  0.6633
    7SAPS   H5R  843   4.017   4.526   9.947  0.4634  0.9452 -1.3487
    7SAPS   C26  844   4.043   4.384   9.800 -0.0787 -0.0548  0.8645
    7SAPS   H6R  845   3.943   4.414   9.764  1.0434  2.3259 -0.4545
    7SAPS   C27  846   4.100   4.275   9.716 -0.0171  0.5465 -0.2281
    7SAPS   H7R  847   4.036   4.186   9.733  1.7891 -0.5672  1.1410
    7SAPS   H7S  848   4.201   4.245   9.752  0.5553  0.9717 -1.4342
    7SAPS   C28  849   4.122   4.327   9.569 -0.4920  0.4319 -0.5737
    7SAPS   H8R  850   4.226   4.355   9.547 -0.8625  1.9524 -0.4903
    7SAPS   C29  851   4.036   4.353   9.469 -0.5124 -0.0275 -0.5941
    7SAPS   H9R  852   4.069   4.409   9.380 -0.5574 -2.0356 -1.9480
    7SAPS  C210  853   3.887   4.333   9.481 -0.0656  0.5393 -0.0874
    7SAPS  H10R  854   3.864   4.296   9.583  1.2077  0.9433  0.3666
    7SAPS  H10S  855   3.854   4.250   9.415  0.2867 -0.0247  0.4355
    7SAPS  C211  856   3.800   4.453   9.453  0.4158 -0.7910  0.1230
    7SAPS  H11R  857   3.858   4.546   9.464 -2.3756  0.9991  0.6809
    7SAPS  C212  858   3.678   4.453   9.411  0.0585  1.2169  0.8495
    7SAPS  H12R  859   3.628   4.546   9.379  0.2660  0.8973 -0.4426
    7SAPS  C213  860   3.590   4.332   9.376  0.4073 -0.3051  0.1323
    7SAPS  H13R  861   3.647   4.238   9.387  2.5326  0.6893 -1.5472
    7SAPS  H13S  862   3.584   4.339   9.265  0.9234  0.6917  0.1522
    7SAPS  C214  863   3.455   4.324   9.446 -0.0442  0.1201  0.1338
    7SAPS  H14R  864   3.367   4.337   9.382 -0.4896  0.6025  0.8373
    7SAPS  C215  865   3.436   4.283   9.571  0.0652  0.2418 -1.0030
    7SAPS  H15R  866   3.335   4.283   9.615  0.8493  0.0225  0.9265
    7SAPS  C216  867   3.546   4.246   9.668  0.8117 -0.5185  0.7246
    7SAPS  H16R  868   3.646   4.279   9.633  0.3409 -1.9879 -2.3459
    7SAPS  H16S  869   3.543   4.135   9.656 -2.7407 -0.4152 -0.5903
    7SAPS  C217  870   3.517   4.287   9.816 -0.2631  0.7185  0.3122
    7SAPS  H17R  871   3.413   4.269   9.849 -0.2045 -0.1047  0.0676
    7SAPS  H17S  872   3.525   4.397   9.809  0.1909  0.6934  0.4115
    7SAPS  C218  873   3.612   4.207   9.912  0.3462 -0.3369 -1.4048
    7SAPS  H18R  874   3.719   4.199   9.883  0.1037  1.4678 -2.9525
    7SAPS  H18S  875   3.576   4.102   9.916 -0.2538 -0.1131 -0.6311
    7SAPS  C219  876   3.595   4.263  10.058 -0.0849  0.3222 -0.0147
    7SAPS  H19R  877   3.491   4.242  10.091 -0.9355  2.5442 -1.1111
    7SAPS  H19S  878   3.605   4.373  10.048 -0.7741  0.4372  0.4827
    7SAPS  C220  879   3.699   4.205  10.154  0.2772 -0.9298  0.1453
    7SAPS  H20R  880   3.709   4.261  10.249  3.0690  0.3049 -0.7756
    7SAPS  H20S  881   3.795   4.202  10.098 -0.1784 -4.1640 -0.6538
    7SAPS  H20T  882   3.671   4.100  10.177  0.5837 -0.4942  2.7417
    7SAPS   C33  883   4.562   4.411   9.786 -0.6473  0.6060 -0.3616
    7SAPS   H3X  884   4.520   4.328   9.847 -0.7412  0.0251 -1.1997
    7SAPS   H3Y  885   4.664   4.369   9.767 -1.4995 -2.0338  0.3813
    7SAPS   C34  886   4.482   4.435   9.657 -1.1795 -0.5186  0.6524
    7SAPS   H4X  887   4.380   4.476   9.670 -1.0864 -0.2845  0.6467
    7SAPS   H4Y  888   4.480   4.339   9.602 -1.8091 -0.1138 -0.0503
    7SAPS   C35  889   4.564   4.536   9.568 -0.3774 -0.0496  0.0860
    7SAPS   H5X  890   4.670   4.503   9.563 -0.3243 -1.4361  5.0724
    7SAPS   H5Y  891   4.556   4.632   9.624 -1.9780  1.0354 -1.8736
    7SAPS   C36  892   4.498   4.544   9.433 -0.4139 -0.3837 -0.6042
    7SAPS   H6X  893   4.484   4.653   9.417 -2.9351 -0.8901 -2.4663
    7SAPS   H6Y  894   4.395   4.504   9.425 -0.7070  0.6467 -2.4244
    7SAPS   C37  895   4.575   4.489   9.315 -0.6025  0.2638  0.5242
    7SAPS   H7X  896   4.541   4.384   9.308 -3.8935  1.2995 -0.9565
    7SAPS   H7Y  897   4.681   4.482   9.349 -1.0279 -1.5558  1.6147
    7SAPS   C38  898   4.557   4.539   9.175  0.0977  0.1547  0.1403
    7SAPS   H8X  899   4.631   4.482   9.116 -0.7384 -0.6464 -0.1484
    7SAPS   H8Y  900   4.583   4.647   9.163 -1.3200  0.5765  0.6469
    7SAPS   C39  901   4.413   4.534   9.133  0.5031  0.0443  0.4187
    7SAPS   H9X  902   4.368   4.631   9.162  1.6281  0.9589 -0.7613
    7SAPS   H9Y  903   4.355   4.445   9.165 -1.5001  0.5115 -1.6195
    7SAPS  C310  904   4.382   4.521   8.973  0.2495 -0.1321  0.4573
    7SAPS  H10X  905   4.275   4.506   8.949  0.7118 -0.5112 -1.5683
    7SAPS  H10Y  906   4.433   4.434   8.926 -1.3928 -0.6863 -0.3383
    7SAPS  C311  907   4.424   4.650   8.900 -0.4173 -0.1032 -0.0484
    7SAPS  H11X  908   4.525   4.688   8.930 -0.9866  0.0820  1.7636
    7SAPS  H11Y  909   4.372   4.736   8.947  2.2080  1.4411  0.2787
    7SAPS  C312  910   4.404   4.643   8.742 -1.0384 -0.2181 -0.0844
    7SAPS  H12X  911   4.299   4.609   8.732 -0.7500 -1.0968 -0.2082
    7SAPS  H12Y  912   4.471   4.572   8.689 -2.2415 -1.3681 -0.1279
    7SAPS  C313  913   4.425   4.778   8.665  0.0862 -0.0430 -0.2487
    7SAPS  H13X  914   4.528   4.804   8.697 -0.2529  0.3970  0.5071
    7SAPS  H13Y  915   4.354   4.852   8.707 -0.3668 -0.3435 -0.4758
    7SAPS  C314  916   4.417   4.769   8.512  0.4237 -0.0107  0.4425
    7SAPS  H14X  917   4.494   4.694   8.485 -1.4712 -2.1181  0.5420
    7SAPS  H14Y  918   4.446   4.862   8.458 -1.9912 -0.9624 -2.8679
    7SAPS  C315  919   4.287   4.712   8.441 -0.1835  0.2372  0.0033
    7SAPS  H15X  920   4.240   4.624   8.490  0.2759  0.1418  0.2823
    7SAPS  H15Y  921   4.314   4.672   8.341 -0.6737 -0.9851  0.3385
    7SAPS  C316  922   4.184   4.824   8.423 -0.2608  0.2124  0.3561
    7SAPS  H16X  923   4.228   4.916   8.378  3.6646 -1.5952  0.0430
    7SAPS  H16Y  924   4.155   4.857   8.525 -0.0289  1.7796 -0.0482
    7SAPS  C317  925   4.061   4.785   8.338 -0.0419  0.0950 -0.1280
    7SAPS  H17X  926   3.986   4.853   8.383  0.6015  0.0992  0.9550
    7SAPS  H17Y  927   4.036   4.679   8.361 -0.2894  0.1450 -0.1728
    7SAPS  C318  928   4.070   4.790   8.192  0.4180 -0.0079  0.0119
    7SAPS  H18X  929   4.127   4.883   8.168  0.8267 -0.5932 -1.4458
    7SAPS  H18Y  930   3.972   4.785   8.140  0.8699  0.1893 -0.8765
    7SAPS  H18Z  931   4.131   4.706   8.153  1.3119  0.9697 -0.7644
    8SAPS     N  932   6.661   2.104  11.229  0.0805 -0.4514 -0.4212
    8SAPS   HN1  933   6.585   2.075  11.294 -1.5094  1.3240 -1.3746
    8SAPS   HN2  934   6.749   2.052  11.247 -0.5007 -2.0667 -1.9840
    8SAPS   HN3  935   6.669   2.205  11.252 -0.7853  0.1017 -2.3418
    8SAPS   C12  936   6.614   2.090  11.086  0.2983  0.3035 -0.8030
    8SAPS  H12A  937   6.611   1.985  11.062 -1.1045  0.1818 -0.1671
    8SAPS   C13  938   6.479   2.172  11.062 -0.4391 -0.0224  0.1641
    8SAPS  O13A  939   6.421   2.221  11.164 -0.2559  0.4680 -0.5138
    8SAPS  O13B  940   6.412   2.145  10.955 -0.4803  0.3425 -0.1509
    8SAPS   C11  941   6.723   2.175  11.003 -0.3842  0.1291 -0.3571
    8SAPS  H11A  942   6.704   2.144  10.898  0.7187 -0.5106 -0.3857
    8SAPS  H11B  943   6.822   2.130  11.028  0.1914  0.5145 -1.8431
    8SAPS     P  944   6.839   2.408  10.991  0.0519  0.3715 -0.1201
    8SAPS   O13  945   6.807   2.552  11.013 -0.4169  0.4212 -0.2348
    8SAPS   O14  946   6.948   2.353  11.068  0.0227 -0.0918 -0.3624
    8SAPS   O12  947   6.708   2.321  11.028 -0.2666  0.6685  0.1814
    8SAPS   O11  948   6.875   2.379  10.841  0.0024  0.1300 -0.0878
    8SAPS    C1  949   6.809   2.436  10.727 -0.5287 -0.7581  0.5436
    8SAPS    HA  950   6.710   2.475  10.759  0.7109  1.9633  1.3244
    8SAPS    HB  951   6.871   2.520  10.688  1.0792 -0.8604  2.7052
    8SAPS    C2  952   6.792   2.353  10.608  0.1207  0.7770  0.0638
    8SAPS    HS  953   6.733   2.264  10.637 -2.4247  1.4124 -2.6518
    8SAPS   O21  954   6.922   2.327  10.560  0.0696 -0.2400  0.2297
    8SAPS   C21  955   6.926   2.210  10.497 -0.2443 -1.0774  0.4133
    8SAPS   O22  956   6.836   2.130  10.489 -0.2167 -1.1399 -0.2207
    8SAPS   C22  957   7.056   2.194  10.424 -0.2433  0.0808  0.2812
    8SAPS   H2R  958   7.133   2.256  10.474 -0.6060  1.5163 -0.8798
    8SAPS   H2S  959   7.081   2.086  10.432 -0.9945 -0.1291 -0.1396
    8SAPS    C3  960   6.704   2.425  10.496 -0.3620  0.2055 -0.7597
    8SAPS    HX  961   6.781   2.501  10.474  2.7948 -2.0085  1.7005
    8SAPS    HY  962   6.615   2.475  10.539  1.1162  1.3484  1.1132
    8SAPS   O31  963   6.664   2.351  10.376 -0.0402 -0.1734  0.0481
    8SAPS   C31  964   6.559   2.275  10.385 -0.0759  0.7984 -1.0159
    8SAPS   O32  965   6.485   2.266  10.487  0.4706 -0.3685  0.4646
    8SAPS   C32  966   6.557   2.176  10.269 -0.4349 -0.4583  0.0646
    8SAPS   H2X  967   6.541   2.075  10.311  1.0838 -0.3185  1.0594
    8SAPS   H2Y  968   6.657   2.176  10.220 -0.8052 -2.4640 -0.7610
    8SAPS   C23  969   7.033   2.227  10.275  0.2022 -0.4326 -0.0389
    8SAPS   H3R  970   6.943   2.170  10.243 -1.0332 -0.1021  2.5709
    8SAPS   H3S  971   7.113   2.176  10.218 -1.1597 -1.9328 -0.6594
    8SAPS   C24  972   7.027   2.382  10.248 -0.0139 -0.2042  0.4518
    8SAPS   H4R  973   7.108   2.437  10.301  0.6251 -1.6595  1.0261
    8SAPS   H4S  974   6.929   2.421  10.285  0.5584  0.3535  1.4493
    8SAPS   C25  975   7.037   2.402  10.100 -0.3617  0.5323 -0.1738
    8SAPS   H5R  976   7.143   2.419  10.075 -0.2823  0.7072  0.2561
    8SAPS   C26  977   6.942   2.391  10.002  0.5188  0.2844  0.3149
    8SAPS   H6R  978   6.970   2.420   9.900  0.2336  0.9254  0.4117
    8SAPS   C27  979   6.804   2.356  10.016  0.5066 -0.4610  0.4148
    8SAPS   H7R  980   6.732   2.427   9.971  1.8592  0.1445 -0.8757
    8SAPS   H7S  981   6.770   2.353  10.121 -0.3713 -0.3315  0.1383
    8SAPS   C28  982   6.773   2.227   9.941 -0.0880 -0.1162 -0.4972
    8SAPS   H8R  983   6.788   2.135   9.999 -0.9022 -2.4574 -3.6850
    8SAPS   C29  984   6.744   2.210   9.812  0.5604  0.2028  0.0783
    8SAPS   H9R  985   6.720   2.110   9.773 -1.1560  1.3151 -1.9147
    8SAPS  C210  986   6.739   2.322   9.712  0.4594 -0.6770 -0.2730
    8SAPS  H10R  987   6.833   2.324   9.652 -0.0219 -1.4919 -1.0857
    8SAPS  H10S  988   6.730   2.424   9.755  0.5534 -0.8166  0.0854
    8SAPS  C211  989   6.631   2.297   9.610  0.3652 -0.2189 -0.7119
    8SAPS  H11R  990   6.662   2.224   9.534 -1.4543 -2.0034  0.1821
    8SAPS  C212  991   6.520   2.368   9.591  0.6833 -0.1313  0.1804
    8SAPS  H12R  992   6.459   2.330   9.508  1.0267 -1.8311  0.6764
    8SAPS  C213  993   6.474   2.484   9.669  0.6737 -0.3971 -0.1722
    8SAPS  H13R  994   6.488   2.570   9.601  0.9828 -1.0361 -0.9321
    8SAPS  H13S  995   6.541   2.500   9.756  0.6218  0.6726 -0.3197
    8SAPS  C214  996   6.330   2.466   9.726 -0.0943  0.9336 -0.4883
    8SAPS  H14R  997   6.296   2.361   9.716  2.0399 -0.0358  1.4193
    8SAPS  C215  998   6.263   2.561   9.791 -0.1488  0.3728 -0.0521
    8SAPS  H15R  999   6.170   2.540   9.845  0.1586 -0.3898  0.1971
    8SAPS  C216 1000   6.326   2.693   9.823  0.3014  0.3292 -0.0692
    8SAPS  H16R 1001   6.248   2.770   9.839  0.9026  0.7219  1.0749
    8SAPS  H16S 1002   6.394   2.730   9.744 -2.3827  0.7981 -2.3105
    8SAPS  C217 1003   6.422   2.701   9.941 -0.4176  0.5319 -0.6750
    8SAPS  H17R 1004   6.455   2.807   9.945  3.3901 -0.4610 -1.0428
    8SAPS  H17S 1005   6.514   2.640   9.928 -1.1043 -0.9086  0.9063
    8SAPS  C218 1006   6.360   2.660  10.077 -0.3632 -0.1779  0.8169
    8SAPS  H18R 1007   6.283   2.585  10.049 -1.6226  2.5909 -4.3744
    8SAPS  H18S 1008   6.308   2.743  10.130  0.8143 -0.8934  3.2379
    8SAPS  C219 1009   6.462   2.609  10.177  0.0315 -0.1345  0.9932
    8SAPS  H19R 1010   6.546   2.681  10.184  0.8605 -0.9835  0.1531
    8SAPS  H19S 1011   6.498   2.516  10.127  0.4526 -0.7469  2.3919
    8SAPS  C220 1012   6.397   2.582  10.312  0.2013 -0.1930 -0.1940
    8SAPS  H20R 1013   6.344   2.665  10.365  1.5583 -1.0081  2.6351
    8SAPS  H20S 1014   6.462   2.537  10.390 -0.5749  1.1075  1.2622
    8SAPS  H20T 1015   6.325   2.497  10.302 -1.8433  1.2952  0.9528
    8SAPS   C33 1016   6.454   2.204  10.157  0.4244 -0.7083 -0.3200
    8SAPS   H3X 1017   6.466   2.135  10.071  0.3031  0.2744 -1.1523
    8SAPS   H3Y 1018   6.464   2.306  10.114 -0.5645 -0.7716 -0.7367
    8SAPS   C34 1019   6.314   2.195  10.218 -0.2763  0.0695 -0.3147
    8SAPS   H4X 1020   6.294   2.287  10.276  0.7389  0.1163 -0.0261
    8SAPS   H4Y 1021   6.325   2.104  10.281  1.2220 -0.5434 -1.4048
    8SAPS   C35 1022   6.199   2.177  10.119  0.7104 -0.4185  0.1299
    8SAPS   H5X 1023   6.222   2.255  10.042 -0.3426  1.1951  1.3886
    8SAPS   H5Y 1024   6.103   2.188  10.172  1.1351 -1.3744  1.1266
    8SAPS   C36 1025   6.195   2.043  10.042 -0.2871  0.5648 -0.4886
    8SAPS   H6X 1026   6.178   1.962  10.117 -1.3764  1.3175  0.1060
    8SAPS   H6Y 1027   6.292   2.022   9.993  1.6175 -3.8252  4.2431
    8SAPS   C37 1028   6.093   2.021   9.934  0.4925 -0.4536  0.2317
    8SAPS   H7X 1029   5.998   2.001   9.989 -0.2151 -0.3032 -0.8970
    8SAPS   H7Y 1030   6.111   1.926   9.878 -0.6991 -0.3461 -0.3752
    8SAPS   C38 1031   6.080   2.146   9.847  0.4134  0.3158 -0.2473
    8SAPS   H8X 1032   6.182   2.181   9.822  1.4195 -1.4125  1.1682
    8SAPS   H8Y 1033   6.025   2.232   9.890 -0.7513  0.3402 -1.7194
    8SAPS   C39 1034   5.992   2.118   9.724  0.4750 -0.0519 -0.0744
    8SAPS   H9X 1035   5.899   2.069   9.763 -0.1852  0.8888 -0.4518
    8SAPS   H9Y 1036   6.038   2.042   9.658 -0.2455 -0.4193 -0.1645
    8SAPS  C310 1037   5.955   2.245   9.643  0.0136  0.4175 -0.1022
    8SAPS  H10X 1038   5.954   2.334   9.709  0.3733 -0.1941  0.7350
    8SAPS  H10Y 1039   5.855   2.230   9.596 -0.5381  0.9180  0.8952
    8SAPS  C311 1040   6.060   2.276   9.535  0.4294  0.0458  0.4482
    8SAPS  H11X 1041   6.163   2.242   9.557  0.2481  0.9401  3.0151
    8SAPS  H11Y 1042   6.067   2.387   9.532 -0.4044  0.1625  1.8354
    8SAPS  C312 1043   6.043   2.219   9.389  0.6772  0.9657  0.3761
    8SAPS  H12X 1044   5.936   2.239   9.368  0.2579 -1.0217  0.3552
    8SAPS  H12Y 1045   6.050   2.109   9.403  0.2757  0.9777  0.6648
    8SAPS  C313 1046   6.150   2.260   9.286  0.2109 -0.2138 -0.4851
    8SAPS  H13X 1047   6.245   2.262   9.344 -0.4676  2.8474  0.6993
    8SAPS  H13Y 1048   6.146   2.365   9.251 -0.5752 -0.5848 -1.5387
    8SAPS  C314 1049   6.152   2.169   9.166  0.1763 -0.3117  0.2018
    8SAPS  H14X 1050   6.050   2.160   9.121  0.3596 -1.0151 -0.0771
    8SAPS  H14Y 1051   6.194   2.074   9.203  1.3120  0.7960  1.9177
    8SAPS  C315 1052   6.250   2.194   9.049  0.4934  0.6729  0.6930
    8SAPS  H15X 1053   6.349   2.197   9.100  0.6401  2.8124  0.3661
    8SAPS  H15Y 1054   6.223   2.293   9.006 -1.2917 -1.6217 -4.2005
    8SAPS  C316 1055   6.251   2.085   8.939 -0.5714 -0.9223  0.3725
    8SAPS  H16X 1056   6.145   2.069   8.909 -1.3334  1.4075  1.5652
    8SAPS  H16Y 1057   6.295   1.990   8.976 -0.0052 -1.0592 -0.5993
    8SAPS  C317 1058   6.329   2.132   8.812  0.3346 -0.3644  0.2268
    8SAPS  H17X 1059   6.437   2.147   8.832  1.1076 -0.8590 -2.9695
    8SAPS  H17Y 1060   6.295   2.229   8.768  3.1493  0.4538 -0.3436
    8SAPS  C318 1061   6.329   2.030   8.698 -0.3401 -0.2587 -0.9280
    8SAPS  H18X 1062   6.390   1.941   8.724  1.6300  2.0092  3.2235
    8SAPS  H18Y 1063   6.383   2.066   8.609  1.8871 -0.5752  0.2180
    8SAPS  H18Z 1064   6.229   1.994   8.665 -0.1506 -0.1752 -1.5934
    9SAPS     N 1065   1.362   1.960   6.404 -0.4060 -0.7806 -0.6262
    9SAPS   HN1 1066   1.298   2.042   6.415  0.8047 -0.0457  1.8313
    9SAPS   HN2 1067   1.346   1.899   6.486  1.0380  1.1025  1.1720
    9SAPS   HN3 1068   1.453   2.008   6.421 -1.0448 -0.4077  2.3209
    9SAPS   C12 1069   1.359   1.888   6.273 -0.5614 -0.3943  0.2135
    9SAPS  H12A 1070   1.258   1.895   6.236  0.2818 -1.4719 -2.5688
    9SAPS   C13 1071   1.451   1.936   6.148  0.1587  0.4059  0.0064
    9SAPS  O13A 1072   1.522   2.039   6.166 -0.3695  0.4111  0.8790
    9SAPS  O13B 1073   1.420   1.893   6.034 -0.2573 -0.1599  0.2353
    9SAPS   C11 1074   1.396   1.751   6.303 -0.1997  0.5661 -0.1942
    9SAPS  H11A 1075   1.494   1.742   6.355  0.1762 -1.7470 -1.1751
    9SAPS  H11B 1076   1.408   1.698   6.207  1.9580  0.3298  0.1564
    9SAPS     P 1077   1.177   1.598   6.340  0.1668 -0.0980  0.2693
    9SAPS   O13 1078   1.111   1.646   6.216 -0.4949 -0.0350 -0.1605
    9SAPS   O14 1079   1.230   1.460   6.328  0.1648 -0.1771 -0.4525
    9SAPS   O12 1080   1.302   1.689   6.386 -0.2147 -0.2166 -0.8529
    9SAPS   O11 1081   1.077   1.601   6.457  0.3280  0.1607 -0.1312
    9SAPS    C1 1082   1.055   1.715   6.544 -0.3918 -0.0750  0.3017
    9SAPS    HA 1083   1.114   1.807   6.523  0.7530 -0.1432  2.9081
    9SAPS    HB 1084   0.952   1.752   6.528 -0.6168 -0.7999  0.0281
    9SAPS    C2 1085   1.091   1.680   6.692  0.1908  0.4711 -0.1512
    9SAPS    HS 1086   1.065   1.766   6.759 -1.4262  0.2135 -0.4134
    9SAPS   O21 1087   1.225   1.632   6.703 -0.0636 -0.2939 -0.0460
    9SAPS   C21 1088   1.319   1.723   6.683  1.1456  0.3486  0.3515
    9SAPS   O22 1089   1.299   1.835   6.647  0.4555 -0.2964 -0.1146
    9SAPS   C22 1090   1.454   1.663   6.722 -0.2577  0.0716  0.0438
    9SAPS   H2R 1091   1.444   1.552   6.718  1.4874 -0.0838 -0.8980
    9SAPS   H2S 1092   1.532   1.696   6.650 -0.5063  1.7303  0.4826
    9SAPS    C3 1093   0.989   1.567   6.730 -0.0763  0.3857  0.5933
    9SAPS    HX 1094   1.029   1.486   6.664  0.5504  3.1285 -2.6937
    9SAPS    HY 1095   0.888   1.600   6.697 -0.9066 -0.6985  1.9534
    9SAPS   O31 1096   0.993   1.555   6.874  0.5529 -0.2390  0.0280
    9SAPS   C31 1097   0.954   1.433   6.913 -0.3693 -0.4751  0.3077
    9SAPS   O32 1098   0.913   1.345   6.839 -0.0705 -0.3102 -0.0863
    9SAPS   C32 1099   0.963   1.434   7.067  0.1896 -0.1864  0.1451
    9SAPS   H2X 1100   0.882   1.498   7.108 -0.4193 -1.3995  0.8836
    9SAPS   H2Y 1101   1.062   1.476   7.097  0.4705  1.1419 -2.3958
    9SAPS   C23 1102   1.499   1.712   6.860  0.3399 -0.5668  0.6167
    9SAPS   H3R 1103   1.521   1.821   6.856 -0.4898 -0.2891  2.4718
    9SAPS   H3S 1104   1.583   1.649   6.896 -1.1998 -2.8794  0.3873
    9SAPS   C24 1105   1.401   1.695   6.983  0.1442 -0.2211 -0.3515
    9SAPS   H4R 1106   1.329   1.777   6.966  1.7226  1.6502  1.3370
    9SAPS   H4S 1107   1.458   1.716   7.076 -0.3366  0.2561 -0.1629
    9SAPS   C25 1108   1.338   1.558   6.980 -0.1654  0.5775 -0.3413
    9SAPS   H5R 1109   1.269   1.528   6.899 -0.5407 -1.0985  0.5537
    9SAPS   C26 1110   1.353   1.468   7.082 -0.9033  0.4131  0.2002
    9SAPS   H6R 1111   1.304   1.370   7.075  1.3254 -0.9206  1.8351
    9SAPS   C27 1112   1.460   1.466   7.193  0.2756 -0.2193 -0.2775
    9SAPS   H7R 1113   1.516   1.563   7.193 -2.4126  1.4437  0.4799
    9SAPS   H7S 1114   1.537   1.388   7.176 -1.4600 -1.5627 -2.4885
    9SAPS   C28 1115   1.411   1.460   7.334 -0.5893 -0.3046 -0.0017
    9SAPS   H8R 1116   1.434   1.548   7.397 -1.3577 -1.2310  1.6560
    9SAPS   C29 1117   1.365   1.344   7.389  0.1505 -0.3183  0.4138
    9SAPS   H9R 1118   1.321   1.357   7.489 -1.3841  2.7753 -0.5416
    9SAPS  C210 1119   1.339   1.206   7.326 -0.2302  1.0003 -0.4970
    9SAPS  H10R 1120   1.293   1.215   7.226 -2.4828  2.7199  0.5879
    9SAPS  H10S 1121   1.265   1.150   7.387  0.8412 -0.5061 -0.5023
    9SAPS  C211 1122   1.478   1.133   7.326 -0.2912 -0.1151 -0.4391
    9SAPS  H11R 1123   1.525   1.126   7.226  0.8927 -0.8923  0.1481
    9SAPS  C212 1124   1.547   1.080   7.425 -0.0684 -0.1318 -0.1484
    9SAPS  H12R 1125   1.643   1.032   7.400  1.0927  1.1307  1.7079
    9SAPS  C213 1126   1.510   1.076   7.573 -0.2197  0.5764 -0.7910
    9SAPS  H13R 1127   1.405   1.113   7.581 -0.0814  1.0650 -1.1983
    9SAPS  H13S 1128   1.556   1.162   7.625 -2.6822  0.1688  2.3615
    9SAPS  C214 1129   1.515   0.950   7.655 -0.5603 -0.2418  0.3340
    9SAPS  H14R 1130   1.529   0.857   7.597  3.2939  0.0168  0.6063
    9SAPS  C215 1131   1.543   0.948   7.784 -0.6054 -0.4032 -0.7551
    9SAPS  H15R 1132   1.562   0.851   7.833 -1.9873 -1.2923 -1.9214
    9SAPS  C216 1133   1.566   1.066   7.881  0.3557  0.1920 -0.5051
    9SAPS  H16R 1134   1.524   1.166   7.860 -0.8831 -0.3202 -0.5508
    9SAPS  H16S 1135   1.674   1.089   7.890  0.3131 -0.0377  0.7907
    9SAPS  C217 1136   1.504   1.040   8.018 -0.2962  0.1177  0.0521
    9SAPS  H17R 1137   1.394   1.047   8.013 -0.2209  0.6696 -3.9807
    9SAPS  H17S 1138   1.532   1.140   8.057 -1.1090  0.3963 -0.0652
    9SAPS  C218 1139   1.574   0.924   8.100 -0.3255 -0.2852  0.2376
    9SAPS  H18R 1140   1.683   0.906   8.085 -0.6838 -2.8832  0.3600
    9SAPS  H18S 1141   1.535   0.827   8.066  0.6236 -0.8911  0.8286
    9SAPS  C219 1142   1.550   0.939   8.248  1.4506 -1.3844 -0.4412
    9SAPS  H19R 1143   1.575   0.845   8.303  1.1379 -1.3873 -0.3039
    9SAPS  H19S 1144   1.442   0.955   8.267  2.1797  5.4599  0.3377
    9SAPS  C220 1145   1.624   1.055   8.302  0.5941  0.0887 -0.5831
    9SAPS  H20R 1146   1.657   1.040   8.407 -0.1204 -2.0429 -0.6203
    9SAPS  H20S 1147   1.573   1.154   8.301  1.3689  0.6583  3.0875
    9SAPS  H20T 1148   1.725   1.060   8.255  2.1092 -2.4259  2.0959
    9SAPS   C33 1149   0.961   1.295   7.131  0.2518 -0.6302 -0.0758
    9SAPS   H3X 1150   1.052   1.239   7.100 -0.0698 -1.9904  1.2740
    9SAPS   H3Y 1151   0.869   1.238   7.104 -0.7527  1.3687 -1.0293
    9SAPS   C34 1152   0.970   1.304   7.283  0.3125 -0.4286  0.3801
    9SAPS   H4X 1153   0.892   1.375   7.318  1.6200  0.1667  2.2525
    9SAPS   H4Y 1154   1.070   1.339   7.318  0.4494 -0.6328  0.1936
    9SAPS   C35 1155   0.945   1.164   7.345  0.3590 -0.9417 -0.2936
    9SAPS   H5X 1156   0.993   1.092   7.275 -0.5786 -1.3004 -0.5854
    9SAPS   H5Y 1157   0.837   1.139   7.355  0.4671 -1.1255  0.5427
    9SAPS   C36 1158   1.002   1.159   7.489  0.1821  0.6828  1.2423
    9SAPS   H6X 1159   1.112   1.177   7.488  0.6063 -1.6699  1.2914
    9SAPS   H6Y 1160   0.996   1.051   7.514  2.8663  0.2741  0.4811
    9SAPS   C37 1161   0.939   1.260   7.580 -0.1560 -0.6926  0.1595
    9SAPS   H7X 1162   0.828   1.261   7.566 -0.0889  3.4344 -1.2906
    9SAPS   H7Y 1163   0.963   1.366   7.560  1.4984 -1.3798 -1.8699
    9SAPS   C38 1164   0.962   1.231   7.732  0.4569 -0.6414  1.0787
    9SAPS   H8X 1165   1.071   1.246   7.747  0.3576  2.3054 -0.3946
    9SAPS   H8Y 1166   0.933   1.131   7.769  1.8879 -1.1991  0.7704
    9SAPS   C39 1167   0.887   1.332   7.823  0.7843 -0.1320  0.1593
    9SAPS   H9X 1168   0.785   1.350   7.783  0.6290 -1.5097 -0.1152
    9SAPS   H9Y 1169   0.941   1.429   7.816 -0.6800  0.7041  0.0077
    9SAPS  C310 1170   0.865   1.279   7.968 -0.1177  0.1844  0.6809
    9SAPS  H10X 1171   0.798   1.190   7.965 -0.7301  0.6542 -0.0101
    9SAPS  H10Y 1172   0.815   1.362   8.023 -0.6527  0.9427 -0.8982
    9SAPS  C311 1173   0.992   1.235   8.038  0.0592  0.3080  0.6850
    9SAPS  H11X 1174   1.057   1.323   8.060  0.2968  0.4101 -0.3747
    9SAPS  H11Y 1175   1.057   1.170   7.975  2.0360  2.8121 -0.0101
    9SAPS  C312 1176   0.962   1.164   8.169 -0.4421 -0.1850 -0.0814
    9SAPS  H12X 1177   1.060   1.121   8.197 -0.6998 -1.6321 -1.2572
    9SAPS  H12Y 1178   0.894   1.078   8.149 -0.4074 -0.2434  0.0494
    9SAPS  C313 1179   0.912   1.261   8.272  0.1602 -0.6670 -0.2934
    9SAPS  H13X 1180   0.809   1.294   8.243 -0.0621 -1.7080 -0.7189
    9SAPS  H13Y 1181   0.984   1.344   8.283  2.1038 -2.0946 -1.6588
    9SAPS  C314 1182   0.913   1.191   8.407  0.8268 -0.1482 -0.1617
    9SAPS  H14X 1183   1.016   1.159   8.433 -0.0724 -2.6440  0.6047
    9SAPS  H14Y 1184   0.833   1.115   8.401 -1.1987  1.9151 -0.8937
    9SAPS  C315 1185   0.880   1.294   8.520  0.6050 -0.7461  0.7574
    9SAPS  H15X 1186   0.803   1.366   8.485  1.3634  0.1501  0.8785
    9SAPS  H15Y 1187   0.966   1.364   8.531  1.0043 -0.8679 -1.1793
    9SAPS  C316 1188   0.838   1.219   8.646  0.4636 -0.0080 -0.2531
    9SAPS  H16X 1189   0.905   1.132   8.661  2.2678  0.7684 -3.1003
    9SAPS  H16Y 1190   0.741   1.167   8.632 -0.2665  1.7768 -2.5488
    9SAPS  C317 1191   0.812   1.315   8.775 -0.0218  0.1835 -0.5995
    9SAPS  H17X 1192   0.723   1.381   8.765  0.2411  1.2303  2.6430
    9SAPS  H17Y 1193   0.903   1.378   8.788  0.2884 -0.7088  2.4609
    9SAPS  C318 1194   0.791   1.223   8.898 -0.6841 -0.4810 -0.1653
    9SAPS  H18X 1195   0.717   1.142   8.880  1.0848 -1.9986 -0.9461
    9SAPS  H18Y 1196   0.779   1.298   8.979  1.3896  2.6912 -2.5443
    9SAPS  H18Z 1197   0.885   1.167   8.917 -1.0022 -0.8457  0.3606
   10SAPS     N 1198   2.445   2.792   6.376  0.3369  0.0779 -0.0949
   10SAPS   HN1 1199   2.526   2.857   6.380  1.4034 -0.7894 -3.6655
   10SAPS   HN2 1200   2.475   2.694   6.395 -1.7692 -1.1384 -2.3297
   10SAPS   HN3 1201   2.413   2.788   6.277  1.7489  0.0209 -0.5600
   10SAPS   C12 1202   2.323   2.822   6.446 -0.6726 -0.0046  0.2681
   10SAPS  H12A 1203   2.268   2.888   6.381  0.1529 -0.9894 -1.4956
   10SAPS   C13 1204   2.240   2.698   6.469 -0.1497  0.1425  0.2016
   10SAPS  O13A 1205   2.278   2.578   6.442  0.5918  0.1494  0.5353
   10SAPS  O13B 1206   2.124   2.722   6.506  0.1244 -0.1639 -0.6397
   10SAPS   C11 1207   2.361   2.898   6.581 -0.1433 -0.1707 -0.0233
   10SAPS  H11A 1208   2.442   2.834   6.622 -0.4894 -0.3994  0.3112
   10SAPS  H11B 1209   2.276   2.914   6.650  0.5920  1.5411  0.5622
   10SAPS     P 1210   2.554   3.074   6.531 -0.1027  0.0646 -0.5343
   10SAPS   O13 1211   2.621   2.987   6.432 -0.7731 -0.5637 -0.9078
   10SAPS   O14 1212   2.549   3.217   6.495 -0.3707  0.0850 -0.6298
   10SAPS   O12 1213   2.409   3.027   6.551  0.2440  0.1792 -0.4095
   10SAPS   O11 1214   2.612   3.056   6.670  0.0459  0.1342  0.1174
   10SAPS    C1 1215   2.599   3.154   6.771  0.4041  0.3151  0.4265
   10SAPS    HA 1216   2.527   3.236   6.753 -1.3742 -1.0205  1.0651
   10SAPS    HB 1217   2.571   3.113   6.871 -0.7166  2.1361  0.9028
   10SAPS    C2 1218   2.732   3.236   6.805 -0.2991  0.3413 -0.0428
   10SAPS    HS 1219   2.770   3.266   6.705  2.1022 -1.6557  0.1696
   10SAPS   O21 1220   2.817   3.146   6.866 -0.6850 -0.0248  0.8604
   10SAPS   C21 1221   2.938   3.189   6.870 -0.2707  0.0876 -0.5823
   10SAPS   O22 1222   2.978   3.296   6.824  0.1815 -0.0828 -0.1298
   10SAPS   C22 1223   3.022   3.083   6.934 -0.1374  0.2183 -0.2710
   10SAPS   H2R 1224   2.954   3.034   7.007 -1.2337  1.6265 -0.2989
   10SAPS   H2S 1225   3.052   3.018   6.850  0.2976  0.1590 -0.0706
   10SAPS    C3 1226   2.694   3.346   6.908  0.2618 -0.0243  0.5254
   10SAPS    HX 1227   2.625   3.418   6.860  2.0929  0.5661 -1.3924
   10SAPS    HY 1228   2.773   3.416   6.944 -0.7766  1.0526  0.7729
   10SAPS   O31 1229   2.620   3.286   7.017  0.0963  0.2636  1.0712
   10SAPS   C31 1230   2.685   3.258   7.126 -0.4159 -0.4181 -0.1656
   10SAPS   O32 1231   2.802   3.284   7.142 -0.4215 -0.8593 -0.2078
   10SAPS   C32 1232   2.577   3.199   7.215 -0.3749  0.2510  0.3168
   10SAPS   H2X 1233   2.556   3.100   7.169  1.4214  0.4830 -1.1166
   10SAPS   H2Y 1234   2.481   3.253   7.211 -0.6992 -0.3087  0.4019
   10SAPS   C23 1235   3.152   3.124   7.018 -0.2805  0.4077 -0.0670
   10SAPS   H3R 1236   3.139   3.227   7.056  0.0940  1.4098 -2.4649
   10SAPS   H3S 1237   3.229   3.123   6.938  0.0604  0.8840  0.2546
   10SAPS   C24 1238   3.202   3.033   7.124  0.1855  0.2317  0.1297
   10SAPS   H4R 1239   3.309   3.059   7.140  0.0434  1.0293 -0.2178
   10SAPS   H4S 1240   3.200   2.927   7.091 -2.9744  0.0606  0.5002
   10SAPS   C25 1241   3.127   3.052   7.256 -0.1777  0.3646 -0.0897
   10SAPS   H5R 1242   3.089   3.154   7.274  0.5766  0.4784  0.9954
   10SAPS   C26 1243   3.089   2.949   7.338  0.3560 -0.1147  0.3939
   10SAPS   H6R 1244   3.043   2.984   7.432 -2.9505 -1.6833 -0.4811
   10SAPS   C27 1245   3.106   2.798   7.320 -0.0727 -0.0117 -0.1372
   10SAPS   H7R 1246   3.126   2.762   7.423  2.8965  0.7279 -0.3575
   10SAPS   H7S 1247   3.199   2.779   7.262  0.8611  0.4812  1.1444
   10SAPS   C28 1248   2.981   2.729   7.265  0.0041 -0.0363  0.0160
   10SAPS   H8R 1249   2.945   2.760   7.166  0.2075  1.4853  0.3991
   10SAPS   C29 1250   2.908   2.631   7.322 -0.1676 -0.1598 -0.2443
   10SAPS   H9R 1251   2.828   2.580   7.266 -0.3565 -2.6337  2.0704
   10SAPS  C210 1252   2.936   2.573   7.460  0.0346 -0.4972 -0.1394
   10SAPS  H10R 1253   3.044   2.581   7.486  0.2620  0.7619 -1.3353
   10SAPS  H10S 1254   2.917   2.464   7.453 -2.2905 -0.1827  0.4579
   10SAPS  C211 1255   2.846   2.633   7.571  0.0792  0.3223  0.8317
   10SAPS  H11R 1256   2.790   2.719   7.530  0.9745  0.2094 -0.6750
   10SAPS  C212 1257   2.829   2.587   7.694 -0.0236 -0.2503  0.3789
   10SAPS  H12R 1258   2.754   2.629   7.762 -0.4376 -2.4341  1.3730
   10SAPS  C213 1259   2.890   2.466   7.760  0.5315 -0.0962  0.2208
   10SAPS  H13R 1260   2.961   2.495   7.839  1.2744 -1.7043  0.1853
   10SAPS  H13S 1261   2.959   2.412   7.692  0.1913  0.9511 -0.9963
   10SAPS  C214 1262   2.779   2.385   7.816 -0.3030 -0.0435  0.2500
   10SAPS  H14R 1263   2.720   2.336   7.737  0.2000 -0.3683  0.0673
   10SAPS  C215 1264   2.743   2.369   7.943 -0.3759 -0.2125  0.3675
   10SAPS  H15R 1265   2.654   2.307   7.957 -1.2934  0.8517 -0.5295
   10SAPS  C216 1266   2.810   2.431   8.062  0.7511 -0.2322  0.5941
   10SAPS  H16R 1267   2.731   2.470   8.131  1.1793  1.5960  0.1116
   10SAPS  H16S 1268   2.874   2.519   8.040  0.7107 -0.5966 -1.1353
   10SAPS  C217 1269   2.904   2.335   8.137  0.3471  0.2639  0.9172
   10SAPS  H17R 1270   2.990   2.301   8.074 -0.0863  0.3106  0.2953
   10SAPS  H17S 1271   2.859   2.242   8.176  0.4111 -0.0791  0.1982
   10SAPS  C218 1272   2.967   2.401   8.265  0.1837 -0.3876 -0.0751
   10SAPS  H18R 1273   2.886   2.387   8.341 -0.1462  0.2766 -0.2967
   10SAPS  H18S 1274   2.983   2.510   8.253  0.4673 -0.1365  2.1155
   10SAPS  C219 1275   3.094   2.340   8.314 -0.2752 -0.2756 -1.0464
   10SAPS  H19R 1276   3.168   2.330   8.232  0.2477  2.4796 -1.0071
   10SAPS  H19S 1277   3.065   2.235   8.339 -1.5028 -0.5645 -3.3857
   10SAPS  C220 1278   3.147   2.410   8.435 -0.6463 -0.0263 -0.1641
   10SAPS  H20R 1279   3.135   2.521   8.435  0.9280  0.1700 -0.0255
   10SAPS  H20S 1280   3.255   2.383   8.423 -1.0071 -1.7307  0.2288
   10SAPS  H20T 1281   3.107   2.379   8.534 -1.0968 -0.3727 -0.4550
   10SAPS   C33 1282   2.625   3.174   7.359 -0.3825  0.9907 -0.1284
   10SAPS   H3X 1283   2.670   3.260   7.413 -0.5857  0.8641  0.2506
   10SAPS   H3Y 1284   2.716   3.111   7.354 -1.3988 -0.4258 -1.7232
   10SAPS   C34 1285   2.524   3.106   7.452  0.6488  0.1592 -0.7759
   10SAPS   H4X 1286   2.579   3.086   7.547  0.9747 -0.8477 -1.1635
   10SAPS   H4Y 1287   2.488   3.015   7.401 -1.0665  0.3082  0.1118
   10SAPS   C35 1288   2.396   3.189   7.484 -0.1281  0.9811 -0.0551
   10SAPS   H5X 1289   2.350   3.201   7.383 -1.3295 -3.4301 -0.2452
   10SAPS   H5Y 1290   2.405   3.285   7.539  0.1208 -0.7471  3.1757
   10SAPS   C36 1291   2.297   3.106   7.573  0.8189 -0.1390  0.6559
   10SAPS   H6X 1292   2.291   3.004   7.529  0.6965  0.6593 -1.2673
   10SAPS   H6Y 1293   2.194   3.148   7.565  0.5433 -0.7215  1.0520
   10SAPS   C37 1294   2.344   3.116   7.716 -0.5387  0.2670 -0.9919
   10SAPS   H7X 1295   2.330   3.218   7.758 -1.0705 -0.7582  1.5159
   10SAPS   H7Y 1296   2.452   3.094   7.719 -0.8256 -1.4350  2.4689
   10SAPS   C38 1297   2.269   3.017   7.810  0.0945  0.3372  0.0248
   10SAPS   H8X 1298   2.283   2.910   7.783  0.9032  0.8867 -1.9436
   10SAPS   H8Y 1299   2.161   3.037   7.797  0.0707 -0.2363 -0.7998
   10SAPS   C39 1300   2.305   3.026   7.961  0.6213 -0.1437  0.4268
   10SAPS   H9X 1301   2.223   2.975   8.017 -0.9299  2.1683  0.3909
   10SAPS   H9Y 1302   2.293   3.133   7.989 -1.6263 -0.8615  2.6646
   10SAPS  C310 1303   2.437   2.974   7.995 -0.3474  0.0248 -0.1910
   10SAPS  H10X 1304   2.516   3.051   7.977 -0.6863  0.5717  0.5999
   10SAPS  H10Y 1305   2.467   2.888   7.931  3.1106 -0.3901  1.7182
   10SAPS  C311 1306   2.446   2.930   8.139 -0.3981  0.1627  0.1121
   10SAPS  H11X 1307   2.372   2.850   8.164  0.1104  0.3338  2.4569
   10SAPS  H11Y 1308   2.410   3.016   8.200 -0.5285  0.1345  0.0748
   10SAPS  C312 1309   2.587   2.881   8.192 -0.4140 -0.6365 -0.4538
   10SAPS  H12X 1310   2.589   2.777   8.152  1.0927 -1.4136  1.4673
   10SAPS  H12Y 1311   2.583   2.860   8.301 -0.7960  1.3412 -0.0460
   10SAPS  C313 1312   2.722   2.959   8.170 -0.3614 -0.2986  0.3054
   10SAPS  H13X 1313   2.733   3.052   8.231 -0.9496 -0.5756  0.8392
   10SAPS  H13Y 1314   2.726   2.975   8.060  3.0810 -0.6864  0.2515
   10SAPS  C314 1315   2.846   2.866   8.198 -0.0860 -0.0129  1.0360
   10SAPS  H14X 1316   2.941   2.920   8.179 -0.8983  0.5701 -1.7706
   10SAPS  H14Y 1317   2.848   2.786   8.120  3.4909  2.7815 -2.0994
   10SAPS  C315 1318   2.849   2.819   8.346  0.0859 -0.6936 -0.1233
   10SAPS  H15X 1319   2.793   2.723   8.352  0.0096 -0.6474 -0.0908
   10SAPS  H15Y 1320   2.786   2.892   8.402  1.1764 -0.6279  1.0605
   10SAPS  C316 1321   2.983   2.807   8.412  0.7465  0.5340 -0.4985
   10SAPS  H16X 1322   3.053   2.882   8.371 -0.8017  2.1024 -0.3926
   10SAPS  H16Y 1323   3.029   2.713   8.377 -1.2121 -0.7431  0.1397
   10SAPS  C317 1324   2.976   2.823   8.563 -0.4068  0.0883 -0.4289
   10SAPS  H17X 1325   2.901   2.751   8.602 -0.7853 -0.8901 -2.8030
   10SAPS  H17Y 1326   2.931   2.922   8.589 -1.1420  0.1009 -1.6609
   10SAPS  C318 1327   3.113   2.813   8.638  0.0365 -0.4696  0.1526
   10SAPS  H18X 1328   3.179   2.735   8.594  0.6838  0.7652 -1.1513
   10SAPS  H18Y 1329   3.087   2.790   8.744 -1.3675 -2.0289 -0.4816
   10SAPS  H18Z 1330   3.171   2.907   8.648  1.4834 -1.3494  0.3124
   11SAPS     N 1331   5.429   5.899   5.691 -0.1731 -0.1404 -1.0370
   11SAPS   HN1 1332   5.465   5.810   5.650  1.4025 -1.0377  2.0035
   11SAPS   HN2 1333   5.461   5.983   5.638 -0.4558  0.7804  0.1984
   11SAPS   HN3 1334   5.462   5.920   5.787 -2.3114  1.5885 -0.5951
   11SAPS   C12 1335   5.280   5.879   5.684 -0.0129  0.2257  0.2893
   11SAPS  H12A 1336   5.222   5.956   5.731 -0.8121  0.2495 -0.6879
   11SAPS   C13 1337   5.227   5.877   5.539  0.1164 -0.5397 -0.0543
   11SAPS  O13A 1338   5.311   5.880   5.448  0.8054  0.0620 -0.1321
   11SAPS  O13B 1339   5.100   5.875   5.524 -0.3566 -0.1654  0.1646
   11SAPS   C11 1340   5.246   5.749   5.754 -0.2036  0.3788  0.0929
   11SAPS  H11A 1341   5.281   5.661   5.696 -2.8700 -1.2379  0.7679
   11SAPS  H11B 1342   5.136   5.737   5.752 -0.7737  4.0014 -3.9408
   11SAPS     P 1343   5.323   5.616   5.967  0.0474  0.6317  0.1618
   11SAPS   O13 1344   5.397   5.526   5.876  0.3545  0.0475  0.5781
   11SAPS   O14 1345   5.374   5.644   6.104 -0.0275  0.2589  0.2951
   11SAPS   O12 1346   5.293   5.746   5.891  0.1502  0.1775  0.0608
   11SAPS   O11 1347   5.184   5.549   5.990 -0.3076 -0.5876 -0.1776
   11SAPS    C1 1348   5.078   5.625   6.059 -0.3301 -0.6680 -0.3326
   11SAPS    HA 1349   5.074   5.730   6.024  1.4143 -0.7889 -1.0180
   11SAPS    HB 1350   4.975   5.588   6.042 -0.3384 -0.5547 -0.5295
   11SAPS    C2 1351   5.079   5.624   6.216 -0.9688  0.0022 -0.3187
   11SAPS    HS 1352   5.187   5.632   6.242 -0.9820 -0.1242 -0.2305
   11SAPS   O21 1353   5.012   5.509   6.273  0.2040 -0.2180  0.6697
   11SAPS   C21 1354   5.083   5.426   6.344  0.8142 -0.3991 -1.2266
   11SAPS   O22 1355   5.203   5.415   6.353 -0.3291 -0.0446  0.0843
   11SAPS   C22 1356   4.982   5.364   6.441 -0.0294 -0.3024  0.1108
   11SAPS   H2R 1357   4.907   5.441   6.469  1.6696  1.5203 -0.1202
   11SAPS   H2S 1358   4.933   5.281   6.385 -0.3216 -0.5688  0.7535
   11SAPS    C3 1359   5.016   5.758   6.269  0.3268 -0.0734 -0.7810
   11SAPS    HX 1360   4.911   5.751   6.235  0.3614  1.7583 -1.3652
   11SAPS    HY 1361   5.069   5.835   6.209 -1.0980  1.4344 -0.1818
   11SAPS   O31 1362   5.039   5.786   6.408  0.5805 -0.0407  0.5149
   11SAPS   C31 1363   4.938   5.834   6.480  0.2824  0.1847  0.4378
   11SAPS   O32 1364   4.821   5.831   6.438 -0.2092  0.4632  1.0132
   11SAPS   C32 1365   4.975   5.890   6.614 -0.4997  0.3875 -0.4797
   11SAPS   H2X 1366   4.941   5.996   6.620  0.1917  0.5253  3.4060
   11SAPS   H2Y 1367   5.084   5.907   6.626 -0.2190 -0.2413 -1.9133
   11SAPS   C23 1368   5.054   5.322   6.573  0.2096  0.1669  0.7617
   11SAPS   H3R 1369   5.086   5.415   6.626  0.4404  1.2599 -1.1750
   11SAPS   H3S 1370   5.145   5.259   6.561 -1.1170 -1.9577  1.3143
   11SAPS   C24 1371   4.957   5.237   6.656  0.5302 -0.5816 -0.1421
   11SAPS   H4R 1372   5.018   5.171   6.721  2.0623 -0.1267 -1.0629
   11SAPS   H4S 1373   4.902   5.168   6.589  2.2980 -2.3872  0.1644
   11SAPS   C25 1374   4.846   5.309   6.728 -0.1159 -0.2371 -0.2464
   11SAPS   H5R 1375   4.792   5.373   6.658 -0.3693 -1.6144 -1.3423
   11SAPS   C26 1376   4.814   5.311   6.860 -0.1897  0.2445 -0.1900
   11SAPS   H6R 1377   4.724   5.367   6.890 -0.2621  0.7180 -1.2318
   11SAPS   C27 1378   4.880   5.227   6.970  0.0073 -0.0324  0.4272
   11SAPS   H7R 1379   4.842   5.277   7.062  0.8543  1.7237 -0.1152
   11SAPS   H7S 1380   4.991   5.235   6.962  0.0471  0.4915  1.3760
   11SAPS   C28 1381   4.856   5.084   6.956  1.1908  0.0033 -0.5163
   11SAPS   H8R 1382   4.794   5.061   6.869  0.5782 -0.8596  0.1267
   11SAPS   C29 1383   4.870   5.003   7.062 -0.1013  0.3469 -0.3483
   11SAPS   H9R 1384   4.845   4.897   7.043  1.7945 -0.6016  1.9010
   11SAPS  C210 1385   4.929   5.034   7.194 -0.2166  0.0720 -0.5014
   11SAPS  H10R 1386   4.859   4.996   7.271 -2.8269  1.5207 -1.9938
   11SAPS  H10S 1387   4.916   5.142   7.215  1.2792 -0.1259  1.6852
   11SAPS  C211 1388   5.075   4.993   7.207  0.4947 -0.1771  0.2676
   11SAPS  H11R 1389   5.125   4.968   7.113  0.5204  2.2939 -0.4452
   11SAPS  C212 1390   5.142   4.985   7.319 -0.1256 -0.0994 -0.6427
   11SAPS  H12R 1391   5.250   4.962   7.314  0.2482  1.1116  1.0531
   11SAPS  C213 1392   5.092   5.025   7.461 -0.2220  0.0390 -0.2414
   11SAPS  H13R 1393   5.062   4.928   7.507  1.0801 -0.9362 -1.3656
   11SAPS  H13S 1394   4.996   5.080   7.473  1.0034  2.0863  0.7130
   11SAPS  C214 1395   5.201   5.100   7.533 -0.5134 -0.0139 -0.4029
   11SAPS  H14R 1396   5.245   5.179   7.470 -1.5559  0.9366  0.0250
   11SAPS  C215 1397   5.232   5.081   7.662  0.3613  0.1096  0.7096
   11SAPS  H15R 1398   5.311   5.147   7.703  0.8484 -1.5804  2.6965
   11SAPS  C216 1399   5.171   4.981   7.759 -1.0325 -0.5739  0.5021
   11SAPS  H16R 1400   5.255   4.912   7.782 -1.3106  0.0753  4.1150
   11SAPS  H16S 1401   5.096   4.916   7.710 -2.1525  0.3423  0.9682
   11SAPS  C217 1402   5.111   5.047   7.892 -0.7859  0.3236 -0.1876
   11SAPS  H17R 1403   5.030   5.115   7.859 -0.3169  0.9762 -0.0192
   11SAPS  H17S 1404   5.198   5.100   7.938  0.6340  0.0079 -2.3853
   11SAPS  C218 1405   5.060   4.931   7.976 -0.2248  0.3074 -0.0917
   11SAPS  H18R 1406   5.144   4.864   8.006 -0.2137  0.2919 -0.1558
   11SAPS  H18S 1407   5.002   4.865   7.909  0.8603  0.9971 -1.7831
   11SAPS  C219 1408   4.988   4.967   8.107 -0.2148  0.3388  0.1958
   11SAPS  H19R 1409   4.970   4.872   8.162 -2.4589  0.2907 -0.4977
   11SAPS  H19S 1410   4.892   5.021   8.094 -0.4077  1.0162  3.5295
   11SAPS  C220 1411   5.081   5.052   8.202 -0.1899 -0.3720 -0.2131
   11SAPS  H20R 1412   5.186   5.021   8.219  0.4299  1.6253 -0.0653
   11SAPS  H20S 1413   5.050   5.064   8.307  1.2503 -2.4793  0.5166
   11SAPS  H20T 1414   5.086   5.159   8.172  1.5384 -0.2394  0.4537
   11SAPS   C33 1415   4.920   5.803   6.725 -0.1779 -0.7565 -0.1442
   11SAPS   H3X 1416   4.965   5.703   6.710  0.7989 -0.0473 -2.3120
   11SAPS   H3Y 1417   4.809   5.802   6.724 -0.2617  1.1341 -2.2629
   11SAPS   C34 1418   4.944   5.867   6.867  0.3048 -0.7667  1.0809
   11SAPS   H4X 1419   4.907   5.972   6.869  2.2730 -0.0172  0.2984
   11SAPS   H4Y 1420   5.054   5.866   6.885  0.8218 -1.3620 -1.6148
   11SAPS   C35 1421   4.877   5.789   6.977  0.4266 -0.1549 -0.4287
   11SAPS   H5X 1422   4.776   5.752   6.951  0.5754 -0.7209 -0.2246
   11SAPS   H5Y 1423   4.867   5.850   7.070 -1.1200  0.3458 -0.8896
   11SAPS   C36 1424   4.971   5.680   7.016  0.3911  0.3705 -0.2517
   11SAPS   H6X 1425   5.067   5.723   7.051  1.3145 -1.6992 -0.1130
   11SAPS   H6Y 1426   4.990   5.609   6.933  1.2683 -1.4638  1.4177
   11SAPS   C37 1427   4.920   5.600   7.133  0.0021 -1.0900  0.1549
   11SAPS   H7X 1428   4.833   5.535   7.107  1.5729 -2.1307 -3.0262
   11SAPS   H7Y 1429   4.880   5.672   7.208 -2.9015 -2.1777 -0.2020
   11SAPS   C38 1430   5.036   5.525   7.210 -0.5496  0.2388 -0.0477
   11SAPS   H8X 1431   5.115   5.600   7.233 -0.3164 -0.6823  2.5426
   11SAPS   H8Y 1432   5.074   5.456   7.131  0.6023 -1.2435  1.7264
   11SAPS   C39 1433   4.994   5.443   7.333 -0.8881  0.6528  0.1032
   11SAPS   H9X 1434   5.087   5.390   7.362 -0.9668  1.7276  2.5795
   11SAPS   H9Y 1435   4.912   5.375   7.303 -0.7898  0.2477  0.7354
   11SAPS  C310 1436   4.945   5.528   7.449  0.4470  0.0348  0.0306
   11SAPS  H10X 1437   4.849   5.575   7.419 -0.5122 -1.6890  0.3060
   11SAPS  H10Y 1438   5.019   5.607   7.477  1.3959 -0.8251 -0.0100
   11SAPS  C311 1439   4.924   5.430   7.568 -0.4941 -0.3336 -0.3440
   11SAPS  H11X 1440   5.011   5.366   7.593 -0.3779  0.3592  1.1744
   11SAPS  H11Y 1441   4.844   5.360   7.536 -2.3761  0.4986  2.2540
   11SAPS  C312 1442   4.862   5.493   7.690 -0.0534 -0.2358 -0.7430
   11SAPS  H12X 1443   4.760   5.531   7.670 -0.0203  0.0327 -0.4341
   11SAPS  H12Y 1444   4.931   5.574   7.725 -0.4654 -0.6439  1.1113
   11SAPS  C313 1445   4.842   5.384   7.802  0.4322  0.2203 -0.5437
   11SAPS  H13X 1446   4.941   5.353   7.841 -0.1344  0.6435  1.3427
   11SAPS  H13Y 1447   4.793   5.289   7.771 -1.1732  0.3338  1.3954
   11SAPS  C314 1448   4.761   5.433   7.922  0.3957 -0.3474  0.4586
   11SAPS  H14X 1449   4.668   5.477   7.878  1.3973  0.4832 -0.9026
   11SAPS  H14Y 1450   4.817   5.521   7.961  0.6788 -0.8759  1.2661
   11SAPS  C315 1451   4.720   5.319   8.022  1.0317 -0.0666  0.0200
   11SAPS  H15X 1452   4.712   5.368   8.122  1.5436 -1.9611  1.0362
   11SAPS  H15Y 1453   4.800   5.242   8.038  1.9761  0.6853 -0.9664
   11SAPS  C316 1454   4.584   5.254   7.984 -0.6768 -0.1997  0.1062
   11SAPS  H16X 1455   4.566   5.150   8.022  1.0394 -0.1106  1.2849
   11SAPS  H16Y 1456   4.587   5.242   7.874 -1.0425  2.0872 -0.1956
   11SAPS  C317 1457   4.453   5.333   8.024 -0.1775 -0.3588  0.5125
   11SAPS  H17X 1458   4.364   5.273   7.994 -1.5435  2.4501 -1.5084
   11SAPS  H17Y 1459   4.447   5.429   7.968  0.5733 -0.6225 -0.0376
   11SAPS  C318 1460   4.433   5.350   8.180  0.6413  0.0900  0.1017
   11SAPS  H18X 1461   4.380   5.259   8.214  3.0738 -1.6194 -0.4610
   11SAPS  H18Y 1462   4.369   5.439   8.195  1.5501  0.6474  0.7467
   11SAPS  H18Z 1463   4.530   5.375   8.227  1.1239  0.8605 -1.2281
   12SAPS     N 1464   3.525   5.201   6.337 -0.0012 -0.1254 -0.1560
   12SAPS   HN1 1465   3.624   5.228   6.320  0.1871 -1.3506 -1.1018
   12SAPS   HN2 1466   3.486   5.286   6.382  0.5527  0.2217 -0.3162
   12SAPS   HN3 1467   3.517   5.121   6.404 -0.3724 -0.5044 -0.6504
   12SAPS   C12 1468   3.463   5.173   6.203  0.6044  0.5276  0.4809
   12SAPS  H12A 1469   3.466   5.065   6.197 -0.3354  0.5352 -0.2979
   12SAPS   C13 1470   3.310   5.191   6.198  0.5444 -0.4716  0.3055
   12SAPS  O13A 1471   3.245   5.192   6.311 -0.4474  0.1973 -0.0861
   12SAPS  O13B 1472   3.254   5.165   6.086  0.1052 -0.1471 -0.2819
   12SAPS   C11 1473   3.545   5.254   6.099  0.7247 -0.3867  0.5328
   12SAPS  H11A 1474   3.542   5.362   6.123  3.0469  0.1421 -1.2195
   12SAPS  H11B 1475   3.494   5.244   6.000  2.5314 -1.9588 -0.2957
   12SAPS     P 1476   3.799   5.305   6.142  0.5778 -0.1449 -0.0323
   12SAPS   O13 1477   3.919   5.218   6.148  0.2167 -0.0127  0.4582
   12SAPS   O14 1478   3.803   5.424   6.055 -0.5005 -0.0795  0.5081
   12SAPS   O12 1479   3.680   5.212   6.089 -0.2228 -0.1199  0.6072
   12SAPS   O11 1480   3.750   5.344   6.286  0.0535  0.3479  0.4284
   12SAPS    C1 1481   3.806   5.453   6.358  0.1921  0.0343 -0.3853
   12SAPS    HA 1482   3.870   5.522   6.298  0.8384 -0.6250 -0.4626
   12SAPS    HB 1483   3.720   5.509   6.400 -0.2300  1.0582 -2.4578
   12SAPS    C2 1484   3.882   5.409   6.490 -0.3489  0.2501  0.5076
   12SAPS    HS 1485   3.820   5.338   6.551  0.3762  0.6919  1.7904
   12SAPS   O21 1486   3.910   5.525   6.571 -0.3801  0.8010 -0.1552
   12SAPS   C21 1487   3.813   5.564   6.646  0.0554 -0.2663  0.0351
   12SAPS   O22 1488   3.694   5.531   6.643  0.4270  0.1055  0.8612
   12SAPS   C22 1489   3.870   5.665   6.746  0.4281 -0.2406 -0.9688
   12SAPS   H2R 1490   3.975   5.633   6.764 -0.1124 -0.5082  2.3113
   12SAPS   H2S 1491   3.867   5.768   6.705 -1.3999 -0.0684 -0.4968
   12SAPS    C3 1492   4.009   5.326   6.457  0.5419 -0.5032  0.3427
   12SAPS    HX 1493   4.063   5.364   6.367  0.9353 -0.5691  0.5460
   12SAPS    HY 1494   3.994   5.216   6.446 -1.9750 -0.2171  0.2934
   12SAPS   O31 1495   4.109   5.348   6.565 -0.0644  0.1226 -0.4168
   12SAPS   C31 1496   4.083   5.286   6.680 -0.1164  0.1587  0.6861
   12SAPS   O32 1497   3.995   5.205   6.691 -0.0054  0.1736 -1.0104
   12SAPS   C32 1498   4.188   5.319   6.790  0.1587 -0.0924 -0.2495
   12SAPS   H2X 1499   4.287   5.326   6.741  1.3877  4.1519  2.3070
   12SAPS   H2Y 1500   4.178   5.235   6.863  1.2944 -0.6010 -0.6711
   12SAPS   C23 1501   3.790   5.663   6.877  0.4745  0.3276 -0.1692
   12SAPS   H3R 1502   3.764   5.559   6.908  0.4782  0.6747  1.0553
   12SAPS   H3S 1503   3.696   5.714   6.850  0.8337  0.8096 -0.5229
   12SAPS   C24 1504   3.856   5.745   6.989  0.5865 -0.4323 -0.0561
   12SAPS   H4R 1505   3.853   5.851   6.953 -1.1267 -1.0581 -1.9189
   12SAPS   H4S 1506   3.964   5.720   6.994  0.4439 -1.1679 -0.4544
   12SAPS   C25 1507   3.781   5.734   7.116 -0.1036  0.3294 -0.0926
   12SAPS   H5R 1508   3.676   5.761   7.100 -1.0532 -3.0517 -0.3205
   12SAPS   C26 1509   3.834   5.681   7.239  0.5490  0.4401 -0.3058
   12SAPS   H6R 1510   3.773   5.670   7.329  2.4795 -1.0232  0.8990
   12SAPS   C27 1511   3.977   5.637   7.267  0.1250 -0.6833  0.6972
   12SAPS   H7R 1512   4.052   5.689   7.203 -0.7160 -0.3834 -0.0733
   12SAPS   H7S 1513   3.992   5.530   7.244 -1.0854 -0.7647  0.2125
   12SAPS   C28 1514   4.009   5.666   7.409  0.0356  0.2286 -0.5409
   12SAPS   H8R 1515   3.956   5.751   7.455  0.7646 -1.0178  2.9683
   12SAPS   C29 1516   4.101   5.608   7.492  0.5111 -0.1507  0.1237
   12SAPS   H9R 1517   4.098   5.653   7.593 -0.7602  1.1461 -0.4578
   12SAPS  C210 1518   4.205   5.509   7.457 -0.2089  0.3387 -1.1262
   12SAPS  H10R 1519   4.275   5.571   7.397 -1.2764  2.8569  0.0755
   12SAPS  H10S 1520   4.172   5.438   7.378  0.4474 -0.6892 -0.5029
   12SAPS  C211 1521   4.284   5.440   7.569 -0.4491 -0.1451  0.4584
   12SAPS  H11R 1522   4.272   5.331   7.562  1.8099 -0.4390  0.3033
   12SAPS  C212 1523   4.351   5.493   7.671 -0.2953 -0.6893  0.2612
   12SAPS  H12R 1524   4.403   5.422   7.738 -1.3958 -1.0616  0.7654
   12SAPS  C213 1525   4.369   5.645   7.688  0.0163 -0.4435  0.4168
   12SAPS  H13R 1526   4.279   5.690   7.736 -0.4798 -0.8347 -0.1382
   12SAPS  H13S 1527   4.365   5.678   7.582 -1.3645 -1.2777  0.1964
   12SAPS  C214 1528   4.498   5.684   7.757  0.5431 -0.0107  0.1181
   12SAPS  H14R 1529   4.593   5.686   7.701  1.6981 -0.2202  1.9578
   12SAPS  C215 1530   4.515   5.722   7.886  0.2892  0.3673  0.4470
   12SAPS  H15R 1531   4.615   5.748   7.924  1.2095 -1.7291 -0.4112
   12SAPS  C216 1532   4.406   5.739   7.987 -0.1146  0.8595 -0.2817
   12SAPS  H16R 1533   4.431   5.687   8.082 -0.5308 -0.6842 -0.9764
   12SAPS  H16S 1534   4.308   5.696   7.956  0.7098 -1.6875  0.3709
   12SAPS  C217 1535   4.383   5.890   8.008 -0.2840 -0.2177 -0.5115
   12SAPS  H17R 1536   4.403   5.950   7.916 -1.8848  0.3311 -0.5297
   12SAPS  H17S 1537   4.455   5.928   8.083 -1.6879  1.0536  0.2526
   12SAPS  C218 1538   4.243   5.924   8.078  0.8540 -0.3543  0.6359
   12SAPS  H18R 1539   4.228   5.869   8.173 -0.8094 -1.3523 -0.1607
   12SAPS  H18S 1540   4.162   5.890   8.010  0.7255 -1.6209  1.4011
   12SAPS  C219 1541   4.237   6.078   8.107 -0.1363  0.6266 -0.5929
   12SAPS  H19R 1542   4.246   6.122   8.006  0.0224  2.8191  0.3364
   12SAPS  H19S 1543   4.319   6.122   8.167  0.5141 -1.0985 -0.1519
   12SAPS  C220 1544   4.109   6.119   8.166  0.3251 -0.1069  0.1067
   12SAPS  H20R 1545   4.100   6.229   8.174 -5.1784 -0.4104  1.9459
   12SAPS  H20S 1546   4.099   6.076   8.268  1.6736 -0.6458  0.0426
   12SAPS  H20T 1547   4.021   6.097   8.102 -0.3402  2.1748  0.1552
   12SAPS   C33 1548   4.155   5.454   6.848 -0.3291 -0.7810  0.2032
   12SAPS   H3X 1549   4.057   5.431   6.895 -0.6468  1.3197  0.6916
   12SAPS   H3Y 1550   4.149   5.529   6.766  1.4081 -1.0690 -0.2290
   12SAPS   C34 1551   4.234   5.499   6.972 -0.2471  0.4789  0.3970
   12SAPS   H4X 1552   4.271   5.406   7.018 -1.3586  0.1435  0.6409
   12SAPS   H4Y 1553   4.165   5.549   7.044 -2.2899  0.8985 -1.7225
   12SAPS   C35 1554   4.337   5.599   6.933  0.4702  0.1449 -0.7241
   12SAPS   H5X 1555   4.294   5.671   6.860  0.5167 -0.6693 -1.5777
   12SAPS   H5Y 1556   4.422   5.548   6.883  1.0210 -0.5798  0.8903
   12SAPS   C36 1557   4.377   5.696   7.051  0.5825 -0.1100 -0.8026
   12SAPS   H6X 1558   4.285   5.757   7.068  0.6584  0.3064 -1.8409
   12SAPS   H6Y 1559   4.460   5.761   7.017  0.4708  0.0808 -0.7127
   12SAPS   C37 1560   4.426   5.621   7.174 -0.3010 -0.4505 -0.9591
   12SAPS   H7X 1561   4.348   5.545   7.196 -0.3831 -0.0628  0.1265
   12SAPS   H7Y 1562   4.435   5.690   7.260 -2.7959  0.8751 -1.6388
   12SAPS   C38 1563   4.546   5.533   7.153 -1.0156  0.0227  0.7268
   12SAPS   H8X 1564   4.629   5.603   7.132 -0.5906 -0.3354  1.1960
   12SAPS   H8Y 1565   4.530   5.460   7.070 -0.0371 -1.0278  1.4276
   12SAPS   C39 1566   4.595   5.452   7.278 -0.0014 -0.8809  0.5070
   12SAPS   H9X 1567   4.584   5.506   7.374 -0.0484  1.5217 -0.7593
   12SAPS   H9Y 1568   4.702   5.428   7.261  0.0177 -0.2697 -0.3226
   12SAPS  C310 1569   4.513   5.321   7.282  0.1589 -0.0294 -0.0692
   12SAPS  H10X 1570   4.542   5.258   7.195 -1.3702 -0.5552 -0.2262
   12SAPS  H10Y 1571   4.406   5.349   7.274 -0.3869 -2.2064 -1.2713
   12SAPS  C311 1572   4.541   5.236   7.416 -0.1916 -0.4589  0.6465
   12SAPS  H11X 1573   4.440   5.192   7.423 -1.3862  1.2005 -3.2741
   12SAPS  H11Y 1574   4.556   5.313   7.495 -0.9446  0.5244 -0.1324
   12SAPS  C312 1575   4.665   5.151   7.407  0.1020 -0.3284  0.9385
   12SAPS  H12X 1576   4.743   5.225   7.381 -1.1282  0.6175 -0.1986
   12SAPS  H12Y 1577   4.638   5.084   7.323 -0.3232  1.5133 -0.4671
   12SAPS  C313 1578   4.695   5.062   7.533  0.6363 -0.2030  0.3011
   12SAPS  H13X 1579   4.708   5.135   7.615 -2.0124  2.5289 -1.4822
   12SAPS  H13Y 1580   4.788   5.002   7.525  1.0055  0.3391  0.4942
   12SAPS  C314 1581   4.585   4.962   7.567  0.1570  0.1273 -0.1100
   12SAPS  H14X 1582   4.563   4.884   7.492 -1.0572 -1.6532  1.9977
   12SAPS  H14Y 1583   4.491   5.018   7.588  0.0748 -0.5082  1.3765
   12SAPS  C315 1584   4.608   4.891   7.703 -0.9655  0.0779 -0.5970
   12SAPS  H15X 1585   4.711   4.916   7.739  0.8221 -3.8743 -2.3912
   12SAPS  H15Y 1586   4.609   4.783   7.678 -0.6856 -0.0715  0.0233
   12SAPS  C316 1587   4.497   4.922   7.799 -0.3227  0.0211 -0.2404
   12SAPS  H16X 1588   4.400   4.933   7.746 -1.0524  0.2856  1.1000
   12SAPS  H16Y 1589   4.529   5.022   7.835  1.9467 -0.3475 -1.0674
   12SAPS  C317 1590   4.484   4.838   7.923  0.7074 -0.2046  0.0137
   12SAPS  H17X 1591   4.586   4.835   7.965  1.2129 -0.1285 -1.1578
   12SAPS  H17Y 1592   4.458   4.738   7.883 -1.5891  0.0322  0.7621
   12SAPS  C318 1593   4.379   4.886   8.026 -0.1613  0.0795 -0.1036
   12SAPS  H18X 1594   4.283   4.888   7.970 -0.5201 -0.8781  0.4472
   12SAPS  H18Y 1595   4.408   4.980   8.079 -0.1956  0.5379 -0.8927
   12SAPS  H18Z 1596   4.370   4.812   8.109  0.1533  1.3994  1.1452
   13SAPS     N 1597   5.764   5.081   5.885  0.0305 -0.7026  0.3207
   13SAPS   HN1 1598   5.681   5.113   5.831 -1.4588 -0.8623  2.3590
   13SAPS   HN2 1599   5.745   5.090   5.987 -1.9263  0.3032 -0.0831
   13SAPS   HN3 1600   5.850   5.139   5.880 -0.2494 -0.1438  1.4306
   13SAPS   C12 1601   5.807   4.940   5.856 -0.1909 -0.0507 -0.1583
   13SAPS  H12A 1602   5.717   4.880   5.859  1.0616 -1.9980  0.4007
   13SAPS   C13 1603   5.877   4.915   5.716 -0.0473  1.1462 -0.0734
   13SAPS  O13A 1604   5.859   4.989   5.623  0.2008 -1.0089 -0.4498
   13SAPS  O13B 1605   5.926   4.797   5.697 -0.0339 -0.0379 -0.3067
   13SAPS   C11 1606   5.900   4.891   5.967  0.3980  0.0983 -0.6609
   13SAPS  H11A 1607   5.987   4.957   5.987  1.0161 -0.6179 -0.9225
   13SAPS  H11B 1608   5.944   4.796   5.930 -1.8944 -1.3650  0.1160
   13SAPS     P 1609   5.832   4.728   6.161  0.0280  0.0049  0.1728
   13SAPS   O13 1610   5.720   4.649   6.117 -0.2436 -0.3040 -0.7259
   13SAPS   O14 1611   5.967   4.667   6.149  0.2286  0.4539 -0.3981
   13SAPS   O12 1612   5.827   4.871   6.091 -0.7052  0.4208 -0.0239
   13SAPS   O11 1613   5.808   4.771   6.309  0.4833  0.1689 -0.5546
   13SAPS    C1 1614   5.863   4.892   6.357  0.4029  0.0787 -1.2301
   13SAPS    HA 1615   5.954   4.867   6.415  0.0700  0.4467 -0.5192
   13SAPS    HB 1616   5.883   4.968   6.279  1.5362  0.7434 -0.3229
   13SAPS    C2 1617   5.776   4.975   6.462 -0.1697 -0.0777  0.1400
   13SAPS    HS 1618   5.842   5.055   6.502  2.1339 -1.2082 -1.2480
   13SAPS   O21 1619   5.722   4.886   6.562 -0.1087 -0.2598  0.4771
   13SAPS   C21 1620   5.815   4.852   6.650 -0.2989  0.4792 -0.1146
   13SAPS   O22 1621   5.929   4.892   6.660 -0.2198 -0.3181 -0.2304
   13SAPS   C22 1622   5.745   4.740   6.737  0.1465  0.4145 -0.4405
   13SAPS   H2R 1623   5.638   4.769   6.744 -0.1170 -0.4930 -0.5668
   13SAPS   H2S 1624   5.763   4.645   6.683  1.3374 -0.1356  0.8654
   13SAPS    C3 1625   5.650   5.040   6.384 -0.6513  0.1500  0.7391
   13SAPS    HX 1626   5.585   4.955   6.357  0.1629  0.6713 -3.5091
   13SAPS    HY 1627   5.675   5.072   6.280  0.3268 -0.5142  0.7577
   13SAPS   O31 1628   5.596   5.150   6.456 -0.5286 -0.4171  0.2990
   13SAPS   C31 1629   5.467   5.137   6.492  0.1338  0.2392  0.0596
   13SAPS   O32 1630   5.385   5.068   6.435 -0.3947  0.7505  0.4204
   13SAPS   C32 1631   5.438   5.227   6.615  0.5652 -0.0744 -0.3544
   13SAPS   H2X 1632   5.355   5.183   6.674 -0.9322  2.3819 -0.4931
   13SAPS   H2Y 1633   5.400   5.322   6.572  0.2870 -1.0436 -2.3641
   13SAPS   C23 1634   5.801   4.727   6.884 -0.4653  0.3833 -0.3066
   13SAPS   H3R 1635   5.735   4.658   6.941  4.6623 -2.4765  2.9387
   13SAPS   H3S 1636   5.807   4.829   6.927  1.0506  0.1258  0.1510
   13SAPS   C24 1637   5.950   4.672   6.888  0.1973 -0.4242 -0.2486
   13SAPS   H4R 1638   5.980   4.694   6.993 -2.2967  0.8371  0.2702
   13SAPS   H4S 1639   6.011   4.737   6.821  0.8762  1.1137  1.7772
   13SAPS   C25 1640   5.979   4.535   6.839 -0.6437  0.6579 -0.7411
   13SAPS   H5R 1641   5.971   4.513   6.732  0.3964  0.3666 -0.7725
   13SAPS   C26 1642   6.021   4.426   6.914  0.8457  0.5124  0.2493
   13SAPS   H6R 1643   6.036   4.331   6.860  1.5847  0.7017  0.1082
   13SAPS   C27 1644   6.049   4.425   7.067 -0.2902 -0.2274 -0.2361
   13SAPS   H7R 1645   5.991   4.510   7.109 -0.1950 -0.1352 -0.2894
   13SAPS   H7S 1646   6.157   4.446   7.086  0.3355  0.7596 -4.0013
   13SAPS   C28 1647   6.013   4.292   7.128  0.3720 -0.1691 -0.0704
   13SAPS   H8R 1648   5.904   4.280   7.143  0.4819 -0.8958  0.1978
   13SAPS   C29 1649   6.096   4.194   7.177  0.1722  0.1688 -0.0448
   13SAPS   H9R 1650   6.042   4.101   7.196  0.9752 -0.1519  0.7414
   13SAPS  C210 1651   6.247   4.184   7.193  0.5100 -0.2754  0.4686
   13SAPS  H10R 1652   6.254   4.089   7.250 -0.7575 -0.4067  0.4266
   13SAPS  H10S 1653   6.300   4.273   7.233  0.4266  1.8907 -3.6243
   13SAPS  C211 1654   6.317   4.165   7.054 -0.1270 -0.4024 -0.4972
   13SAPS  H11R 1655   6.341   4.258   7.002  0.0479  0.3356  0.8668
   13SAPS  C212 1656   6.367   4.046   7.011  0.2562 -1.0941  0.1661
   13SAPS  H12R 1657   6.411   4.054   6.911 -0.3822 -2.0356 -0.2033
   13SAPS  C213 1658   6.357   3.907   7.060  0.1588 -0.7986  0.7561
   13SAPS  H13R 1659   6.381   3.899   7.168  0.5409  1.0078  0.8498
   13SAPS  H13S 1660   6.425   3.844   7.001 -0.2992 -0.1358 -0.5200
   13SAPS  C214 1661   6.218   3.862   7.034  0.5503 -0.7196  0.0274
   13SAPS  H14R 1662   6.190   3.883   6.929  0.2191 -1.5023 -0.0490
   13SAPS  C215 1663   6.129   3.804   7.112 -0.2594  0.4598 -0.0853
   13SAPS  H15R 1664   6.031   3.780   7.069 -0.7874 -1.8410  2.1565
   13SAPS  C216 1665   6.149   3.763   7.260  0.0913  0.4145 -0.1361
   13SAPS  H16R 1666   6.256   3.770   7.288  0.4327 -1.4478 -0.8320
   13SAPS  H16S 1667   6.127   3.656   7.276 -0.8640  0.6081 -0.0830
   13SAPS  C217 1668   6.059   3.852   7.351  0.5731  0.4289  1.6020
   13SAPS  H17R 1669   5.954   3.838   7.320  0.7770 -1.3255  1.6270
   13SAPS  H17S 1670   6.063   3.962   7.339 -3.4882  0.4103 -2.1758
   13SAPS  C218 1671   6.063   3.817   7.502 -0.0976 -0.3728 -0.0295
   13SAPS  H18R 1672   6.169   3.826   7.532 -0.5559 -0.6996  1.8118
   13SAPS  H18S 1673   6.018   3.716   7.513 -2.0855  0.5561  0.8977
   13SAPS  C219 1674   5.968   3.907   7.579  0.2378  0.7680  0.0469
   13SAPS  H19R 1675   5.866   3.889   7.540  0.0583  0.5418  0.6164
   13SAPS  H19S 1676   5.979   4.016   7.560 -0.6690  1.0713  1.1933
   13SAPS  C220 1677   5.957   3.895   7.725  0.2022 -0.6874 -0.2915
   13SAPS  H20R 1678   5.871   3.954   7.762  1.1345  0.7242 -0.2875
   13SAPS  H20S 1679   6.049   3.939   7.769 -0.5755 -0.0705  0.7687
   13SAPS  H20T 1680   5.946   3.793   7.768  0.2176 -0.8392 -0.6484
   13SAPS   C33 1681   5.556   5.266   6.699  0.2538  0.0844 -0.3291
   13SAPS   H3X 1682   5.524   5.352   6.762  2.4603  0.6053  0.1954
   13SAPS   H3Y 1683   5.646   5.305   6.645  0.8369  1.5781  1.5798
   13SAPS   C34 1684   5.613   5.158   6.796 -1.1639 -0.2440  0.1721
   13SAPS   H4X 1685   5.716   5.185   6.825 -0.3503 -2.7450 -0.1360
   13SAPS   H4Y 1686   5.625   5.065   6.735  2.1644  0.8595 -1.0596
   13SAPS   C35 1687   5.537   5.143   6.928 -0.2394 -0.1818  0.6303
   13SAPS   H5X 1688   5.454   5.078   6.893 -0.0467  0.1871 -0.5554
   13SAPS   H5Y 1689   5.491   5.243   6.938 -1.2143 -0.6242  0.6792
   13SAPS   C36 1690   5.598   5.078   7.053  0.1414 -0.1936 -0.5829
   13SAPS   H6X 1691   5.667   5.149   7.103 -1.8915  0.8759  0.8685
   13SAPS   H6Y 1692   5.677   5.010   7.015  1.2854  1.4283 -1.2378
   13SAPS   C37 1693   5.491   5.009   7.147 -0.1317  0.3353  0.5125
   13SAPS   H7X 1694   5.441   4.927   7.091  0.1878 -1.6509  2.9880
   13SAPS   H7Y 1695   5.406   5.075   7.173  0.2766  1.4563 -0.8687
   13SAPS   C38 1696   5.561   4.978   7.277  0.1141  0.9102 -0.0319
   13SAPS   H8X 1697   5.489   4.944   7.355  0.2726  1.0315  0.1675
   13SAPS   H8Y 1698   5.600   5.072   7.322  0.7553  0.6002  0.0621
   13SAPS   C39 1699   5.678   4.877   7.270 -0.1371 -0.7527  0.0044
   13SAPS   H9X 1700   5.758   4.928   7.212 -2.2802  1.4260 -1.1873
   13SAPS   H9Y 1701   5.645   4.789   7.210 -3.4667 -0.2513  0.9456
   13SAPS  C310 1702   5.743   4.845   7.408 -0.3834  1.0328 -0.9438
   13SAPS  H10X 1703   5.663   4.816   7.480 -0.6907  3.3060 -0.2892
   13SAPS  H10Y 1704   5.795   4.932   7.454  1.2941  0.0604 -0.9343
   13SAPS  C311 1705   5.826   4.720   7.393 -0.4570  0.2231  0.3952
   13SAPS  H11X 1706   5.916   4.739   7.331 -0.8167  1.3895  0.2092
   13SAPS  H11Y 1707   5.777   4.638   7.336 -1.0056  1.2548 -0.6484
   13SAPS  C312 1708   5.866   4.658   7.526  0.2116  0.0298  0.5703
   13SAPS  H12X 1709   5.784   4.615   7.588  2.7190 -1.9482  2.7842
   13SAPS  H12Y 1710   5.915   4.735   7.589  0.8707  0.8250 -0.8645
   13SAPS  C313 1711   5.959   4.531   7.528  0.9063  0.0395  0.6380
   13SAPS  H13X 1712   6.028   4.534   7.441 -1.6975  1.5333 -1.5381
   13SAPS  H13Y 1713   5.901   4.436   7.514  0.0736  0.5631  0.4478
   13SAPS  C314 1714   6.027   4.515   7.663 -0.0047 -0.2900 -0.0431
   13SAPS  H14X 1715   5.948   4.527   7.741 -0.6301 -1.7541 -0.4116
   13SAPS  H14Y 1716   6.111   4.588   7.666  0.6954 -0.8843 -2.4503
   13SAPS  C315 1717   6.094   4.379   7.697  0.1056 -1.1562  0.2819
   13SAPS  H15X 1718   6.014   4.306   7.722  0.8416 -2.7473 -1.6480
   13SAPS  H15Y 1719   6.148   4.397   7.792 -0.7185  4.2192  0.0520
   13SAPS  C316 1720   6.182   4.336   7.587 -0.3028  0.3670  0.1497
   13SAPS  H16X 1721   6.269   4.404   7.581  0.0524  0.2950  2.9830
   13SAPS  H16Y 1722   6.131   4.329   7.489 -0.2366 -0.7333  0.1815
   13SAPS  C317 1723   6.238   4.200   7.627 -0.0315  0.4302 -0.2778
   13SAPS  H17X 1724   6.163   4.118   7.635 -1.0533  1.1911 -1.6393
   13SAPS  H17Y 1725   6.264   4.211   7.735  1.3372  0.0207 -0.5503
   13SAPS  C318 1726   6.360   4.163   7.547 -0.1735 -0.0494 -0.0785
   13SAPS  H18X 1727   6.418   4.088   7.605 -3.1771 -1.5529  1.1597
   13SAPS  H18Y 1728   6.424   4.253   7.528  0.8185 -0.6715  0.2135
   13SAPS  H18Z 1729   6.329   4.112   7.453  1.0924  1.7375 -1.5536
   14SAPS     N 1730   4.672   0.174   6.394 -0.7052  0.8139  0.1361
   14SAPS   HN1 1731   4.737   0.150   6.316 -1.4708 -0.3818 -0.1581
   14SAPS   HN2 1732   4.730   0.177   6.480  1.9752 -1.7519 -1.4138
   14SAPS   HN3 1733   4.602   0.097   6.398  1.0153 -0.7552  2.1517
   14SAPS   C12 1734   4.616   0.307   6.369  0.2174  0.2229  0.2651
   14SAPS  H12A 1735   4.550   0.333   6.450 -1.6217 -0.9316 -0.8151
   14SAPS   C13 1736   4.730   0.416   6.371  0.0221  0.1847  0.4963
   14SAPS  O13A 1737   4.847   0.395   6.407 -0.7866 -0.1225  0.5419
   14SAPS  O13B 1738   4.683   0.535   6.359  0.1881  0.0234 -0.1657
   14SAPS   C11 1739   4.538   0.311   6.232 -0.4076 -0.0589 -0.5263
   14SAPS  H11A 1740   4.618   0.302   6.155  0.0065  0.2013 -0.1341
   14SAPS  H11B 1741   4.492   0.412   6.225 -1.0231 -0.2966 -0.0021
   14SAPS     P 1742   4.325   0.193   6.139 -0.0043 -0.8302  0.2968
   14SAPS   O13 1743   4.350   0.249   6.004 -0.8004 -1.0718 -0.1631
   14SAPS   O14 1744   4.275   0.055   6.136  0.2569  0.0620  0.4535
   14SAPS   O12 1745   4.449   0.198   6.224 -0.6580  0.3323 -1.0638
   14SAPS   O11 1746   4.228   0.290   6.225  0.1746  0.3121 -0.0834
   14SAPS    C1 1747   4.219   0.278   6.369  0.7096  0.2218 -0.5881
   14SAPS    HA 1748   4.316   0.248   6.413  1.1716  0.3900 -1.4668
   14SAPS    HB 1749   4.177   0.368   6.420  0.7331  0.5673 -1.1743
   14SAPS    C2 1750   4.123   0.162   6.409 -0.2870 -0.0321  0.7378
   14SAPS    HS 1751   4.056   0.145   6.322 -1.8002 -1.6071  2.1235
   14SAPS   O21 1752   4.034   0.210   6.520 -0.0836 -0.6999  0.4154
   14SAPS   C21 1753   3.925   0.146   6.543 -0.0485  0.4874  0.8309
   14SAPS   O22 1754   3.863   0.067   6.474 -0.1437 -0.6253 -0.5491
   14SAPS   C22 1755   3.874   0.176   6.682  0.8050 -0.7387 -0.3126
   14SAPS   H2R 1756   3.888   0.283   6.708 -1.6432  0.1261 -2.2038
   14SAPS   H2S 1757   3.763   0.174   6.676  0.6805  0.7443  0.7336
   14SAPS    C3 1758   4.186   0.023   6.450 -0.5394  0.2676 -0.3295
   14SAPS    HX 1759   4.255   0.003   6.366  0.8168  2.1997  0.2690
   14SAPS    HY 1760   4.100  -0.048   6.451 -0.7350  0.4850 -1.4803
   14SAPS   O31 1761   4.261   0.030   6.573 -0.0041 -0.0649  0.0173
   14SAPS   C31 1762   4.389   0.018   6.580  0.2413 -0.1163 -0.2404
   14SAPS   O32 1763   4.465   0.019   6.483 -0.0676 -0.1624 -0.0913
   14SAPS   C32 1764   4.445   0.025   6.723  0.6981  0.1994  0.0274
   14SAPS   H2X 1765   4.551   0.004   6.696  0.6929  1.5942 -1.1376
   14SAPS   H2Y 1766   4.404  -0.058   6.785 -1.5572 -0.7554 -2.5686
   14SAPS   C23 1767   3.921   0.078   6.797  0.5491 -0.0121 -0.7546
   14SAPS   H3R 1768   3.902  -0.024   6.757 -4.6602  0.2913  0.2864
   14SAPS   H3S 1769   3.848   0.084   6.881 -0.4668 -0.0303 -1.6214
   14SAPS   C24 1770   4.056   0.107   6.854 -0.7711  0.1038  0.2618
   14SAPS   H4R 1771   4.134   0.098   6.775  2.4319 -0.1760  3.2133
   14SAPS   H4S 1772   4.072   0.029   6.931 -1.3667 -0.6673 -0.3832
   14SAPS   C25 1773   4.072   0.253   6.900 -0.0462 -0.0004 -0.2655
   14SAPS   H5R 1774   4.068   0.334   6.824  0.7692  2.5368  2.2221
   14SAPS   C26 1775   4.113   0.282   7.025  0.0915 -0.8323  0.5681
   14SAPS   H6R 1776   4.132   0.386   7.054  1.5444 -1.1813  0.9690
   14SAPS   C27 1777   4.142   0.187   7.135  0.2382 -0.4356  0.4215
   14SAPS   H7R 1778   4.238   0.217   7.182  0.8099 -2.6585  0.8092
   14SAPS   H7S 1779   4.187   0.093   7.095 -1.9363 -0.7024 -1.6081
   14SAPS   C28 1780   4.034   0.165   7.232 -0.5017  0.7422 -0.1865
   14SAPS   H8R 1781   3.934   0.169   7.188 -0.3850 -1.9097 -0.8411
   14SAPS   C29 1782   4.058   0.136   7.361  0.0487 -0.0505 -0.0315
   14SAPS   H9R 1783   3.971   0.103   7.419  0.1668 -2.4051 -1.0644
   14SAPS  C210 1784   4.189   0.122   7.439  0.1976 -0.1770  0.0796
   14SAPS  H10R 1785   4.272   0.105   7.368  0.1527 -0.6094  0.1272
   14SAPS  H10S 1786   4.180   0.032   7.503 -0.8165  0.8472  1.4319
   14SAPS  C211 1787   4.224   0.245   7.505  0.1732 -0.3710 -0.4809
   14SAPS  H11R 1788   4.187   0.335   7.452  0.0638 -0.3613 -0.3883
   14SAPS  C212 1789   4.263   0.258   7.629  0.4574 -0.9866 -0.2368
   14SAPS  H12R 1790   4.302   0.356   7.660 -0.8459 -0.2298 -0.9048
   14SAPS  C213 1791   4.290   0.143   7.726 -0.0367 -0.0075 -0.5062
   14SAPS  H13R 1792   4.236   0.049   7.701  2.7028 -2.5022  2.1070
   14SAPS  H13S 1793   4.246   0.169   7.824 -1.9727  1.0700 -1.6046
   14SAPS  C214 1794   4.437   0.116   7.731  0.0769 -0.1810 -0.3032
   14SAPS  H14R 1795   4.496   0.125   7.638 -0.9521 -0.9499 -1.0519
   14SAPS  C215 1796   4.497   0.059   7.839  0.1595 -0.0441  0.2443
   14SAPS  H15R 1797   4.604   0.042   7.823 -0.4068 -4.2258 -0.2123
   14SAPS  C216 1798   4.445   0.009   7.968 -0.0582  0.2586 -0.2816
   14SAPS  H16R 1799   4.439  -0.102   7.972  1.2683  0.1496 -0.8026
   14SAPS  H16S 1800   4.350   0.060   7.992 -0.7920 -1.0204 -0.3686
   14SAPS  C217 1801   4.548   0.038   8.073  0.1641 -0.0775 -0.1258
   14SAPS  H17R 1802   4.579   0.145   8.074  3.1139 -0.7985 -1.5738
   14SAPS  H17S 1803   4.644  -0.012   8.046 -0.0173 -0.6405  0.2441
   14SAPS  C218 1804   4.519  -0.011   8.214  0.6247  0.1941 -0.7589
   14SAPS  H18R 1805   4.503  -0.121   8.219 -1.1290  0.3354 -2.3810
   14SAPS  H18S 1806   4.434   0.040   8.263  1.0725 -1.6430  2.1935
   14SAPS  C219 1807   4.626   0.016   8.323 -0.5277 -0.6732  0.3408
   14SAPS  H19R 1808   4.652   0.124   8.330 -0.4216 -0.3971 -2.9651
   14SAPS  H19S 1809   4.721  -0.032   8.293  1.0167  1.5594  1.3560
   14SAPS  C220 1810   4.584  -0.044   8.452  0.2400 -0.2306 -0.4288
   14SAPS  H20R 1811   4.600  -0.154   8.458  1.5240 -0.0786 -0.7737
   14SAPS  H20S 1812   4.481  -0.018   8.484  0.2234  0.3223 -0.9129
   14SAPS  H20T 1813   4.638  -0.003   8.541  0.0353  2.1990 -1.3540
   14SAPS   C33 1814   4.433   0.162   6.788 -1.0923  0.7271 -0.3593
   14SAPS   H3X 1815   4.327   0.190   6.772 -1.7515 -1.0418  0.6892
   14SAPS   H3Y 1816   4.497   0.236   6.734 -2.2623  2.3189  0.3630
   14SAPS   C34 1817   4.465   0.152   6.937  0.2517 -0.2225 -0.2790
   14SAPS   H4X 1818   4.386   0.114   7.005  1.6682 -0.8771  1.0649
   14SAPS   H4Y 1819   4.489   0.257   6.966 -1.4404 -0.1266  0.9580
   14SAPS   C35 1820   4.589   0.066   6.963  0.1898  0.0666 -0.0223
   14SAPS   H5X 1821   4.672   0.095   6.896 -1.1646  2.4751 -0.7649
   14SAPS   H5Y 1822   4.567  -0.042   6.946 -1.3264  0.2056  0.8696
   14SAPS   C36 1823   4.640   0.087   7.108 -0.0968 -0.0607  0.2352
   14SAPS   H6X 1824   4.659   0.195   7.125 -2.4525 -0.0225  3.7284
   14SAPS   H6Y 1825   4.736   0.032   7.120  0.0777  0.2303  0.1894
   14SAPS   C37 1826   4.545   0.051   7.221 -0.9069  0.3061 -0.7496
   14SAPS   H7X 1827   4.447   0.097   7.194 -1.7296 -0.0245  1.4192
   14SAPS   H7Y 1828   4.572   0.095   7.320 -0.7876  0.8277 -1.0143
   14SAPS   C38 1829   4.534  -0.099   7.250 -0.4689 -0.3324  0.4406
   14SAPS   H8X 1830   4.628  -0.153   7.228 -1.7327 -1.8927 -1.4427
   14SAPS   H8Y 1831   4.456  -0.146   7.187  0.8514 -1.6711 -0.2409
   14SAPS   C39 1832   4.498  -0.126   7.394  0.3668  0.2746 -0.0699
   14SAPS   H9X 1833   4.392  -0.099   7.412  0.6803  0.1554  2.1863
   14SAPS   H9Y 1834   4.552  -0.066   7.470  2.3089 -1.8357  0.3460
   14SAPS  C310 1835   4.519  -0.271   7.432  0.1036 -0.1901 -0.9743
   14SAPS  H10X 1836   4.597  -0.324   7.374  1.6373  2.0033 -0.9976
   14SAPS  H10Y 1837   4.422  -0.325   7.420 -0.5052  0.4383  0.6888
   14SAPS  C311 1838   4.545  -0.272   7.586 -0.1714  0.1941 -0.1412
   14SAPS  H11X 1839   4.455  -0.222   7.628  0.2049  0.4394  0.3928
   14SAPS  H11Y 1840   4.631  -0.211   7.620 -0.2264  1.8704 -2.7590
   14SAPS  C312 1841   4.539  -0.412   7.655  0.2692 -0.4132 -0.2353
   14SAPS  H12X 1842   4.619  -0.473   7.609 -0.2983  0.1545 -2.0868
   14SAPS  H12Y 1843   4.434  -0.439   7.631 -2.1471  3.0116  4.6268
   14SAPS  C313 1844   4.549  -0.409   7.807 -0.3695 -0.3065  0.5147
   14SAPS  H13X 1845   4.461  -0.348   7.839  0.2651  1.3657 -0.7924
   14SAPS  H13Y 1846   4.637  -0.345   7.832 -0.8037  0.5150  0.0061
   14SAPS  C314 1847   4.566  -0.547   7.870 -0.3060 -0.3241 -0.5711
   14SAPS  H14X 1848   4.645  -0.610   7.825 -1.3683 -1.0397 -1.4783
   14SAPS  H14Y 1849   4.474  -0.606   7.856 -1.9056  1.1282  2.7198
   14SAPS  C315 1850   4.596  -0.532   8.024  0.2338 -0.0422 -0.0925
   14SAPS  H15X 1851   4.702  -0.506   8.042 -0.0653  1.6452 -0.5710
   14SAPS  H15Y 1852   4.579  -0.630   8.074 -0.5733  0.3745  0.4751
   14SAPS  C316 1853   4.509  -0.434   8.096  0.4071  0.1126 -0.2884
   14SAPS  H16X 1854   4.400  -0.454   8.088 -0.1673  1.8994  2.0894
   14SAPS  H16Y 1855   4.508  -0.331   8.052 -0.6606 -0.0857 -0.7617
   14SAPS  C317 1856   4.538  -0.441   8.243 -0.1381 -0.3691 -0.0901
   14SAPS  H17X 1857   4.514  -0.542   8.284 -1.4613 -0.0730 -0.1079
   14SAPS  H17Y 1858   4.466  -0.373   8.292  2.8600  1.0149  2.7578
   14SAPS  C318 1859   4.672  -0.389   8.289 -0.8157  0.6256  0.2976
   14SAPS  H18X 1860   4.705  -0.394   8.395 -0.7203 -1.0690  0.2221
   14SAPS  H18Y 1861   4.677  -0.284   8.254 -1.3424  0.3835 -0.5517
   14SAPS  H18Z 1862   4.749  -0.446   8.232 -0.8215  0.8820  0.0332
   15SAPS     N 1863   3.554   0.611   6.068 -0.1129 -0.1750  0.3752
   15SAPS   HN1 1864   3.472   0.548   6.078 -0.1164 -0.2581 -0.1260
   15SAPS   HN2 1865   3.555   0.678   6.147  1.2440 -0.1893  0.4013
   15SAPS   HN3 1866   3.541   0.663   5.979  2.1489 -0.2195 -0.0412
   15SAPS   C12 1867   3.672   0.526   6.057  0.5242  0.3729 -0.1086
   15SAPS  H12A 1868   3.659   0.469   5.966  0.8971  0.0035  0.0675
   15SAPS   C13 1869   3.804   0.604   6.039  0.2381  0.6866 -0.3586
   15SAPS  O13A 1870   3.799   0.733   6.045 -0.1243  0.0243  0.5258
   15SAPS  O13B 1871   3.910   0.539   6.014 -0.3855  0.3341 -0.1576
   15SAPS   C11 1872   3.671   0.422   6.168  0.2948 -0.3592  0.3369
   15SAPS  H11A 1873   3.628   0.452   6.266  0.4736 -1.8844  0.9235
   15SAPS  H11B 1874   3.777   0.406   6.196  0.5725  0.1613 -0.4046
   15SAPS     P 1875   3.468   0.271   6.168 -0.0311  0.5644  0.3462
   15SAPS   O13 1876   3.386   0.385   6.122  0.3130  0.4175 -0.1562
   15SAPS   O14 1877   3.429   0.138   6.119  0.5925 -0.4534  0.4941
   15SAPS   O12 1878   3.615   0.300   6.130 -0.3122 -0.3689  0.4081
   15SAPS   O11 1879   3.478   0.270   6.326 -0.5065 -0.2169  0.2244
   15SAPS    C1 1880   3.537   0.164   6.396  0.5543  0.2978  0.1627
   15SAPS    HA 1881   3.534   0.068   6.341  2.2700  0.7308 -0.7496
   15SAPS    HB 1882   3.643   0.191   6.415  0.9764 -1.9587  1.4575
   15SAPS    C2 1883   3.460   0.140   6.530 -0.1308 -0.1496 -0.5416
   15SAPS    HS 1884   3.353   0.129   6.499 -1.1143 -2.0533  3.0334
   15SAPS   O21 1885   3.477   0.251   6.627  0.6298 -1.1981  0.4863
   15SAPS   C21 1886   3.375   0.275   6.716  0.0668 -0.6084 -0.2489
   15SAPS   O22 1887   3.276   0.202   6.724  0.5891 -0.1805  0.3595
   15SAPS   C22 1888   3.387   0.403   6.801 -0.4876  0.7977  0.5661
   15SAPS   H2R 1889   3.325   0.486   6.763  3.1556  3.1683 -0.7332
   15SAPS   H2S 1890   3.348   0.370   6.899  1.9955  0.8730  1.6613
   15SAPS    C3 1891   3.514   0.010   6.582 -0.2776 -0.5132 -0.2055
   15SAPS    HX 1892   3.625   0.016   6.579 -0.3012 -0.0822 -0.3205
   15SAPS    HY 1893   3.498  -0.080   6.518  0.3700 -0.6724 -0.1509
   15SAPS   O31 1894   3.481  -0.020   6.720  0.6028 -0.2011  0.6545
   15SAPS   C31 1895   3.386  -0.116   6.735 -0.1365 -0.5590 -0.1016
   15SAPS   O32 1896   3.322  -0.178   6.652 -0.0338 -0.5483 -0.2995
   15SAPS   C32 1897   3.365  -0.130   6.879  0.4864 -0.4773 -0.7310
   15SAPS   H2X 1898   3.355  -0.037   6.939  0.5604 -2.1590  2.0642
   15SAPS   H2Y 1899   3.445  -0.190   6.927  0.2364 -0.1567  0.1048
   15SAPS   C23 1900   3.529   0.442   6.825 -0.3281 -0.3063 -0.3892
   15SAPS   H3R 1901   3.539   0.553   6.823  0.6550 -0.3353  1.4725
   15SAPS   H3S 1902   3.606   0.411   6.751  1.1395  1.9447  0.1079
   15SAPS   C24 1903   3.588   0.386   6.963  1.3271 -0.4411  0.1194
   15SAPS   H4R 1904   3.582   0.275   6.954 -2.9052 -0.3902 -0.0131
   15SAPS   H4S 1905   3.509   0.409   7.037  0.3849 -0.7772 -0.7489
   15SAPS   C25 1906   3.728   0.433   6.998 -0.2385  0.5163 -0.0148
   15SAPS   H5R 1907   3.791   0.467   6.914  0.4249 -0.2206  0.1733
   15SAPS   C26 1908   3.773   0.436   7.122 -0.4910  0.1794 -1.0640
   15SAPS   H6R 1909   3.871   0.478   7.149 -0.8130  1.0156 -1.1895
   15SAPS   C27 1910   3.691   0.390   7.244 -0.4529  0.2484  0.1359
   15SAPS   H7R 1911   3.619   0.309   7.220  2.2483 -2.2536 -0.1927
   15SAPS   H7S 1912   3.627   0.478   7.265 -2.7293 -1.0491 -0.9317
   15SAPS   C28 1913   3.778   0.352   7.361 -0.0220  0.9414 -0.2258
   15SAPS   H8R 1914   3.887   0.366   7.352  0.5883 -2.9449 -0.7278
   15SAPS   C29 1915   3.730   0.286   7.470 -0.1543 -0.6366  0.2014
   15SAPS   H9R 1916   3.815   0.272   7.538 -0.2322 -0.4623  0.3344
   15SAPS  C210 1917   3.590   0.242   7.492  0.6819 -0.3260  0.5426
   15SAPS  H10R 1918   3.586   0.132   7.481  1.9745 -0.4578  1.2538
   15SAPS  H10S 1919   3.513   0.285   7.424 -1.2230 -0.7183  2.3296
   15SAPS  C211 1920   3.534   0.306   7.621 -0.9246 -0.2522  0.1811
   15SAPS  H11R 1921   3.521   0.415   7.614  2.6451  0.3338  0.7646
   15SAPS  C212 1922   3.516   0.232   7.737 -0.6808  0.4394  0.1799
   15SAPS  H12R 1923   3.486   0.277   7.833 -0.5463  1.0689 -0.0709
   15SAPS  C213 1924   3.551   0.081   7.750  0.4970 -0.2932 -0.4567
   15SAPS  H13R 1925   3.480   0.019   7.691 -0.9509  0.4685  0.4068
   15SAPS  H13S 1926   3.534   0.057   7.857  0.1297  0.6259 -0.2957
   15SAPS  C214 1927   3.698   0.049   7.724 -0.3723  0.8770 -0.2109
   15SAPS  H14R 1928   3.779   0.113   7.758 -0.3389  1.7408 -1.8143
   15SAPS  C215 1929   3.741  -0.064   7.659 -0.3067  0.4461 -1.2746
   15SAPS  H15R 1930   3.850  -0.079   7.662 -0.4032 -0.4781  2.3633
   15SAPS  C216 1931   3.663  -0.179   7.603 -0.3001  0.9113  0.1940
   15SAPS  H16R 1932   3.566  -0.200   7.652  0.4615 -1.8607  0.7070
   15SAPS  H16S 1933   3.714  -0.277   7.617 -2.8373 -0.3116  1.4556
   15SAPS  C217 1934   3.636  -0.168   7.455 -0.0327 -0.7310  0.6128
   15SAPS  H17R 1935   3.588  -0.072   7.427  2.0375 -0.4052 -2.2275
   15SAPS  H17S 1936   3.566  -0.244   7.415 -2.5158  0.6555  2.0880
   15SAPS  C218 1937   3.766  -0.162   7.368  0.3086  0.7794 -0.0762
   15SAPS  H18R 1938   3.827  -0.254   7.383  1.7301  1.8185  0.9015
   15SAPS  H18S 1939   3.820  -0.079   7.420  1.6495 -1.2721  1.9908
   15SAPS  C219 1940   3.746  -0.133   7.220  0.3345 -0.3945 -0.8911
   15SAPS  H19R 1941   3.843  -0.122   7.167  0.8000 -1.2645 -0.2412
   15SAPS  H19S 1942   3.692  -0.036   7.218 -0.5912 -0.8035  1.4119
   15SAPS  C220 1943   3.651  -0.222   7.144 -0.2548 -0.2934 -0.0720
   15SAPS  H20R 1944   3.646  -0.182   7.040  2.2571  0.0799 -0.0966
   15SAPS  H20S 1945   3.549  -0.240   7.186 -0.6558 -0.1351 -0.9544
   15SAPS  H20T 1946   3.701  -0.321   7.148  2.2804  0.9422  1.7116
   15SAPS   C33 1947   3.233  -0.217   6.914 -0.0895  0.1791 -0.3334
   15SAPS   H3X 1948   3.245  -0.314   6.863  3.6369  0.3311 -0.0011
   15SAPS   H3Y 1949   3.139  -0.167   6.883  0.4318  1.6793  0.3894
   15SAPS   C34 1950   3.220  -0.245   7.069 -0.1650  0.1912 -0.3964
   15SAPS   H4X 1951   3.310  -0.295   7.109  0.5951  1.1738 -0.8188
   15SAPS   H4Y 1952   3.125  -0.299   7.085 -0.1287  0.0608 -0.6114
   15SAPS   C35 1953   3.206  -0.114   7.159  0.4518  0.1655  0.1240
   15SAPS   H5X 1954   3.105  -0.068   7.152 -1.5395 -3.6776  0.9253
   15SAPS   H5Y 1955   3.283  -0.042   7.123 -0.8156  0.9768 -1.0525
   15SAPS   C36 1956   3.250  -0.128   7.310  0.2870 -0.5151 -0.3903
   15SAPS   H6X 1957   3.239  -0.031   7.362 -3.3754 -0.7552 -0.4427
   15SAPS   H6Y 1958   3.356  -0.159   7.312 -0.1591 -2.4748 -2.3549
   15SAPS   C37 1959   3.183  -0.236   7.398  0.3180  0.1663 -0.2948
   15SAPS   H7X 1960   3.191  -0.344   7.377 -1.5380  0.2214 -1.4950
   15SAPS   H7Y 1961   3.074  -0.215   7.397  0.3939  0.5784 -1.4846
   15SAPS   C38 1962   3.238  -0.221   7.539  0.4560 -0.6175  0.2508
   15SAPS   H8X 1963   3.237  -0.114   7.566 -1.1748 -0.7509  0.8251
   15SAPS   H8Y 1964   3.343  -0.258   7.535  0.1878 -1.2744 -1.4483
   15SAPS   C39 1965   3.157  -0.301   7.632 -0.1521 -0.0559 -0.2804
   15SAPS   H9X 1966   3.167  -0.406   7.597  0.4913  0.3812 -1.4661
   15SAPS   H9Y 1967   3.048  -0.282   7.618  0.1942  2.8299  0.2104
   15SAPS  C310 1968   3.187  -0.293   7.782 -0.3588  0.3486  0.2535
   15SAPS  H10X 1969   3.174  -0.190   7.822  0.0748  0.2897  0.5509
   15SAPS  H10Y 1970   3.292  -0.326   7.797 -0.8905 -1.1291  0.9276
   15SAPS  C311 1971   3.094  -0.390   7.860 -0.0411 -0.9020  0.0885
   15SAPS  H11X 1972   3.137  -0.488   7.829  1.1341 -0.2457 -0.4396
   15SAPS  H11Y 1973   2.986  -0.389   7.834 -0.6194 -1.3439  2.2752
   15SAPS  C312 1974   3.109  -0.385   8.015 -0.1211  0.2807 -0.4999
   15SAPS  H12X 1975   3.062  -0.293   8.055  0.6209 -0.3721  2.0280
   15SAPS  H12Y 1976   3.218  -0.378   8.038  0.0170  2.7830 -1.4909
   15SAPS  C313 1977   3.062  -0.515   8.085  0.6287 -0.5952 -0.3298
   15SAPS  H13X 1978   3.146  -0.588   8.089 -0.2668 -1.6728 -0.4566
   15SAPS  H13Y 1979   2.967  -0.545   8.036 -0.1146 -0.9810  1.2474
   15SAPS  C314 1980   3.020  -0.495   8.229 -0.6309  0.5575 -0.6842
   15SAPS  H14X 1981   2.968  -0.589   8.256 -1.1366  0.7987 -0.8169
   15SAPS  H14Y 1982   2.950  -0.409   8.231 -1.5177 -0.1410  1.6102
   15SAPS  C315 1983   3.130  -0.474   8.338 -0.1275 -0.4100 -0.1468
   15SAPS  H15X 1984   3.190  -0.389   8.300  1.0120 -0.4469  1.4396
   15SAPS  H15Y 1985   3.202  -0.559   8.333  3.0454  2.0748 -0.1091
   15SAPS  C316 1986   3.081  -0.462   8.477 -0.3029  0.2765 -0.1661
   15SAPS  H16X 1987   3.169  -0.461   8.545  0.1635 -0.3431 -0.7498
   15SAPS  H16Y 1988   3.014  -0.543   8.513 -0.8646  1.4388  1.5218
   15SAPS  C317 1989   3.002  -0.329   8.493 -0.4612  0.0045 -0.8984
   15SAPS  H17X 1990   2.916  -0.345   8.425 -2.2475 -0.3951  1.3238
   15SAPS  H17Y 1991   3.061  -0.245   8.450 -0.4792 -0.6913 -2.3046
   15SAPS  C318 1992   2.960  -0.306   8.641 -0.5004 -0.1353 -0.0814
   15SAPS  H18X 1993   3.043  -0.335   8.709  0.9098  0.4872 -1.4844
   15SAPS  H18Y 1994   2.882  -0.376   8.677  1.1822 -2.7816 -1.3103
   15SAPS  H18Z 1995   2.949  -0.196   8.651  2.2301  0.3320 -1.3221
   16SAPS     N 1996   6.313   2.167   6.318 -0.2415  0.2435  0.2363
   16SAPS   HN1 1997   6.369   2.079   6.311  0.7057  0.4175  3.6150
   16SAPS   HN2 1998   6.361   2.225   6.391  0.5050  0.4523 -0.4053
   16SAPS   HN3 1999   6.218   2.146   6.353  0.4458 -1.0563  1.4378
   16SAPS   C12 2000   6.309   2.253   6.193 -0.3155  0.5496 -0.6708
   16SAPS  H12A 2001   6.374   2.338   6.211  2.3746 -0.8166 -3.1500
   16SAPS   C13 2002   6.379   2.183   6.073  0.5120 -0.0262 -0.1931
   16SAPS  O13A 2003   6.397   2.061   6.076  0.1453  0.4240  0.1391
   16SAPS  O13B 2004   6.433   2.263   5.987 -0.0700 -0.6971 -0.5852
   16SAPS   C11 2005   6.159   2.294   6.160 -0.1029 -0.4811  0.2089
   16SAPS  H11A 2006   6.105   2.199   6.141 -2.1873  0.7501 -0.4577
   16SAPS  H11B 2007   6.149   2.365   6.074 -2.5052  1.3128  1.8216
   16SAPS     P 2008   5.981   2.308   6.362 -0.1228  0.0965 -0.2091
   16SAPS   O13 2009   5.958   2.420   6.454  0.4447 -0.7177  0.2250
   16SAPS   O14 2010   5.868   2.271   6.273 -0.2090 -0.2007 -0.3519
   16SAPS   O12 2011   6.100   2.360   6.273 -0.2574  0.0591  0.0838
   16SAPS   O11 2012   6.056   2.194   6.432 -0.0099 -0.0001  0.2138
   16SAPS    C1 2013   5.969   2.109   6.516  0.9796  0.2967  0.5478
   16SAPS    HA 2014   5.862   2.103   6.489  1.4132 -2.2142 -0.8585
   16SAPS    HB 2015   6.005   2.005   6.501 -2.1410 -0.6487 -1.1706
   16SAPS    C2 2016   5.984   2.133   6.668  0.1587  0.7215 -0.7150
   16SAPS    HS 2017   5.934   2.047   6.716  0.2956 -0.5131 -2.6861
   16SAPS   O21 2018   5.924   2.258   6.706 -0.0383  0.1077  0.0726
   16SAPS   C21 2019   5.791   2.254   6.718  0.0981  0.6372 -0.0578
   16SAPS   O22 2020   5.723   2.151   6.689  0.0283 -0.3328 -0.3779
   16SAPS   C22 2021   5.741   2.384   6.780  0.6544 -0.9356  0.2114
   16SAPS   H2R 2022   5.800   2.466   6.732  0.9122 -1.8333 -1.0693
   16SAPS   H2S 2023   5.633   2.389   6.756  0.4067 -1.2748  1.2360
   16SAPS    C3 2024   6.128   2.138   6.711 -0.0569 -0.3970  0.3795
   16SAPS    HX 2025   6.163   2.235   6.668 -0.5696 -1.4627 -2.6867
   16SAPS    HY 2026   6.193   2.060   6.666 -0.1254 -0.2333 -0.0100
   16SAPS   O31 2027   6.131   2.124   6.854 -0.0804 -0.0920 -0.1906
   16SAPS   C31 2028   6.143   2.230   6.925 -0.4548  0.0499 -0.1836
   16SAPS   O32 2029   6.144   2.346   6.884  0.3117 -0.3888 -0.1545
   16SAPS   C32 2030   6.156   2.180   7.069 -0.1318  0.1314 -0.2234
   16SAPS   H2X 2031   6.246   2.116   7.062 -0.3226 -0.0753 -0.7651
   16SAPS   H2Y 2032   6.068   2.121   7.101  0.6430 -0.5357  0.7188
   16SAPS   C23 2033   5.763   2.390   6.931 -1.0429  0.2546 -0.1487
   16SAPS   H3R 2034   5.742   2.495   6.961  0.8599  0.5505  0.2992
   16SAPS   H3S 2035   5.869   2.371   6.957 -1.4012 -0.7198  0.6763
   16SAPS   C24 2036   5.662   2.316   7.017 -0.4780  0.8498 -0.3130
   16SAPS   H4R 2037   5.563   2.317   6.966 -0.8943 -1.4077  0.3761
   16SAPS   H4S 2038   5.664   2.366   7.116 -0.8267  0.4943 -0.1261
   16SAPS   C25 2039   5.704   2.173   7.037 -0.4408  0.4984  0.3720
   16SAPS   H5R 2040   5.697   2.103   6.952  4.8625  0.4432 -0.3824
   16SAPS   C26 2041   5.751   2.116   7.148 -0.1455 -0.0460 -0.3422
   16SAPS   H6R 2042   5.768   2.008   7.137  1.9089  0.0780  1.1801
   16SAPS   C27 2043   5.769   2.175   7.287  0.0520 -0.1628 -0.1247
   16SAPS   H7R 2044   5.801   2.092   7.353 -1.8747 -1.1901 -0.3948
   16SAPS   H7S 2045   5.674   2.218   7.325  2.3021  1.9342  3.7320
   16SAPS   C28 2046   5.856   2.303   7.301 -0.5815  0.1115 -0.5803
   16SAPS   H8R 2047   5.863   2.378   7.221  0.0623  0.1013 -0.5443
   16SAPS   C29 2048   5.926   2.335   7.415 -0.5651 -0.5798  0.8101
   16SAPS   H9R 2049   5.985   2.428   7.411 -1.4122 -0.0488  0.3751
   16SAPS  C210 2050   5.937   2.242   7.534  0.3238  0.6786  0.3019
   16SAPS  H10R 2051   5.841   2.186   7.541  0.7164  0.1437  1.6433
   16SAPS  H10S 2052   5.932   2.314   7.618 -0.6880 -0.8443  1.5838
   16SAPS  C211 2053   6.065   2.156   7.541  0.4278 -1.1721 -0.5086
   16SAPS  H11R 2054   6.069   2.081   7.461 -0.9179 -1.4437 -0.3424
   16SAPS  C212 2055   6.168   2.164   7.629 -0.1103  0.1854  0.1244
   16SAPS  H12R 2056   6.249   2.090   7.622  1.2922  1.3723  2.6269
   16SAPS  C213 2057   6.171   2.258   7.748 -0.1928 -0.1591  0.3273
   16SAPS  H13R 2058   6.125   2.358   7.731 -1.3448 -0.8188 -0.5805
   16SAPS  H13S 2059   6.280   2.272   7.764  0.1549 -0.4339 -1.6200
   16SAPS  C214 2060   6.099   2.212   7.871  0.1494 -0.6105  0.5533
   16SAPS  H14R 2061   6.049   2.114   7.872 -1.9669  0.4303  1.0787
   16SAPS  C215 2062   6.078   2.296   7.978 -0.5075  0.0600  0.7358
   16SAPS  H15R 2063   6.011   2.265   8.060 -2.3138  0.0746 -0.6668
   16SAPS  C216 2064   6.132   2.440   7.985 -0.2150  0.6679 -0.7834
   16SAPS  H16R 2065   6.206   2.471   7.907  0.4538  0.9335 -0.0583
   16SAPS  H16S 2066   6.187   2.456   8.080  1.5192  0.7862 -1.7486
   16SAPS  C217 2067   6.018   2.543   7.993  0.2202 -0.5631 -0.1189
   16SAPS  H17R 2068   6.050   2.649   8.003 -1.2193  0.0141 -1.3034
   16SAPS  H17S 2069   5.954   2.518   8.080  1.7151 -2.6779  0.4602
   16SAPS  C218 2070   5.937   2.555   7.870  0.4391  0.2625  0.2388
   16SAPS  H18R 2071   5.888   2.460   7.840  0.7818 -0.1897  1.0848
   16SAPS  H18S 2072   5.999   2.593   7.786  0.4231 -2.1338 -0.9430
   16SAPS  C219 2073   5.807   2.632   7.887  0.1299 -0.2514 -0.4760
   16SAPS  H19R 2074   5.824   2.740   7.911 -1.7249  0.2639 -1.2545
   16SAPS  H19S 2075   5.759   2.590   7.978  3.5215 -0.7288  1.2196
   16SAPS  C220 2076   5.695   2.633   7.779  0.6077 -0.1063 -0.1394
   16SAPS  H20R 2077   5.666   2.529   7.753 -0.2326  0.2556 -0.6942
   16SAPS  H20S 2078   5.740   2.680   7.689 -1.8900  0.7550 -1.0229
   16SAPS  H20T 2079   5.610   2.696   7.813  1.9116  1.6555 -0.0166
   16SAPS   C33 2080   6.173   2.301   7.165  0.2062  0.0677 -0.3271
   16SAPS   H3X 2081   6.140   2.255   7.261  0.5695  0.4594 -0.0090
   16SAPS   H3Y 2082   6.103   2.383   7.139  0.7598 -0.0157 -2.2047
   16SAPS   C34 2083   6.311   2.354   7.186  0.5537 -0.9481 -0.7442
   16SAPS   H4X 2084   6.361   2.388   7.093  1.2560  1.8949  0.5611
   16SAPS   H4Y 2085   6.369   2.268   7.228 -1.6929 -1.5258  1.4631
   16SAPS   C35 2086   6.324   2.475   7.280  0.1060 -0.0614  0.3522
   16SAPS   H5X 2087   6.260   2.455   7.369 -0.3061 -0.9624 -0.1278
   16SAPS   H5Y 2088   6.272   2.558   7.226 -0.6763 -0.3190  0.6918
   16SAPS   C36 2089   6.470   2.501   7.308 -0.0816 -0.1150 -0.3326
   16SAPS   H6X 2090   6.523   2.525   7.213 -0.9568  2.0043 -0.3531
   16SAPS   H6Y 2091   6.507   2.410   7.359 -1.6447 -1.2489 -1.1576
   16SAPS   C37 2092   6.500   2.612   7.413  0.3903 -0.3516 -0.9971
   16SAPS   H7X 2093   6.449   2.706   7.386  2.7929  0.7550 -1.9839
   16SAPS   H7Y 2094   6.610   2.627   7.419  0.1332  1.0651  0.8230
   16SAPS   C38 2095   6.462   2.563   7.546  0.0445 -0.4464 -0.2660
   16SAPS   H8X 2096   6.530   2.479   7.574  0.3030 -0.8483 -1.9647
   16SAPS   H8Y 2097   6.357   2.530   7.531 -0.6422  1.6771 -0.4815
   16SAPS   C39 2098   6.481   2.667   7.659 -0.2978  0.0434 -0.0521
   16SAPS   H9X 2099   6.432   2.762   7.628 -0.3207  1.0163  2.6492
   16SAPS   H9Y 2100   6.590   2.686   7.665 -0.5455  1.1578  1.7891
   16SAPS  C310 2101   6.442   2.613   7.800 -0.3229 -0.5434  0.2227
   16SAPS  H10X 2102   6.487   2.520   7.841  1.1133 -0.0194 -0.0960
   16SAPS  H10Y 2103   6.331   2.606   7.804 -0.4590 -1.3636 -2.7418
   16SAPS  C311 2104   6.473   2.718   7.908  0.1867  0.6954  0.5029
   16SAPS  H11X 2105   6.427   2.817   7.890  0.2289  0.6213 -0.0253
   16SAPS  H11Y 2106   6.581   2.741   7.894  0.5406 -1.6155 -1.1709
   16SAPS  C312 2107   6.443   2.660   8.051 -0.2457  0.1588  0.4838
   16SAPS  H12X 2108   6.505   2.569   8.066  1.2149  0.8497 -1.1049
   16SAPS  H12Y 2109   6.332   2.654   8.059 -0.2386  1.0183  1.4125
   16SAPS  C313 2110   6.490   2.764   8.159  0.3155 -0.1411  0.1161
   16SAPS  H13X 2111   6.449   2.852   8.106 -2.1117 -1.3473 -0.1357
   16SAPS  H13Y 2112   6.601   2.769   8.167  0.1972  1.9121  1.1295
   16SAPS  C314 2113   6.413   2.752   8.295 -0.3488  0.3031 -0.5273
   16SAPS  H14X 2114   6.306   2.744   8.269 -0.2651  1.8394 -1.4057
   16SAPS  H14Y 2115   6.422   2.846   8.353 -1.4800 -0.2007  0.5265
   16SAPS  C315 2116   6.466   2.640   8.379  0.1719 -0.3120 -0.0327
   16SAPS  H15X 2117   6.575   2.660   8.384 -0.0466  0.7308  1.3559
   16SAPS  H15Y 2118   6.457   2.546   8.321  1.5668 -0.0552 -0.6948
   16SAPS  C316 2119   6.411   2.631   8.523  0.5727 -0.2036 -0.3534
   16SAPS  H16X 2120   6.374   2.733   8.547  1.7716  0.8103 -2.5725
   16SAPS  H16Y 2121   6.490   2.603   8.597  0.0457 -2.4627 -0.5737
   16SAPS  C317 2122   6.296   2.524   8.523 -0.0995 -0.0601 -0.3336
   16SAPS  H17X 2123   6.252   2.522   8.625  1.5499 -1.4809  0.3839
   16SAPS  H17Y 2124   6.352   2.430   8.508 -1.1047 -0.7400  0.1094
   16SAPS  C318 2125   6.186   2.538   8.419  0.1358 -0.7883 -0.0629
   16SAPS  H18X 2126   6.227   2.509   8.320  0.7086 -0.5226  0.0934
   16SAPS  H18Y 2127   6.153   2.643   8.435  1.9084 -0.3100  0.7486
   16SAPS  H18Z 2128   6.105   2.467   8.446 -2.7402  2.4338  0.4986
   17SAPC     N 2129   3.402   3.340  10.941  0.8250  0.1344  0.3108
   17SAPC   C12 2130   3.386   3.357  10.794 -0.1014  0.5195 -0.3350
   17SAPC  H12A 2131   3.478   3.386  10.745  2.0151 -2.0377  1.8261
   17SAPC  H12B 2132   3.311   3.431  10.770 -0.7148  0.1820  0.5250
   17SAPC   C13 2133   3.440   3.467  11.011  0.1561 -1.1898 -0.2310
   17SAPC  H13A 2134   3.378   3.549  10.979  1.4700 -0.0891 -0.0485
   17SAPC  H13B 2135   3.441   3.451  11.118  1.6408 -1.4187 -0.2572
   17SAPC  H13C 2136   3.543   3.489  10.986 -0.7850  2.4269 -1.5267
   17SAPC   C14 2137   3.273   3.303  11.007  0.2341 -0.0781  0.4035
   17SAPC  H14A 2138   3.194   3.368  10.972 -0.0979  0.2831  1.7453
   17SAPC  H14B 2139   3.249   3.204  10.973  2.0850 -0.2394 -0.5569
   17SAPC  H14C 2140   3.275   3.288  11.114 -0.5244  0.8934  0.5751
   17SAPC   C15 2141   3.504   3.236  10.975 -0.5772  0.3291 -0.8088
   17SAPC  H15A 2142   3.518   3.238  11.082  1.4131  0.2818 -1.0177
   17SAPC  H15B 2143   3.485   3.134  10.947  2.4179 -1.1720  1.9408
   17SAPC  H15C 2144   3.605   3.251  10.938 -0.1380 -2.3719 -0.8537
   17SAPC   C11 2145   3.350   3.224  10.719  0.6904 -0.0240  0.2268
   17SAPC  H11A 2146   3.433   3.152  10.736 -0.2703 -0.9291  1.3689
   17SAPC  H11B 2147   3.348   3.237  10.609 -0.1076  0.1844  0.2572
   17SAPC     P 2148   3.098   3.230  10.701  0.1002  0.2367  0.2566
   17SAPC   O13 2149   2.985   3.154  10.758  0.0967 -0.1867  1.2761
   17SAPC   O14 2150   3.098   3.374  10.719 -0.1537  0.1770 -0.5828
   17SAPC   O12 2151   3.227   3.167  10.765  0.6509  0.3654 -0.4096
   17SAPC   O11 2152   3.119   3.192  10.548  0.0138  0.5751  0.1814
   17SAPC    C1 2153   3.154   3.050  10.528  0.4110  0.1512 -0.1110
   17SAPC    HA 2154   3.250   3.014  10.571 -0.8602  0.7556  3.5526
   17SAPC    HB 2155   3.069   2.985  10.557  1.2835 -1.7513 -1.5550
   17SAPC    C2 2156   3.145   3.015  10.375 -0.4248  0.6612  0.8245
   17SAPC    HS 2157   3.162   2.906  10.361 -0.8491  0.3209  2.6814
   17SAPC   O21 2158   3.246   3.079  10.299 -0.6239  0.2145 -0.2208
   17SAPC   C21 2159   3.375   3.055  10.331  0.2006 -0.0475 -0.3275
   17SAPC   O22 2160   3.424   2.984  10.417  0.8835  0.5331 -0.7881
   17SAPC   C22 2161   3.465   3.119  10.231 -0.4005  0.0453  0.6499
   17SAPC   H2R 2162   3.408   3.192  10.170  0.1477 -0.2491 -0.2362
   17SAPC   H2S 2163   3.559   3.166  10.267  0.8020 -1.5263 -0.2591
   17SAPC    C3 2164   2.997   3.053  10.319 -0.0639 -0.0398  0.4200
   17SAPC    HX 2165   2.994   3.163  10.333 -2.0444 -0.2742  2.2040
   17SAPC    HY 2166   2.917   3.001  10.376  0.9807  0.2104  2.1836
   17SAPC   O31 2167   2.984   3.015  10.185 -0.4721  0.5548 -0.1173
   17SAPC   C31 2168   2.900   3.083  10.108 -0.4240  0.4623 -0.3428
   17SAPC   O32 2169   2.820   3.167  10.147  0.0214  0.4875 -0.1828
   17SAPC   C32 2170   2.916   3.028   9.965  0.3097 -0.6305  0.5787
   17SAPC   H2X 2171   2.875   2.924   9.963  2.0133 -1.3079 -0.5908
   17SAPC   H2Y 2172   3.023   3.024   9.939 -0.2272 -0.6128 -1.9037
   17SAPC   C23 2173   3.523   3.017  10.128 -0.3439 -0.9100  0.5448
   17SAPC   H3R 2174   3.567   2.938  10.192  2.2240 -0.2585 -0.3263
   17SAPC   H3S 2175   3.606   3.058  10.066 -0.0101 -0.7108  1.1164
   17SAPC   C24 2176   3.408   2.974  10.036 -0.0696  0.0111 -0.2814
   17SAPC   H4R 2177   3.319   2.953  10.098 -0.6331 -0.4398 -1.2131
   17SAPC   H4S 2178   3.436   2.883   9.978  0.2586  1.7912 -3.0978
   17SAPC   C25 2179   3.376   3.078   9.931 -0.4606 -0.9456  0.6190
   17SAPC   H5R 2180   3.338   3.172   9.975 -0.9591 -1.1485  0.6339
   17SAPC   C26 2181   3.363   3.067   9.794  0.5082  0.1460 -0.1725
   17SAPC   H6R 2182   3.336   3.156   9.734 -1.3866  0.0986  0.5538
   17SAPC   C27 2183   3.387   2.948   9.710 -0.5399 -0.2490 -0.1426
   17SAPC   H7R 2184   3.415   2.859   9.770  1.9393 -0.3894 -1.3493
   17SAPC   H7S 2185   3.477   2.974   9.649 -0.2171 -1.6906 -0.3129
   17SAPC   C28 2186   3.276   2.915   9.614 -0.2479 -0.0567  0.1626
   17SAPC   H8R 2187   3.211   3.002   9.599  0.7711  0.5485 -0.8721
   17SAPC   C29 2188   3.258   2.802   9.543 -0.1627  0.4123 -0.3552
   17SAPC   H9R 2189   3.169   2.803   9.478 -0.7856  0.3288  0.4846
   17SAPC  C210 2190   3.345   2.671   9.547 -0.0505 -0.9525 -0.0086
   17SAPC  H10R 2191   3.439   2.713   9.591 -0.2840  0.4383 -0.7746
   17SAPC  H10S 2192   3.372   2.637   9.445 -1.7065 -0.1282 -0.7581
   17SAPC  C211 2193   3.290   2.563   9.632  0.4608  0.4413  0.5320
   17SAPC  H11R 2194   3.258   2.597   9.732  3.0820  0.9090  1.2794
   17SAPC  C212 2195   3.283   2.428   9.619  0.6028 -0.1342  0.3893
   17SAPC  H12R 2196   3.232   2.377   9.702  0.4876  0.0270  0.4183
   17SAPC  C213 2197   3.344   2.344   9.506 -0.2675  0.3009  0.0468
   17SAPC  H13R 2198   3.422   2.275   9.546  0.8488  0.2744 -2.0323
   17SAPC  H13S 2199   3.401   2.408   9.435  1.5946 -2.0945 -0.7747
   17SAPC  C214 2200   3.237   2.270   9.434  0.1724  0.4994  0.3761
   17SAPC  H14R 2201   3.200   2.175   9.476  0.0996  0.2323 -0.2861
   17SAPC  C215 2202   3.166   2.306   9.326 -0.5306 -0.3576  0.4454
   17SAPC  H15R 2203   3.097   2.239   9.272  0.1606  0.7638 -1.9251
   17SAPC  C216 2204   3.190   2.433   9.253  0.5856  0.1727  0.1342
   17SAPC  H16R 2205   3.260   2.502   9.305 -0.8521  1.0949  0.9304
   17SAPC  H16S 2206   3.096   2.482   9.220 -1.3143 -3.5574 -0.5959
   17SAPC  C217 2207   3.252   2.406   9.111  0.1396 -0.2804 -0.6713
   17SAPC  H17R 2208   3.172   2.354   9.054 -0.7107  1.0972 -0.7759
   17SAPC  H17S 2209   3.337   2.336   9.128 -0.2420 -0.9499 -1.4408
   17SAPC  C218 2210   3.292   2.532   9.037 -0.3899 -0.0126  0.1259
   17SAPC  H18R 2211   3.201   2.590   9.012 -1.0532 -0.5822  1.1410
   17SAPC  H18S 2212   3.340   2.498   8.943  1.0498  0.9041  0.5000
   17SAPC  C219 2213   3.386   2.628   9.104 -0.0913  0.1967 -0.2674
   17SAPC  H19R 2214   3.363   2.669   9.205  1.0164 -1.3587  0.6606
   17SAPC  H19S 2215   3.393   2.720   9.042  2.4964  0.3195  0.0793
   17SAPC  C220 2216   3.533   2.578   9.111  0.2115 -0.2776  0.1316
   17SAPC  H20R 2217   3.575   2.559   9.009  2.6693  1.2086  0.7597
   17SAPC  H20S 2218   3.546   2.487   9.172 -0.0512 -0.3196  0.1248
   17SAPC  H20T 2219   3.600   2.653   9.159  0.8975  0.5686 -2.0019
   17SAPC   C33 2220   2.856   3.111   9.856 -0.1546  0.0006  0.1716
   17SAPC   H3X 2221   2.906   3.210   9.862 -0.2888  0.2697 -2.1067
   17SAPC   H3Y 2222   2.749   3.137   9.875 -0.0848  0.5887 -0.1999
   17SAPC   C34 2223   2.876   3.060   9.712 -0.0485 -0.1902  0.4631
   17SAPC   H4X 2224   2.805   2.978   9.690 -0.9120  0.1052  2.0280
   17SAPC   H4Y 2225   2.979   3.032   9.679  0.1976  1.7633 -0.5535
   17SAPC   C35 2226   2.836   3.175   9.608 -0.7424 -0.4057 -0.0547
   17SAPC   H5X 2227   2.892   3.264   9.642 -2.3990  0.9929 -0.8620
   17SAPC   H5Y 2228   2.730   3.200   9.630  0.0117  1.6761  1.5590
   17SAPC   C36 2229   2.854   3.137   9.460 -0.0485  0.3954 -0.4287
   17SAPC   H6X 2230   2.797   3.043   9.445 -0.6384  0.9333 -1.7790
   17SAPC   H6Y 2231   2.955   3.095   9.443  0.5791  2.2776 -1.7019
   17SAPC   C37 2232   2.825   3.257   9.369 -0.3529  0.3690  0.1253
   17SAPC   H7X 2233   2.910   3.325   9.389  1.0256 -0.9329 -1.0697
   17SAPC   H7Y 2234   2.729   3.305   9.397  0.7607  2.4808  0.5110
   17SAPC   C38 2235   2.835   3.236   9.217 -0.0922 -0.2513 -0.0623
   17SAPC   H8X 2236   2.756   3.178   9.165 -0.8516  0.2922  0.4664
   17SAPC   H8Y 2237   2.934   3.189   9.197 -0.3603 -0.9318  0.1647
   17SAPC   C39 2238   2.859   3.367   9.133  0.4382 -0.3640  0.3189
   17SAPC   H9X 2239   2.958   3.409   9.161  0.0243 -0.0630  1.3901
   17SAPC   H9Y 2240   2.783   3.447   9.144  1.4514  0.7986 -0.9155
   17SAPC  C310 2241   2.872   3.333   8.989  0.4663  0.5518  0.2764
   17SAPC  H10X 2242   2.774   3.302   8.948  1.5420 -2.7665 -0.1295
   17SAPC  H10Y 2243   2.932   3.242   8.966 -1.3886 -0.8377  0.7395
   17SAPC  C311 2244   2.923   3.458   8.908 -0.0755  0.3372  0.2034
   17SAPC  H11X 2245   3.017   3.483   8.962  0.2743 -0.2741 -0.1120
   17SAPC  H11Y 2246   2.861   3.550   8.921  0.4161  0.3364  3.1618
   17SAPC  C312 2247   2.956   3.439   8.760  0.2578  0.3626  0.1222
   17SAPC  H12X 2248   3.003   3.527   8.710  0.4624 -0.4904 -1.2347
   17SAPC  H12Y 2249   2.854   3.423   8.718  0.2892  1.3669 -0.3818
   17SAPC  C313 2250   3.042   3.318   8.718  0.5381  0.6786 -0.7043
   17SAPC  H13X 2251   2.992   3.232   8.768 -1.7238  0.5823 -2.9182
   17SAPC  H13Y 2252   3.145   3.331   8.757 -0.1980  2.2860  0.8486
   17SAPC  C314 2253   3.042   3.280   8.563 -0.6501  0.5977 -0.4008
   17SAPC  H14X 2254   2.935   3.278   8.535 -0.0778  1.0666 -2.8187
   17SAPC  H14Y 2255   3.083   3.178   8.549  2.4933  1.3624  2.1435
   17SAPC  C315 2256   3.123   3.374   8.484  0.1675  0.2932 -0.5303
   17SAPC  H15X 2257   3.224   3.376   8.530 -0.8760 -1.9043  2.1028
   17SAPC  H15Y 2258   3.073   3.472   8.503  0.7658  0.3189  1.0578
   17SAPC  C316 2259   3.138   3.339   8.333 -0.0668 -0.0370 -0.4503
   17SAPC  H16X 2260   3.181   3.430   8.287  1.6414 -0.3765  0.3989
   17SAPC  H16Y 2261   3.034   3.317   8.301  0.6442 -1.7418 -1.7576
   17SAPC  C317 2262   3.222   3.208   8.306 -0.0173 -0.4600 -0.1504
   17SAPC  H17X 2263   3.171   3.121   8.353  1.7317 -0.1408  2.5984
   17SAPC  H17Y 2264   3.318   3.234   8.356 -1.0406  3.4699  0.1345
   17SAPC  C318 2265   3.250   3.182   8.153  0.0294  0.2164 -0.7097
   17SAPC  H18X 2266   3.242   3.072   8.142 -1.8121 -0.4871  4.5982
   17SAPC  H18Y 2267   3.174   3.236   8.092 -0.6012  1.0770  0.7645
   17SAPC  H18Z 2268   3.353   3.223   8.141 -0.3598  1.2162 -0.7396
   18SAPC     N 2269   3.835   2.663  10.794  0.5956  0.6965 -0.0801
   18SAPC   C12 2270   3.887   2.522  10.772 -0.7819  0.3533 -0.4138
   18SAPC  H12A 2271   3.813   2.459  10.724  0.3481 -1.6397  0.3210
   18SAPC  H12B 2272   3.884   2.469  10.866  0.5424  0.9495 -0.0174
   18SAPC   C13 2273   3.695   2.644  10.850  0.0347 -0.0240  0.3668
   18SAPC  H13A 2274   3.644   2.732  10.886  0.1781  0.8468 -1.4254
   18SAPC  H13B 2275   3.628   2.598  10.780  1.1627 -0.9776 -0.1212
   18SAPC  H13C 2276   3.699   2.576  10.933 -0.0108 -0.0722  0.3288
   18SAPC   C14 2277   3.923   2.744  10.890  0.3973  0.7679  0.0319
   18SAPC  H14A 2278   4.019   2.765  10.847  0.0718  1.7770 -0.2322
   18SAPC  H14B 2279   3.878   2.833  10.931 -3.9361 -0.9781 -0.3483
   18SAPC  H14C 2280   3.946   2.684  10.976 -0.6285 -0.8593 -0.7769
   18SAPC   C15 2281   3.817   2.737  10.664  0.2719 -0.6082  0.1082
   18SAPC  H15A 2282   3.741   2.695  10.600 -0.4195  1.1673 -0.2758
   18SAPC  H15B 2283   3.774   2.832  10.693  1.2900 -0.1784  0.2534
   18SAPC  H15C 2284   3.912   2.745  10.615 -0.4996 -1.5860 -1.6362
   18SAPC   C11 2285   4.034   2.513  10.719 -0.3702  0.1436  0.2066
   18SAPC  H11A 2286   4.059   2.405  10.713  1.1920  0.5071 -0.3320
   18SAPC  H11B 2287   4.110   2.554  10.789  0.6006 -1.0623 -0.0909
   18SAPC     P 2288   4.162   2.643  10.547  0.2915  0.0629 -0.8452
   18SAPC   O13 2289   4.165   2.758  10.638  0.3918 -0.3800 -0.8419
   18SAPC   O14 2290   4.283   2.559  10.541 -0.0302  0.1519  0.0017
   18SAPC   O12 2291   4.037   2.561  10.580 -0.0505 -0.0126 -0.2626
   18SAPC   O11 2292   4.130   2.694  10.397 -0.0690  0.0220 -0.5500
   18SAPC    C1 2293   4.169   2.612  10.288 -0.5347 -0.1147 -0.0562
   18SAPC    HA 2294   4.278   2.591  10.295 -0.6576 -0.4951  0.8671
   18SAPC    HB 2295   4.110   2.518  10.282  1.5250 -1.4577 -0.1075
   18SAPC    C2 2296   4.145   2.677  10.155 -0.2268  0.0456  0.0668
   18SAPC    HS 2297   4.178   2.783  10.165  2.6055 -0.8632  1.3509
   18SAPC   O21 2298   4.004   2.665  10.121 -0.1862 -0.2487  0.2603
   18SAPC   C21 2299   3.945   2.764  10.053 -0.5390 -0.8147  0.1916
   18SAPC   O22 2300   3.996   2.864  10.006  0.1167 -0.0363  0.1271
   18SAPC   C22 2301   3.796   2.740  10.046  0.1520 -0.0987 -0.0919
   18SAPC   H2R 2302   3.753   2.665  10.116 -0.1790 -0.7442 -0.9611
   18SAPC   H2S 2303   3.749   2.837  10.071 -1.5638 -0.1521 -2.7048
   18SAPC    C3 2304   4.234   2.613  10.045  0.0583  0.2397  0.5856
   18SAPC    HX 2305   4.188   2.512  10.035  0.0197  0.3120 -0.0241
   18SAPC    HY 2306   4.340   2.608  10.077  0.1989  2.9128  0.7949
   18SAPC   O31 2307   4.217   2.673   9.917 -0.3993 -0.2020 -0.1696
   18SAPC   C31 2308   4.288   2.785   9.903 -0.1437  0.0276 -0.8358
   18SAPC   O32 2309   4.366   2.830   9.987 -0.3399  0.0477 -0.6092
   18SAPC   C32 2310   4.253   2.847   9.771 -0.4110 -0.1437 -0.8705
   18SAPC   H2X 2311   4.296   2.949   9.764 -1.5264  0.3340 -0.9665
   18SAPC   H2Y 2312   4.142   2.848   9.769 -0.5254  3.3362  0.4209
   18SAPC   C23 2313   3.742   2.710   9.899 -0.2430  0.0708 -0.1854
   18SAPC   H3R 2314   3.741   2.814   9.860 -1.3395  0.2900  0.3793
   18SAPC   H3S 2315   3.636   2.689   9.923 -0.7585  0.6735 -1.8297
   18SAPC   C24 2316   3.812   2.610   9.814  0.1489  1.0394 -0.4307
   18SAPC   H4R 2317   3.821   2.516   9.872  2.5678 -0.7500 -3.3669
   18SAPC   H4S 2318   3.919   2.627   9.789  0.2576  0.1376 -0.6339
   18SAPC   C25 2319   3.718   2.598   9.693 -0.5889  0.1632 -0.4291
   18SAPC   H5R 2320   3.632   2.532   9.716 -0.7697  0.6648  0.4131
   18SAPC   C26 2321   3.728   2.671   9.584  0.4271  0.1578 -0.5393
   18SAPC   H6R 2322   3.665   2.633   9.503  0.1492  0.8378 -0.6476
   18SAPC   C27 2323   3.837   2.769   9.546  0.9784  0.1216 -0.0090
   18SAPC   H7R 2324   3.878   2.728   9.452  1.9039 -0.5286  0.6592
   18SAPC   H7S 2325   3.918   2.757   9.621  0.5688  0.5277  0.5183
   18SAPC   C28 2326   3.777   2.907   9.550  0.0742 -0.2923  0.2406
   18SAPC   H8R 2327   3.786   2.965   9.643  1.2683  1.2880 -0.7986
   18SAPC   C29 2328   3.739   2.975   9.441  0.7543  0.4067 -0.7689
   18SAPC   H9R 2329   3.686   3.071   9.454  1.1861  0.6405 -0.7044
   18SAPC  C210 2330   3.733   2.935   9.299  0.2980 -0.4962  0.1552
   18SAPC  H10R 2331   3.653   2.977   9.235  1.1955 -0.2405 -0.8406
   18SAPC  H10S 2332   3.711   2.827   9.287 -0.4433 -0.1430 -2.1111
   18SAPC  C211 2333   3.863   2.959   9.240 -0.0171  0.0511 -0.9020
   18SAPC  H11R 2334   3.951   2.973   9.304 -1.7045  0.1184  1.5515
   18SAPC  C212 2335   3.887   2.943   9.107 -0.1211 -0.1950 -0.7767
   18SAPC  H12R 2336   3.984   2.971   9.065 -0.5529  2.6728 -0.1009
   18SAPC  C213 2337   3.793   2.904   9.000 -0.8675  0.5370  0.4104
   18SAPC  H13R 2338   3.696   2.875   9.046 -0.8200 -0.1129  0.1106
   18SAPC  H13S 2339   3.828   2.807   8.958 -2.0243  0.8567 -1.3834
   18SAPC  C214 2340   3.766   3.007   8.894  0.1887  0.6059 -0.4023
   18SAPC  H14R 2341   3.849   3.079   8.882  0.5874  0.0577 -0.9845
   18SAPC  C215 2342   3.657   3.014   8.810  0.3618 -0.0099 -0.1956
   18SAPC  H15R 2343   3.638   3.099   8.742 -0.8783 -0.2623 -0.1884
   18SAPC  C216 2344   3.534   2.924   8.796  0.8227 -0.1793  0.0559
   18SAPC  H16R 2345   3.445   2.990   8.794  2.0103  1.5231  1.0590
   18SAPC  H16S 2346   3.513   2.865   8.888  0.5561  0.8420  0.6683
   18SAPC  C217 2347   3.549   2.821   8.688  0.3135 -0.4872  0.8363
   18SAPC  H17R 2348   3.489   2.732   8.717  0.8358 -1.1821 -0.1845
   18SAPC  H17S 2349   3.650   2.777   8.676  0.3019 -0.1538 -0.6358
   18SAPC  C218 2350   3.500   2.864   8.546  0.2273  0.7955  1.0873
   18SAPC  H18R 2351   3.587   2.917   8.501 -1.8595  3.3163 -0.2206
   18SAPC  H18S 2352   3.418   2.936   8.566  0.5339  1.1577  1.0396
   18SAPC  C219 2353   3.450   2.750   8.455 -0.0565  0.4823  0.0397
   18SAPC  H19R 2354   3.381   2.678   8.504  0.2422 -0.1909 -0.5253
   18SAPC  H19S 2355   3.538   2.700   8.412  0.6005  1.8911 -0.3074
   18SAPC  C220 2356   3.368   2.810   8.338  0.0812 -0.1579  0.4138
   18SAPC  H20R 2357   3.326   2.722   8.285  0.4185  0.8419 -1.5696
   18SAPC  H20S 2358   3.426   2.861   8.259 -3.2168  3.0373 -0.2029
   18SAPC  H20T 2359   3.285   2.877   8.367  0.6983  1.1474 -0.7552
   18SAPC   C33 2360   4.310   2.775   9.640  0.5691 -0.6385 -0.9176
   18SAPC   H3X 2361   4.262   2.675   9.636 -2.3931  0.3660  3.0827
   18SAPC   H3Y 2362   4.421   2.766   9.650  0.4020 -0.2386  2.4052
   18SAPC   C34 2363   4.266   2.850   9.512  0.3750  0.7851 -0.3750
   18SAPC   H4X 2364   4.287   2.958   9.523 -2.4161  1.4129 -0.5833
   18SAPC   H4Y 2365   4.159   2.837   9.486  0.4166  0.8061 -0.5564
   18SAPC   C35 2366   4.341   2.793   9.391 -0.7525  0.2134 -0.8221
   18SAPC   H5X 2367   4.305   2.689   9.375 -2.4058  0.2482  2.0875
   18SAPC   H5Y 2368   4.451   2.782   9.406 -1.0074 -1.2869  0.0928
   18SAPC   C36 2369   4.311   2.874   9.263 -0.5344 -0.2566 -0.3405
   18SAPC   H6X 2370   4.371   2.967   9.272  0.8124 -1.2878  2.0862
   18SAPC   H6Y 2371   4.203   2.902   9.263 -0.4955 -0.0767 -1.0887
   18SAPC   C37 2372   4.348   2.805   9.129  0.2664 -0.2635  0.3682
   18SAPC   H7X 2373   4.321   2.698   9.115  2.4266 -0.9215  0.7723
   18SAPC   H7Y 2374   4.458   2.811   9.113  0.3475  1.6528  1.4030
   18SAPC   C38 2375   4.290   2.881   9.004  0.0351 -1.0804 -0.2665
   18SAPC   H8X 2376   4.351   2.969   8.973 -0.3229 -1.0050 -0.7731
   18SAPC   H8Y 2377   4.188   2.919   9.027  1.2491  1.9094  0.6747
   18SAPC   C39 2378   4.281   2.802   8.873  0.4977 -0.6490  0.1126
   18SAPC   H9X 2379   4.223   2.711   8.897  1.1933 -1.2317 -0.3701
   18SAPC   H9Y 2380   4.383   2.766   8.847  0.2363 -0.9953 -0.4400
   18SAPC  C310 2381   4.216   2.887   8.756  0.4487 -0.3722  0.1825
   18SAPC  H10X 2382   4.289   2.969   8.740 -0.3342  0.6417  1.6248
   18SAPC  H10Y 2383   4.121   2.924   8.799 -0.4894 -1.7116 -0.6622
   18SAPC  C311 2384   4.187   2.797   8.634 -0.1310  0.2632 -0.6192
   18SAPC  H11X 2385   4.117   2.721   8.675  0.5738  1.8823  4.2085
   18SAPC  H11Y 2386   4.281   2.744   8.608 -0.2077 -0.9951  1.4779
   18SAPC  C312 2387   4.132   2.876   8.515  0.1663 -0.1374  0.5574
   18SAPC  H12X 2388   4.207   2.954   8.489 -1.5063  0.9671 -1.2776
   18SAPC  H12Y 2389   4.033   2.922   8.536 -0.7592  0.2733 -3.7134
   18SAPC  C313 2390   4.105   2.786   8.394 -1.0750  0.6263  0.2900
   18SAPC  H13X 2391   4.181   2.710   8.364 -0.9793  1.4240 -1.6720
   18SAPC  H13Y 2392   4.094   2.849   8.303  2.3375  1.2667  0.1823
   18SAPC  C314 2393   3.977   2.701   8.412 -0.2176  0.3150 -0.0989
   18SAPC  H14X 2394   3.896   2.746   8.475 -0.6625  0.0336 -0.4612
   18SAPC  H14Y 2395   4.013   2.601   8.443 -0.3551 -0.7838 -3.1694
   18SAPC  C315 2396   3.910   2.688   8.273 -0.1951 -0.2521  0.4859
   18SAPC  H15X 2397   3.991   2.650   8.208  1.0223  0.3748  1.5970
   18SAPC  H15Y 2398   3.875   2.789   8.242 -0.8959 -0.5590  0.2561
   18SAPC  C316 2399   3.779   2.599   8.276 -0.2925 -0.2250 -0.0873
   18SAPC  H16X 2400   3.707   2.654   8.340  1.1192 -1.1500  2.4177
   18SAPC  H16Y 2401   3.805   2.502   8.324 -0.3372 -0.6202 -0.8384
   18SAPC  C317 2402   3.728   2.585   8.135  0.4795  0.8806  0.0579
   18SAPC  H17X 2403   3.795   2.521   8.074 -2.0946 -2.3087  0.2609
   18SAPC  H17Y 2404   3.722   2.691   8.101  2.3163  0.4728 -1.7524
   18SAPC  C318 2405   3.599   2.502   8.125  0.1372  0.0156 -0.2486
   18SAPC  H18X 2406   3.561   2.484   8.022  0.7506 -1.1799 -0.2871
   18SAPC  H18Y 2407   3.522   2.541   8.195  0.8148 -0.9981  1.1103
   18SAPC  H18Z 2408   3.627   2.399   8.155  0.7547  0.6747  1.5515
   19SAPC     N 2409   5.912   4.747  11.072 -0.0898 -0.4823 -0.3265
   19SAPC   C12 2410   5.955   4.784  10.928  0.1832  0.0864  0.5474
   19SAPC  H12A 2411   6.030   4.861  10.925  1.7344 -1.3551  1.0976
   19SAPC  H12B 2412   5.868   4.813  10.871 -0.2023 -0.9383  0.5915
   19SAPC   C13 2413   5.840   4.863  11.140  0.3168  0.4996 -0.5147
   19SAPC  H13A 2414   5.812   4.836  11.241 -1.2449 -0.0524 -1.0652
   19SAPC  H13B 2415   5.893   4.957  11.144 -2.2898  2.2262 -2.9540
   19SAPC  H13C 2416   5.744   4.878  11.093 -0.9103 -0.3814  1.6004
   19SAPC   C14 2417   5.821   4.628  11.071 -0.3323  0.3200 -0.3766
   19SAPC  H14A 2418   5.817   4.560  11.155 -0.8235 -1.5777 -1.8753
   19SAPC  H14B 2419   5.718   4.660  11.070 -0.5242 -0.1976  0.8444
   19SAPC  H14C 2420   5.855   4.573  10.985  1.1832 -0.5094  0.6902
   19SAPC   C15 2421   6.036   4.713  11.149 -0.4721  0.0851  0.2752
   19SAPC  H15A 2422   6.015   4.727  11.254 -0.2729  0.9971  0.1921
   19SAPC  H15B 2423   6.075   4.613  11.134 -0.2635  0.0785  0.8353
   19SAPC  H15C 2424   6.115   4.783  11.129  0.4718 -0.8587  0.6240
   19SAPC   C11 2425   6.003   4.669  10.829 -0.1333 -0.3723 -0.3395
   19SAPC  H11A 2426   6.089   4.610  10.867 -0.3283 -1.4383 -1.4905
   19SAPC  H11B 2427   6.031   4.717  10.733  1.3999 -2.5777 -1.0865
   19SAPC     P 2428   5.874   4.515  10.665  0.0897 -0.2778  0.1522
   19SAPC   O13 2429   5.991   4.449  10.612 -0.2639  0.3916 -0.0844
   19SAPC   O14 2430   5.757   4.431  10.665  0.0993 -0.5688  0.3517
   19SAPC   O12 2431   5.890   4.577  10.805  0.3169 -0.5663 -0.1531
   19SAPC   O11 2432   5.843   4.656  10.591 -0.2913  0.2722 -0.1070
   19SAPC    C1 2433   5.721   4.729  10.602 -0.5204  0.9108  0.4886
   19SAPC    HA 2434   5.638   4.656  10.594 -0.4278  0.6587  1.6848
   19SAPC    HB 2435   5.710   4.765  10.706 -0.6172  1.4530  0.2979
   19SAPC    C2 2436   5.723   4.848  10.493 -1.0724 -0.0112 -0.1842
   19SAPC    HS 2437   5.635   4.915  10.506  1.0187  2.7146  1.0392
   19SAPC   O21 2438   5.742   4.798  10.360 -0.4556 -0.1812 -0.2187
   19SAPC   C21 2439   5.643   4.726  10.321  0.3973 -0.0369 -0.0066
   19SAPC   O22 2440   5.532   4.712  10.374  0.5264 -0.0796  0.9370
   19SAPC   C22 2441   5.671   4.663  10.180 -0.5161 -0.1717  1.0782
   19SAPC   H2R 2442   5.761   4.599  10.193  0.4464  1.1602  1.2204
   19SAPC   H2S 2443   5.584   4.600  10.156 -0.3361 -0.5769  1.4813
   19SAPC    C3 2444   5.844   4.953  10.515  0.5773  0.2710 -0.3972
   19SAPC    HX 2445   5.938   4.894  10.514  0.0944 -0.5878  1.5373
   19SAPC    HY 2446   5.831   5.009  10.610 -0.4472  0.2854 -0.5389
   19SAPC   O31 2447   5.852   5.057  10.409 -0.9781 -0.4224  0.5831
   19SAPC   C31 2448   5.937   5.157  10.429 -0.1143  0.5840 -0.1027
   19SAPC   O32 2449   6.007   5.175  10.527 -0.0076  0.5597  0.0273
   19SAPC   C32 2450   5.930   5.250  10.305  0.1273 -0.8142 -0.9180
   19SAPC   H2X 2451   5.959   5.351  10.341  0.8922 -1.6231  0.8482
   19SAPC   H2Y 2452   5.821   5.262  10.291  0.0208 -1.4868 -0.6780
   19SAPC   C23 2453   5.676   4.775  10.070 -0.0498 -0.0194  0.1418
   19SAPC   H3R 2454   5.760   4.846  10.088  2.2987 -2.2696 -1.2047
   19SAPC   H3S 2455   5.573   4.814  10.073  0.6230  1.7760  2.0657
   19SAPC   C24 2456   5.715   4.724   9.923 -0.7632  0.6427 -0.2639
   19SAPC   H4R 2457   5.622   4.680   9.881  0.5217 -2.9656  0.3020
   19SAPC   H4S 2458   5.795   4.652   9.950 -0.7962  1.5136  2.4576
   19SAPC   C25 2459   5.788   4.828   9.835 -0.0458  0.2107 -0.7576
   19SAPC   H5R 2460   5.886   4.861   9.873 -0.9852  0.6486  1.4316
   19SAPC   C26 2461   5.753   4.859   9.709 -0.3793 -0.2030  0.0444
   19SAPC   H6R 2462   5.821   4.926   9.654 -0.8933 -1.4133 -2.1799
   19SAPC   C27 2463   5.643   4.808   9.624  0.2272  0.2193  0.2233
   19SAPC   H7R 2464   5.615   4.887   9.551 -0.5413 -0.2977 -0.0511
   19SAPC   H7S 2465   5.553   4.788   9.686  0.6548  0.8433  1.0757
   19SAPC   C28 2466   5.678   4.679   9.559  0.0542  0.3137 -0.8573
   19SAPC   H8R 2467   5.701   4.604   9.636 -0.8001  1.2822  0.3903
   19SAPC   C29 2468   5.716   4.648   9.434 -0.9602 -0.1754 -0.2695
   19SAPC   H9R 2469   5.719   4.543   9.401  1.0385 -0.2840  0.1224
   19SAPC  C210 2470   5.730   4.761   9.332 -0.6027 -0.0915  0.2205
   19SAPC  H10R 2471   5.656   4.842   9.351 -0.2249 -0.0398  1.5868
   19SAPC  H10S 2472   5.680   4.718   9.243 -3.0080  1.4476  0.7202
   19SAPC  C211 2473   5.869   4.825   9.311 -0.5261 -0.3382 -0.5573
   19SAPC  H11R 2474   5.913   4.868   9.402 -1.0249 -2.9949  1.0463
   19SAPC  C212 2475   5.930   4.846   9.195  0.1610 -0.2194  0.7353
   19SAPC  H12R 2476   6.029   4.894   9.200 -0.5530  1.3566  0.1674
   19SAPC  C213 2477   5.885   4.807   9.058 -0.2137  0.1351  1.1851
   19SAPC  H13R 2478   5.850   4.703   9.078 -0.9194  0.2276  0.4932
   19SAPC  H13S 2479   5.974   4.817   8.993  0.2722 -3.0266  1.2164
   19SAPC  C214 2480   5.759   4.880   9.005  0.2875  0.2717 -0.5978
   19SAPC  H14R 2481   5.686   4.909   9.082 -0.6655 -1.1688 -0.9188
   19SAPC  C215 2482   5.733   4.907   8.877  0.1326 -0.1839 -0.3219
   19SAPC  H15R 2483   5.639   4.960   8.853 -0.4193 -1.4002 -0.9331
   19SAPC  C216 2484   5.818   4.856   8.761  0.3499 -0.0674  0.1930
   19SAPC  H16R 2485   5.882   4.768   8.784  1.2897  0.4947 -0.2313
   19SAPC  H16S 2486   5.888   4.938   8.735 -0.1766 -0.2747 -2.0606
   19SAPC  C217 2487   5.734   4.817   8.631 -0.4380  0.2647  0.2042
   19SAPC  H17R 2488   5.684   4.718   8.644  0.4783 -0.0777  1.3090
   19SAPC  H17S 2489   5.804   4.822   8.545 -2.5904 -0.2036 -1.6727
   19SAPC  C218 2490   5.626   4.919   8.601  0.6903 -0.6422 -0.1128
   19SAPC  H18R 2491   5.674   5.018   8.618  0.8630 -0.6065 -0.7716
   19SAPC  H18S 2492   5.542   4.915   8.674 -0.8518  1.5578 -1.6121
   19SAPC  C219 2493   5.571   4.907   8.456 -0.3995  0.2020  0.0392
   19SAPC  H19R 2494   5.506   4.818   8.444 -0.0126  0.2469 -3.4532
   19SAPC  H19S 2495   5.651   4.893   8.381 -1.7046 -2.1128 -1.0141
   19SAPC  C220 2496   5.495   5.036   8.416  0.8966 -0.4829  0.0523
   19SAPC  H20R 2497   5.408   5.065   8.479  1.3419 -0.9270  0.8791
   19SAPC  H20S 2498   5.448   5.024   8.316 -1.9356 -0.4590  1.2807
   19SAPC  H20T 2499   5.564   5.121   8.400  0.2885 -0.2849 -1.7185
   19SAPC   C33 2500   5.999   5.205  10.176 -0.2992  0.0354 -0.1634
   19SAPC   H3X 2501   5.934   5.124  10.136 -0.6190 -0.0053  0.4246
   19SAPC   H3Y 2502   6.099   5.167  10.206 -0.6448  1.4000  3.1386
   19SAPC   C34 2503   6.015   5.305  10.065  0.6262 -0.0754 -0.4846
   19SAPC   H4X 2504   6.103   5.372  10.081  0.6452  0.2918 -1.9658
   19SAPC   H4Y 2505   5.918   5.359  10.060 -0.5039 -1.7934  1.3727
   19SAPC   C35 2506   6.027   5.235   9.924 -0.4801  0.3610  0.6498
   19SAPC   H5X 2507   5.947   5.161   9.903  1.1460 -0.9511 -1.2469
   19SAPC   H5Y 2508   6.121   5.175   9.917 -2.8177 -3.5323 -0.4780
   19SAPC   C36 2509   6.024   5.338   9.807  0.0663 -0.1873 -0.3329
   19SAPC   H6X 2510   6.089   5.426   9.827 -0.5043 -0.0637  1.1175
   19SAPC   H6Y 2511   5.918   5.364   9.785 -0.3624 -2.6486 -1.4166
   19SAPC   C37 2512   6.068   5.257   9.686  0.1848 -0.7784 -0.1566
   19SAPC   H7X 2513   6.011   5.162   9.683  1.6780 -1.7576  1.0958
   19SAPC   H7Y 2514   6.175   5.229   9.695  1.2514  2.8177 -0.1934
   19SAPC   C38 2515   6.062   5.346   9.553 -1.0152  0.1867  0.4124
   19SAPC   H8X 2516   6.151   5.412   9.552  1.4610 -2.8431 -1.7632
   19SAPC   H8Y 2517   5.974   5.413   9.551 -0.1678  1.3386  0.8238
   19SAPC   C39 2518   6.070   5.256   9.422  0.0380  0.1389 -0.9584
   19SAPC   H9X 2519   5.978   5.195   9.434  1.1238 -1.1433  1.8615
   19SAPC   H9Y 2520   6.147   5.177   9.431  0.0917  0.2189 -0.6979
   19SAPC  C310 2521   6.101   5.326   9.293 -0.1329 -0.4800 -0.1071
   19SAPC  H10X 2522   6.183   5.401   9.303 -0.2080  0.0619 -2.8001
   19SAPC  H10Y 2523   6.017   5.392   9.261  0.6397  0.6260  0.0799
   19SAPC  C311 2524   6.138   5.228   9.185  0.3285  0.4907 -0.8215
   19SAPC  H11X 2525   6.061   5.148   9.190  1.5989 -0.8213 -1.7664
   19SAPC  H11Y 2526   6.242   5.193   9.201  0.7206  2.5384  1.7918
   19SAPC  C312 2527   6.128   5.292   9.048 -0.4984  0.4106 -0.3273
   19SAPC  H12X 2528   6.208   5.369   9.052 -0.1765  0.1015 -0.8185
   19SAPC  H12Y 2529   6.030   5.344   9.045  0.6522  3.0856  2.6849
   19SAPC  C313 2530   6.132   5.192   8.932 -0.4003  0.2861  0.2260
   19SAPC  H13X 2531   6.041   5.129   8.928 -2.8497  3.5997 -0.5896
   19SAPC  H13Y 2532   6.223   5.130   8.945 -0.0265  0.8825  0.5021
   19SAPC  C314 2533   6.146   5.259   8.797 -0.0295 -0.2383  0.7071
   19SAPC  H14X 2534   6.254   5.285   8.785  0.8808 -3.5826  0.5123
   19SAPC  H14Y 2535   6.084   5.349   8.814  2.0556  0.8881  3.1678
   19SAPC  C315 2536   6.095   5.176   8.678 -0.0327  0.1389  0.4517
   19SAPC  H15X 2537   5.998   5.127   8.703  0.8665 -1.3325  1.1828
   19SAPC  H15Y 2538   6.164   5.089   8.674  0.6231  0.7153 -2.1962
   19SAPC  C316 2539   6.086   5.248   8.544 -0.6290 -0.8298  0.2653
   19SAPC  H16X 2540   6.190   5.279   8.520 -1.1770  0.6348 -0.3378
   19SAPC  H16Y 2541   6.018   5.335   8.545 -0.6438 -0.8247  1.9211
   19SAPC  C317 2542   6.052   5.156   8.421  0.1209  0.0700  0.0883
   19SAPC  H17X 2543   6.120   5.068   8.428  1.8678  1.4428  1.0202
   19SAPC  H17Y 2544   6.089   5.218   8.336  1.5011  0.9052  1.2563
   19SAPC  C318 2545   5.909   5.112   8.405 -0.1351 -0.1808  0.3332
   19SAPC  H18X 2546   5.882   5.035   8.480 -0.9134 -0.7738 -0.5307
   19SAPC  H18Y 2547   5.896   5.060   8.307 -0.5960 -2.1591  1.3840
   19SAPC  H18Z 2548   5.837   5.197   8.409  0.3585  0.2267  0.5430
   20SAPC     N 2549   3.952   6.252  11.212 -0.2414  0.0268 -0.8079
   20SAPC   C12 2550   3.925   6.398  11.176  0.0613  0.1915  0.5756
   20SAPC  H12A 2551   3.998   6.461  11.224  1.9988 -1.8501  0.5213
   20SAPC  H12B 2552   3.825   6.421  11.209 -0.1768 -0.7176  0.5382
   20SAPC   C13 2553   4.083   6.211  11.141 -0.0848 -0.0744 -0.4231
   20SAPC  H13A 2554   4.077   6.221  11.034 -0.3106 -0.2499 -0.4270
   20SAPC  H13B 2555   4.169   6.259  11.187 -0.7995 -1.6577  2.9215
   20SAPC  H13C 2556   4.109   6.108  11.163 -1.1482 -0.4022 -0.6487
   20SAPC   C14 2557   3.966   6.237  11.356 -0.2315  0.9241 -0.5362
   20SAPC  H14A 2558   4.053   6.292  11.388 -1.0237  0.7866  2.1018
   20SAPC  H14B 2559   3.876   6.259  11.412 -0.3478 -0.4082 -0.1500
   20SAPC  H14C 2560   3.988   6.134  11.383 -1.1420  1.0272  0.7096
   20SAPC   C15 2561   3.838   6.168  11.169  0.8170  0.2633 -0.1314
   20SAPC  H15A 2562   3.868   6.064  11.171  1.8143  0.5446  0.0004
   20SAPC  H15B 2563   3.745   6.182  11.222  0.5652  4.1083 -1.3020
   20SAPC  H15C 2564   3.813   6.175  11.064 -0.0128  3.1443  0.1810
   20SAPC   C11 2565   3.928   6.435  11.023  0.2911 -0.3537  0.0251
   20SAPC  H11A 2566   4.033   6.436  10.987  0.2111  1.6534 -0.2350
   20SAPC  H11B 2567   3.894   6.540  11.024  0.6914 -0.1966 -1.2603
   20SAPC     P 2568   3.688   6.384  10.931  0.1512  0.1388 -0.1688
   20SAPC   O13 2569   3.614   6.273  10.879  0.2741 -0.0381 -0.2343
   20SAPC   O14 2570   3.644   6.429  11.060  0.2212 -0.4961 -0.6342
   20SAPC   O12 2571   3.842   6.365  10.930  0.0175 -0.2248 -0.1262
   20SAPC   O11 2572   3.653   6.503  10.828 -0.6967 -0.6444  0.0990
   20SAPC    C1 2573   3.743   6.603  10.772  0.0432 -0.1845 -0.0365
   20SAPC    HA 2574   3.682   6.694  10.755 -0.7695 -1.1551 -2.9239
   20SAPC    HB 2575   3.826   6.627  10.841  2.8627 -3.9883 -1.7445
   20SAPC    C2 2576   3.785   6.572  10.631 -0.6317 -0.3312  0.9578
   20SAPC    HS 2577   3.858   6.649  10.599 -1.8689 -0.2395 -1.9801
   20SAPC   O21 2578   3.671   6.584  10.549  0.7777 -0.1385  0.3179
   20SAPC   C21 2579   3.701   6.619  10.424 -0.5298 -0.3002 -0.1775
   20SAPC   O22 2580   3.811   6.626  10.375  0.6036 -0.4588  0.5875
   20SAPC   C22 2581   3.581   6.643  10.336 -0.0350 -0.2073 -0.1564
   20SAPC   H2R 2582   3.543   6.544  10.304  2.5337 -0.8771 -1.4420
   20SAPC   H2S 2583   3.515   6.698  10.407 -1.8306 -1.3605 -0.8750
   20SAPC    C3 2584   3.840   6.429  10.621 -0.0258  0.5773  0.2932
   20SAPC    HX 2585   3.751   6.365  10.641 -0.5491  0.6060 -1.7347
   20SAPC    HY 2586   3.917   6.406  10.698  1.3481 -1.3797 -1.5421
   20SAPC   O31 2587   3.890   6.405  10.488 -0.3752  0.4536 -0.4304
   20SAPC   C31 2588   4.015   6.452  10.459  0.2612 -0.6835 -0.1209
   20SAPC   O32 2589   4.093   6.505  10.536 -0.0418 -0.4688 -0.4515
   20SAPC   C32 2590   4.051   6.413  10.312  0.1067  0.0731 -0.6235
   20SAPC   H2X 2591   4.112   6.501  10.283 -1.7196  1.7671  0.4319
   20SAPC   H2Y 2592   3.964   6.404  10.243  0.7988  0.6849 -1.5939
   20SAPC   C23 2593   3.611   6.748  10.223 -0.4784 -0.0396 -0.1659
   20SAPC   H3R 2594   3.691   6.705  10.158  1.1138  1.5673  0.6440
   20SAPC   H3S 2595   3.647   6.844  10.265  2.4983 -1.8763  1.8893
   20SAPC   C24 2596   3.491   6.767  10.138  0.4255  0.2972  0.2404
   20SAPC   H4R 2597   3.411   6.791  10.211  0.0899 -1.7388  0.5899
   20SAPC   H4S 2598   3.479   6.670  10.086 -1.8608 -1.4892  3.7722
   20SAPC   C25 2599   3.508   6.889  10.056 -0.6029 -0.0044  0.4103
   20SAPC   H5R 2600   3.554   6.973  10.110  0.7181 -0.4816  0.0820
   20SAPC   C26 2601   3.495   6.902   9.923  0.1432  0.3637 -0.1455
   20SAPC   H6R 2602   3.512   7.003   9.885 -0.2026  0.2405 -0.6384
   20SAPC   C27 2603   3.447   6.794   9.822 -0.4498 -0.6264 -0.3110
   20SAPC   H7R 2604   3.372   6.729   9.873 -0.9930  0.9201  0.9562
   20SAPC   H7S 2605   3.537   6.733   9.800  1.5107  1.4881  1.3453
   20SAPC   C28 2606   3.390   6.853   9.695 -1.0656 -0.2929 -0.4331
   20SAPC   H8R 2607   3.287   6.889   9.705  0.1543  4.5557 -1.9559
   20SAPC   C29 2608   3.460   6.886   9.585 -0.0353 -0.2141  0.3282
   20SAPC   H9R 2609   3.398   6.926   9.504  1.2523  2.6688  0.6406
   20SAPC  C210 2610   3.607   6.867   9.570 -0.1676 -0.0788 -0.2587
   20SAPC  H10R 2611   3.658   6.903   9.662 -0.5847 -1.1951  0.4337
   20SAPC  H10S 2612   3.644   6.929   9.486  2.6647 -3.6790 -1.9684
   20SAPC  C211 2613   3.655   6.726   9.550 -0.1846  0.5249  0.6939
   20SAPC  H11R 2614   3.636   6.653   9.630  2.0728 -1.2464 -0.2788
   20SAPC  C212 2615   3.721   6.677   9.446  0.4083  0.0672 -0.7027
   20SAPC  H12R 2616   3.758   6.576   9.467 -1.3252 -0.4387  0.0340
   20SAPC  C213 2617   3.772   6.740   9.321 -0.6038 -0.2549 -0.8078
   20SAPC  H13R 2618   3.883   6.744   9.322 -0.4877 -2.2005 -0.5937
   20SAPC  H13S 2619   3.739   6.844   9.301  1.1069  0.0571 -2.2764
   20SAPC  C214 2620   3.745   6.645   9.213  1.2984 -0.3321  0.3648
   20SAPC  H14R 2621   3.826   6.571   9.203  1.4688 -0.1965  0.7111
   20SAPC  C215 2622   3.646   6.652   9.116  0.3647  0.5940 -0.1149
   20SAPC  H15R 2623   3.648   6.579   9.034 -2.4562 -0.9020  0.9890
   20SAPC  C216 2624   3.540   6.758   9.108 -0.4445  0.8461  0.3645
   20SAPC  H16R 2625   3.490   6.785   9.012  0.0286  3.6780  0.8382
   20SAPC  H16S 2626   3.607   6.844   9.127 -0.3865  0.6584  1.0458
   20SAPC  C217 2627   3.435   6.760   9.218 -0.2356  0.4070  0.3677
   20SAPC  H17R 2628   3.492   6.757   9.313  1.4621 -2.4621 -0.6307
   20SAPC  H17S 2629   3.373   6.669   9.208 -0.3704  0.6723 -1.7964
   20SAPC  C218 2630   3.350   6.888   9.226 -0.1176  0.8701  0.4255
   20SAPC  H18R 2631   3.415   6.971   9.261  1.6503 -0.0425 -0.5722
   20SAPC  H18S 2632   3.260   6.870   9.289 -0.8428 -1.9462 -1.2230
   20SAPC  C219 2633   3.286   6.929   9.090  0.1415  0.2096  0.3107
   20SAPC  H19R 2634   3.211   6.858   9.049  0.9540  0.8781 -2.4974
   20SAPC  H19S 2635   3.369   6.939   9.016 -0.4339  0.6620 -0.2776
   20SAPC  C220 2636   3.218   7.064   9.103 -0.0623 -0.3383  0.3377
   20SAPC  H20R 2637   3.178   7.105   9.008 -2.8864 -0.5477  1.3189
   20SAPC  H20S 2638   3.286   7.137   9.152  0.3712 -1.1389  0.9524
   20SAPC  H20T 2639   3.132   7.045   9.171 -1.5652 -0.2621 -1.4703
   20SAPC   C33 2640   4.138   6.285  10.309  0.1060  0.3508 -0.5235
   20SAPC   H3X 2641   4.076   6.195  10.330  2.0209 -0.4136  2.3989
   20SAPC   H3Y 2642   4.220   6.291  10.384  0.6777  1.1385 -1.1869
   20SAPC   C34 2643   4.210   6.276  10.178 -0.0652 -0.2462 -0.7840
   20SAPC   H4X 2644   4.304   6.221  10.200  0.8217  2.0732  1.9860
   20SAPC   H4Y 2645   4.240   6.379  10.149 -0.7356  0.6705  1.5033
   20SAPC   C35 2646   4.134   6.220  10.054 -0.2336 -0.3765 -0.5045
   20SAPC   H5X 2647   4.043   6.281  10.035  1.5992  2.5467 -0.5683
   20SAPC   H5Y 2648   4.104   6.113  10.058  0.6095 -0.6535 -1.3180
   20SAPC   C36 2649   4.227   6.235   9.923  0.4957  0.4145  0.1790
   20SAPC   H6X 2650   4.328   6.201   9.956 -0.0665  0.4118  1.9628
   20SAPC   H6Y 2651   4.230   6.340   9.885  2.0721 -0.0826 -1.2015
   20SAPC   C37 2652   4.189   6.139   9.811 -0.8745 -0.4518 -0.0988
   20SAPC   H7X 2653   4.085   6.168   9.786  0.0725  1.5329 -2.1907
   20SAPC   H7Y 2654   4.178   6.034   9.845  0.6660 -0.2887  1.0410
   20SAPC   C38 2655   4.272   6.142   9.681 -0.0685 -0.6406 -0.4469
   20SAPC   H8X 2656   4.367   6.092   9.711  0.1514 -0.4944 -0.8936
   20SAPC   H8Y 2657   4.292   6.248   9.656 -0.7389 -0.3472  0.2199
   20SAPC   C39 2658   4.200   6.071   9.568 -0.3550  0.1608 -0.2953
   20SAPC   H9X 2659   4.114   6.135   9.542  1.4786  2.0205 -2.1209
   20SAPC   H9Y 2660   4.178   5.969   9.606  1.6628  0.5922  2.3534
   20SAPC  C310 2661   4.271   6.049   9.436  0.7326  0.1249  0.1762
   20SAPC  H10X 2662   4.364   5.990   9.443  2.0198  1.6684 -2.4595
   20SAPC  H10Y 2663   4.289   6.146   9.385 -0.9946  1.2990  1.6684
   20SAPC  C311 2664   4.184   5.962   9.346  0.1187 -0.7384 -0.1008
   20SAPC  H11X 2665   4.086   6.011   9.329 -0.7846 -1.0570  3.3836
   20SAPC  H11Y 2666   4.151   5.867   9.395 -3.1989  1.0491  1.4428
   20SAPC  C312 2667   4.240   5.924   9.202  0.6139  0.1658 -1.0611
   20SAPC  H12X 2668   4.164   5.852   9.164  0.2417 -0.8496  1.3969
   20SAPC  H12Y 2669   4.331   5.862   9.217  0.7423  0.6981  0.5231
   20SAPC  C313 2670   4.257   6.027   9.088  0.0373  0.1110 -0.3103
   20SAPC  H13X 2671   4.327   6.110   9.112  1.6198 -0.9827 -0.9703
   20SAPC  H13Y 2672   4.160   6.080   9.076 -0.2121 -0.6312 -1.7527
   20SAPC  C314 2673   4.305   5.962   8.959 -0.0125 -0.3208  0.1814
   20SAPC  H14X 2674   4.240   5.877   8.931 -0.0321 -1.2921  2.8884
   20SAPC  H14Y 2675   4.404   5.916   8.980 -0.0334 -0.5156 -0.1390
   20SAPC  C315 2676   4.297   6.061   8.850 -0.3074  0.5859 -0.2157
   20SAPC  H15X 2677   4.374   6.140   8.865  1.3045 -0.8554 -0.5777
   20SAPC  H15Y 2678   4.194   6.101   8.858 -1.0200 -1.5614  3.7939
   20SAPC  C316 2679   4.329   6.002   8.716 -0.0891 -0.0153  1.1889
   20SAPC  H16X 2680   4.259   5.920   8.691  0.3720  0.4053 -1.7836
   20SAPC  H16Y 2681   4.429   5.954   8.725  0.9726  1.2185 -2.4259
   20SAPC  C317 2682   4.341   6.089   8.593 -0.1990 -0.0249 -0.4155
   20SAPC  H17X 2683   4.371   6.024   8.508 -0.4683 -0.7952  0.0580
   20SAPC  H17Y 2684   4.425   6.159   8.607  2.4422 -3.3733  2.5793
   20SAPC  C318 2685   4.214   6.169   8.563 -0.7247 -0.4564 -0.1101
   20SAPC  H18X 2686   4.178   6.238   8.642 -0.3298 -0.4915  0.1030
   20SAPC  H18Y 2687   4.130   6.098   8.547 -0.7307 -0.3087 -0.7482
   20SAPC  H18Z 2688   4.220   6.222   8.466 -2.2107 -1.9525 -1.0846
   21SAPC     N 2689   6.770   5.998  10.985 -0.3169  0.3302 -0.2908
   21SAPC   C12 2690   6.753   6.105  10.879  0.5121  0.3875  0.4823
   21SAPC  H12A 2691   6.708   6.067  10.788  0.8446  3.8930 -1.3556
   21SAPC  H12B 2692   6.851   6.136  10.848  1.2208 -1.9586  0.2094
   21SAPC   C13 2693   6.859   5.894  10.926 -1.0764  0.4745  0.3710
   21SAPC  H13A 2694   6.964   5.914  10.942 -0.8126 -0.6622  0.1193
   21SAPC  H13B 2695   6.844   5.797  10.972 -0.2134 -0.5120 -1.3507
   21SAPC  H13C 2696   6.843   5.880  10.820  0.3506 -0.7392  0.2854
   21SAPC   C14 2697   6.853   6.052  11.104 -0.2442 -0.0376  0.0570
   21SAPC  H14A 2698   6.917   6.131  11.068 -0.4153  0.5102  0.9246
   21SAPC  H14B 2699   6.789   6.087  11.184 -1.3087  0.6039 -1.0398
   21SAPC  H14C 2700   6.904   5.963  11.138 -4.2615 -2.5464  0.2518
   21SAPC   C15 2701   6.645   5.945  11.032  0.3747 -1.0085  0.4039
   21SAPC  H15A 2702   6.576   6.026  11.050  1.8259  0.3427  0.0288
   21SAPC  H15B 2703   6.595   5.890  10.954  0.3850  0.1722 -0.4431
   21SAPC  H15C 2704   6.644   5.877  11.116 -0.9276 -0.7667  0.6045
   21SAPC   C11 2705   6.662   6.225  10.917  0.3010  0.0729  0.0569
   21SAPC  H11A 2706   6.674   6.304  10.840 -1.8301 -0.9465 -1.4330
   21SAPC  H11B 2707   6.701   6.247  11.019  0.8128 -1.5705  0.2429
   21SAPC     P 2708   6.422   6.298  10.987  0.0994 -0.3511  0.5072
   21SAPC   O13 2709   6.288   6.271  10.931 -0.3591 -0.2959  0.0811
   21SAPC   O14 2710   6.434   6.298  11.134 -0.6913 -0.5293  0.4513
   21SAPC   O12 2711   6.526   6.194  10.928 -0.5321 -0.4722 -0.3392
   21SAPC   O11 2712   6.481   6.439  10.940  0.2026  0.1876  0.5398
   21SAPC    C1 2713   6.398   6.551  10.922  0.1556 -0.4551 -0.5082
   21SAPC    HA 2714   6.320   6.555  11.001 -1.3764 -0.1251 -1.9801
   21SAPC    HB 2715   6.463   6.636  10.952  0.3408 -1.4231  2.1622
   21SAPC    C2 2716   6.345   6.576  10.778  0.2959  0.4316 -0.7028
   21SAPC    HS 2717   6.297   6.483  10.741 -0.6660  1.5262 -2.2922
   21SAPC   O21 2718   6.452   6.617  10.693 -0.2356 -0.1210 -0.7963
   21SAPC   C21 2719   6.527   6.519  10.645  0.9844  0.0641 -0.4203
   21SAPC   O22 2720   6.496   6.404  10.621 -0.2164 -0.5788  0.6664
   21SAPC   C22 2721   6.669   6.579  10.633  0.4588  0.1430  0.2683
   21SAPC   H2R 2722   6.679   6.657  10.555  1.0452 -0.5431 -0.3492
   21SAPC   H2S 2723   6.687   6.620  10.735 -0.7432  0.5863  0.3210
   21SAPC    C3 2724   6.238   6.689  10.773 -0.2115  0.0283 -0.2341
   21SAPC    HX 2725   6.276   6.777  10.828 -0.5350 -0.5388  0.9430
   21SAPC    HY 2726   6.144   6.653  10.820  0.0687  0.8402  0.9819
   21SAPC   O31 2727   6.206   6.728  10.634  0.3215 -0.3978  0.0577
   21SAPC   C31 2728   6.261   6.836  10.585  0.2987 -0.1017 -0.3886
   21SAPC   O32 2729   6.312   6.927  10.649 -0.0440  0.2372 -0.2288
   21SAPC   C32 2730   6.233   6.835  10.432 -0.1736  0.5222  0.4933
   21SAPC   H2X 2731   6.234   6.938  10.391 -1.4909  1.3579  2.4021
   21SAPC   H2Y 2732   6.130   6.794  10.424  0.7037 -2.1199  1.6687
   21SAPC   C23 2733   6.781   6.478  10.594 -0.4136 -0.9131 -0.8282
   21SAPC   H3R 2734   6.752   6.375  10.625 -1.2499 -0.0238  1.5027
   21SAPC   H3S 2735   6.873   6.512  10.646 -0.7811  1.4897 -1.6311
   21SAPC   C24 2736   6.806   6.475  10.441  0.7716 -0.2424 -1.1896
   21SAPC   H4R 2737   6.877   6.389  10.433  1.8340  0.1937  1.9423
   21SAPC   H4S 2738   6.859   6.569  10.419  1.7777 -0.9240 -1.7462
   21SAPC   C25 2739   6.689   6.451  10.353 -0.7294 -0.9501  0.2785
   21SAPC   H5R 2740   6.613   6.373  10.369 -2.3067 -0.3744 -3.2087
   21SAPC   C26 2741   6.673   6.521  10.240  0.7328 -1.1639  0.8880
   21SAPC   H6R 2742   6.589   6.494  10.174  0.7097 -0.4115  0.6039
   21SAPC   C27 2743   6.743   6.638  10.167  0.5391  0.5085  0.0814
   21SAPC   H7R 2744   6.776   6.603  10.067  0.1225  2.0785 -0.6190
   21SAPC   H7S 2745   6.836   6.669  10.219  0.1315 -0.3190  1.3917
   21SAPC   C28 2746   6.650   6.758  10.154  0.1619  0.3352  0.3610
   21SAPC   H8R 2747   6.593   6.794  10.241 -1.5458  0.3397 -0.6959
   21SAPC   C29 2748   6.615   6.821  10.037  0.2180 -0.8126  0.0255
   21SAPC   H9R 2749   6.540   6.902  10.033 -0.7142 -1.6867 -0.7227
   21SAPC  C210 2750   6.682   6.785   9.910  0.4507 -0.2478  0.1845
   21SAPC  H10R 2751   6.643   6.689   9.870 -2.3582  0.9597 -0.2157
   21SAPC  H10S 2752   6.788   6.754   9.928  0.4335 -0.3560  0.1000
   21SAPC  C211 2753   6.675   6.883   9.800 -0.1281  0.0955  0.6204
   21SAPC  H11R 2754   6.626   6.854   9.706  1.4453  0.9264 -0.5013
   21SAPC  C212 2755   6.741   6.998   9.807  0.1993 -0.6825  0.0366
   21SAPC  H12R 2756   6.728   7.064   9.720 -2.8658 -2.5295 -1.0362
   21SAPC  C213 2757   6.831   7.041   9.922 -0.5609  0.2639  0.1890
   21SAPC  H13R 2758   6.884   6.951   9.957 -1.6338 -0.7698 -0.7648
   21SAPC  H13S 2759   6.769   7.058  10.013 -1.6841 -2.3760 -0.0073
   21SAPC  C214 2760   6.920   7.161   9.907 -0.2295  0.0071 -0.0719
   21SAPC  H14R 2761   7.025   7.132   9.892 -0.2961 -1.5914  2.1300
   21SAPC  C215 2762   6.888   7.285   9.944  0.4337 -0.8696 -0.0918
   21SAPC  H15R 2763   6.961   7.367   9.936  1.6357 -1.8511  0.4412
   21SAPC  C216 2764   6.749   7.336   9.992 -0.4419 -0.0358 -0.3305
   21SAPC  H16R 2765   6.684   7.266  10.048  0.7993 -1.3790 -0.4964
   21SAPC  H16S 2766   6.686   7.353   9.902 -0.0221 -2.5979 -1.2036
   21SAPC  C217 2767   6.757   7.475  10.053  0.1586 -0.3148  0.0986
   21SAPC  H17R 2768   6.650   7.501  10.066 -1.0341 -3.6831 -1.7575
   21SAPC  H17S 2769   6.779   7.559   9.984 -0.1568 -0.2081  0.1272
   21SAPC  C218 2770   6.833   7.496  10.182 -0.1898  0.1860 -0.2820
   21SAPC  H18R 2771   6.931   7.442  10.177 -0.1525  0.2793 -0.5516
   21SAPC  H18S 2772   6.780   7.458  10.272 -0.7635 -0.9425 -1.0730
   21SAPC  C219 2773   6.867   7.643  10.207  0.1910  0.7397  0.4419
   21SAPC  H19R 2774   6.924   7.663  10.115 -1.7586 -1.4164 -1.3632
   21SAPC  H19S 2775   6.927   7.649  10.300  0.6421 -1.2618  0.3281
   21SAPC  C220 2776   6.750   7.744  10.212  0.0139 -0.1842  0.1276
   21SAPC  H20R 2777   6.792   7.830  10.268 -1.2127 -0.8162  2.1282
   21SAPC  H20S 2778   6.656   7.715  10.264  0.4008 -0.9059  0.4275
   21SAPC  H20T 2779   6.703   7.748  10.111 -0.6281  1.0893  0.4543
   21SAPC   C33 2780   6.334   6.734  10.368  0.6165 -0.2297 -0.3247
   21SAPC   H3X 2781   6.331   6.642  10.431 -3.8071  0.3946  0.7355
   21SAPC   H3Y 2782   6.437   6.775  10.372  1.2158 -1.7534  2.7669
   21SAPC   C34 2783   6.299   6.708  10.228 -0.0295  1.1255 -0.3705
   21SAPC   H4X 2784   6.371   6.642  10.175 -2.2606 -0.4589 -1.5742
   21SAPC   H4Y 2785   6.285   6.798  10.164 -1.2336  0.6618 -0.7861
   21SAPC   C35 2786   6.168   6.625  10.218  0.3189 -0.3563  0.7719
   21SAPC   H5X 2787   6.079   6.673  10.264  0.5742 -0.0618  0.9624
   21SAPC   H5Y 2788   6.184   6.525  10.263  0.1050 -0.7721 -0.0531
   21SAPC   C36 2789   6.130   6.596  10.070 -0.4764  0.1304  0.4368
   21SAPC   H6X 2790   6.217   6.540  10.029  0.9873  0.6466  2.5994
   21SAPC   H6Y 2791   6.107   6.691  10.018 -0.4153 -0.5148 -0.7898
   21SAPC   C37 2792   6.011   6.501  10.050  0.0392 -0.2480 -0.3694
   21SAPC   H7X 2793   5.974   6.511   9.946 -0.8106  0.6483 -0.0041
   21SAPC   H7Y 2794   5.921   6.519  10.113 -0.7690 -1.2629 -1.1982
   21SAPC   C38 2795   6.059   6.350  10.074 -0.1958  0.0279 -0.1851
   21SAPC   H8X 2796   6.075   6.333  10.182 -0.6944 -1.7695 -0.3651
   21SAPC   H8Y 2797   6.150   6.338  10.012 -0.7537 -0.9147 -0.8523
   21SAPC   C39 2798   5.955   6.246  10.036 -0.0962 -0.3634  0.1346
   21SAPC   H9X 2799   5.854   6.275  10.073 -0.9184 -1.8319 -0.8686
   21SAPC   H9Y 2800   5.985   6.148  10.079  0.2345 -0.6358 -0.7114
   21SAPC  C310 2801   5.945   6.235   9.884  0.7523 -0.1483  0.0246
   21SAPC  H10X 2802   5.975   6.331   9.836 -0.2597  0.5218  0.6852
   21SAPC  H10Y 2803   5.848   6.193   9.850  0.9201  0.5723 -1.4441
   21SAPC  C311 2804   6.044   6.133   9.827 -0.4254  1.1567  0.3597
   21SAPC  H11X 2805   6.015   6.030   9.853 -1.9276  1.5334  0.2819
   21SAPC  H11Y 2806   6.148   6.148   9.866  0.4987  0.9047 -1.8472
   21SAPC  C312 2807   6.066   6.151   9.677 -0.0639 -0.0196  0.0235
   21SAPC  H12X 2808   6.141   6.232   9.661 -1.7869  1.4721 -0.9896
   21SAPC  H12Y 2809   5.970   6.195   9.643  1.0286  2.3017 -0.2798
   21SAPC  C313 2810   6.109   6.028   9.595  0.1879 -0.0633  0.7354
   21SAPC  H13X 2811   6.038   5.950   9.630  0.7186 -0.4023  1.0650
   21SAPC  H13Y 2812   6.210   5.996   9.628 -0.5917 -1.2426  2.0777
   21SAPC  C314 2813   6.087   6.046   9.447  0.1301  0.4154  0.1882
   21SAPC  H14X 2814   6.175   6.109   9.425  0.0946  0.3368 -0.1861
   21SAPC  H14Y 2815   5.990   6.092   9.418 -0.3427 -0.7074 -0.0327
   21SAPC  C315 2816   6.104   5.909   9.372  0.6279 -0.3031 -0.2943
   21SAPC  H15X 2817   6.027   5.837   9.408  1.6906 -0.4429  1.9008
   21SAPC  H15Y 2818   6.197   5.861   9.411 -0.3085 -0.9889  1.2292
   21SAPC  C316 2819   6.113   5.924   9.218 -0.9660 -0.0750  0.2144
   21SAPC  H16X 2820   6.171   6.012   9.181 -1.1139 -0.4257 -0.9098
   21SAPC  H16Y 2821   6.007   5.941   9.190 -0.7609 -0.5490 -0.9177
   21SAPC  C317 2822   6.161   5.801   9.135  0.0080 -0.7528  0.9145
   21SAPC  H17X 2823   6.271   5.798   9.147 -0.0922 -1.2952  1.8769
   21SAPC  H17Y 2824   6.166   5.824   9.027  0.3537  1.4655  1.3635
   21SAPC  C318 2825   6.093   5.672   9.184  1.0513  0.0823 -0.4969
   21SAPC  H18X 2826   5.984   5.670   9.163  0.6778 -1.5813  1.3104
   21SAPC  H18Y 2827   6.101   5.665   9.294  0.4774 -0.0941 -0.4660
   21SAPC  H18Z 2828   6.144   5.579   9.150  0.6756 -0.7086  1.0202
   22SAPC     N 2829   2.214   4.075  10.506 -0.0100 -0.0883 -0.3810
   22SAPC   C12 2830   2.336   4.024  10.428 -0.0084 -0.1830 -0.5042
   22SAPC  H12A 2831   2.308   3.954  10.351  0.4678 -1.1195  0.1596
   22SAPC  H12B 2832   2.399   3.965  10.493 -1.7045 -2.7509 -1.0232
   22SAPC   C13 2833   2.129   4.165  10.427  0.4365 -0.5916  0.0917
   22SAPC  H13A 2834   2.101   4.125  10.331 -1.6939 -0.4520  0.6118
   22SAPC  H13B 2835   2.033   4.190  10.468  0.9272 -0.0548  0.9399
   22SAPC  H13C 2836   2.181   4.258  10.412 -0.5499  0.4143  2.4639
   22SAPC   C14 2837   2.129   3.961  10.550 -0.6230  0.2666  0.7174
   22SAPC  H14A 2838   2.042   3.986  10.608 -1.9867 -0.0374 -1.0833
   22SAPC  H14B 2839   2.089   3.905  10.467 -1.2242 -0.1785  1.3019
   22SAPC  H14C 2840   2.187   3.891  10.608  0.3178  0.7279  0.3572
   22SAPC   C15 2841   2.253   4.134  10.631 -0.3258  0.3606 -0.5749
   22SAPC  H15A 2842   2.280   4.238  10.626 -0.0985  0.7368  4.1265
   22SAPC  H15B 2843   2.173   4.127  10.704 -0.6665 -0.3580 -1.0040
   22SAPC  H15C 2844   2.335   4.086  10.681  0.5770  1.7328 -0.6875
   22SAPC   C11 2845   2.434   4.134  10.365  0.0497 -0.4190  0.1879
   22SAPC  H11A 2846   2.382   4.202  10.294  0.8331 -0.2005 -0.1880
   22SAPC  H11B 2847   2.522   4.098  10.307  0.4791  0.6201  0.1674
   22SAPC     P 2848   2.593   4.174  10.572 -0.2928  0.2372 -0.2697
   22SAPC   O13 2849   2.550   4.247  10.696 -0.1179  0.0061  0.3564
   22SAPC   O14 2850   2.617   4.026  10.577  0.4000 -1.1795  0.0613
   22SAPC   O12 2851   2.490   4.216  10.465  0.3432 -0.4932 -0.2999
   22SAPC   O11 2852   2.726   4.243  10.525  0.4259  0.1382  0.0901
   22SAPC    C1 2853   2.733   4.353  10.427  0.0514  0.0702 -0.1710
   22SAPC    HA 2854   2.635   4.398  10.401  0.5226  1.9053  1.0488
   22SAPC    HB 2855   2.801   4.434  10.462  0.9266 -1.2758  1.4025
   22SAPC    C2 2856   2.776   4.309  10.288  0.0366  0.3353  0.0097
   22SAPC    HS 2857   2.692   4.244  10.256 -0.3364  0.8585 -0.0865
   22SAPC   O21 2858   2.905   4.238  10.296 -0.1951 -0.2619  0.1051
   22SAPC   C21 2859   2.915   4.136  10.212 -0.1120  0.0957 -0.3248
   22SAPC   O22 2860   2.828   4.100  10.130  0.0234 -0.2676 -0.5492
   22SAPC   C22 2861   3.041   4.065  10.249 -0.5378  0.0120  0.0606
   22SAPC   H2R 2862   3.110   4.136  10.300 -0.1678 -1.4501  1.6853
   22SAPC   H2S 2863   3.006   3.989  10.322 -0.2004  0.7178  0.9878
   22SAPC    C3 2864   2.788   4.425  10.181  0.6016 -0.6537 -0.8733
   22SAPC    HX 2865   2.884   4.478  10.199  0.6870 -1.0710 -0.0487
   22SAPC    HY 2866   2.706   4.499  10.194  1.1693 -0.0579 -0.6144
   22SAPC   O31 2867   2.795   4.369  10.046  1.1408  0.2502  0.6672
   22SAPC   C31 2868   2.676   4.335  10.001 -0.0389  0.1091 -0.6401
   22SAPC   O32 2869   2.572   4.343  10.068  0.4462 -0.2448 -0.6125
   22SAPC   C32 2870   2.691   4.261   9.868  0.0575  0.7112 -0.1808
   22SAPC   H2X 2871   2.593   4.211   9.849  0.3473 -0.7286  1.8318
   22SAPC   H2Y 2872   2.769   4.182   9.868 -0.8827 -0.2433 -0.3017
   22SAPC   C23 2873   3.114   4.000  10.135  0.8655  0.8478 -0.2927
   22SAPC   H3R 2874   3.035   3.940  10.087  1.6790 -1.4855  1.1065
   22SAPC   H3S 2875   3.179   3.920  10.177 -2.3773 -2.6218 -1.3981
   22SAPC   C24 2876   3.180   4.097  10.040  0.1042 -0.2269 -0.3039
   22SAPC   H4R 2877   3.245   4.163  10.100  1.0009  0.2777 -1.7886
   22SAPC   H4S 2878   3.104   4.172  10.009  0.6589 -0.4576 -2.4369
   22SAPC   C25 2879   3.260   4.036   9.922 -0.1427  0.3245 -1.4678
   22SAPC   H5R 2880   3.367   4.017   9.936 -0.1608  0.0943 -1.6460
   22SAPC   C26 2881   3.201   4.012   9.805  0.3020  0.0636  0.1740
   22SAPC   H6R 2882   3.254   3.962   9.722 -0.9914 -1.7179  0.3729
   22SAPC   C27 2883   3.057   4.039   9.761 -0.5073 -0.1090 -0.3482
   22SAPC   H7R 2884   3.052   4.131   9.698  0.8707  0.0597 -0.2517
   22SAPC   H7S 2885   3.000   4.059   9.854  0.4018 -0.4430  0.2978
   22SAPC   C28 2886   2.989   3.926   9.688  0.7063 -0.6093 -0.1615
   22SAPC   H8R 2887   2.911   3.879   9.749  2.5999 -0.5940  2.4619
   22SAPC   C29 2888   3.024   3.869   9.565  0.1708 -0.3094  0.0717
   22SAPC   H9R 2889   2.965   3.783   9.530 -1.2848  0.2760  0.9854
   22SAPC  C210 2890   3.139   3.929   9.479  0.0575  0.8711  0.3903
   22SAPC  H10R 2891   3.186   4.020   9.522 -0.5108  1.3699 -0.0292
   22SAPC  H10S 2892   3.090   3.961   9.385 -1.5011  0.2904  0.9736
   22SAPC  C211 2893   3.247   3.825   9.447  0.3861 -0.2228  0.0658
   22SAPC  H11R 2894   3.326   3.818   9.524  1.1328 -3.1361 -0.8633
   22SAPC  C212 2895   3.246   3.740   9.341  0.4501 -0.2316 -0.2396
   22SAPC  H12R 2896   3.333   3.677   9.318  0.6309 -0.5430  1.1756
   22SAPC  C213 2897   3.143   3.721   9.237  0.7600  0.0942  0.7685
   22SAPC  H13R 2898   3.046   3.744   9.286 -0.2616 -2.1029 -0.1239
   22SAPC  H13S 2899   3.138   3.615   9.207 -2.2633  0.2671  0.3634
   22SAPC  C214 2900   3.159   3.810   9.124 -0.1862  0.4123  1.2305
   22SAPC  H14R 2901   3.129   3.913   9.144  0.5759  1.2926 -1.6521
   22SAPC  C215 2902   3.202   3.786   8.999 -0.2731 -0.4992 -0.1512
   22SAPC  H15R 2903   3.184   3.873   8.933  4.1982  2.0001  1.5057
   22SAPC  C216 2904   3.242   3.657   8.937  0.1294  0.4461  0.4677
   22SAPC  H16R 2905   3.184   3.642   8.844  0.3840  1.9755  0.0353
   22SAPC  H16S 2906   3.212   3.567   8.996  4.4305 -1.5985 -0.0534
   22SAPC  C217 2907   3.385   3.631   8.911  0.1245 -0.3152  0.5153
   22SAPC  H17R 2908   3.444   3.629   9.006  0.8960 -1.9864  0.0429
   22SAPC  H17S 2909   3.429   3.711   8.848 -0.7429 -0.0494  0.2347
   22SAPC  C218 2910   3.404   3.493   8.854  0.0426  0.1414  0.1643
   22SAPC  H18R 2911   3.335   3.470   8.770 -0.3088 -0.6805  0.6618
   22SAPC  H18S 2912   3.366   3.419   8.927 -0.9767  0.3866 -0.1102
   22SAPC  C219 2913   3.550   3.459   8.802 -0.0212  0.0568  0.1515
   22SAPC  H19R 2914   3.544   3.351   8.772  1.4237 -0.2579  0.9422
   22SAPC  H19S 2915   3.625   3.464   8.883  0.9250 -0.0032 -0.6935
   22SAPC  C220 2916   3.598   3.539   8.680 -0.0627  0.6922  0.4000
   22SAPC  H20R 2917   3.635   3.641   8.704  0.8260  0.3135  0.6853
   22SAPC  H20S 2918   3.524   3.535   8.596 -0.6313 -0.8921  0.9292
   22SAPC  H20T 2919   3.686   3.484   8.641  0.1822  1.0203  0.4942
   22SAPC   C33 2920   2.732   4.357   9.753 -0.0285  0.9137  0.1256
   22SAPC   H3X 2921   2.752   4.301   9.659  0.0978 -0.2377  0.8236
   22SAPC   H3Y 2922   2.832   4.400   9.776 -1.4891  3.7410  1.8016
   22SAPC   C34 2923   2.644   4.480   9.744 -0.5090  0.1589  0.3045
   22SAPC   H4X 2924   2.627   4.535   9.839 -0.7317  0.3423  0.1593
   22SAPC   H4Y 2925   2.544   4.454   9.704 -0.0302  0.7494 -1.3519
   22SAPC   C35 2926   2.704   4.578   9.645 -0.1397 -0.4908 -0.6299
   22SAPC   H5X 2927   2.731   4.521   9.553  1.9607  0.0924 -0.4220
   22SAPC   H5Y 2928   2.800   4.611   9.691  0.7619 -3.4491 -0.1716
   22SAPC   C36 2929   2.609   4.696   9.617 -0.1633  0.4982 -0.1861
   22SAPC   H6X 2930   2.597   4.756   9.709  2.6887 -0.4672  0.9260
   22SAPC   H6Y 2931   2.508   4.658   9.588  0.3358 -2.9921  2.0760
   22SAPC   C37 2932   2.664   4.793   9.514  0.0049 -0.2866  0.0548
   22SAPC   H7X 2933   2.771   4.814   9.538  0.3579 -1.2946 -0.5783
   22SAPC   H7Y 2934   2.607   4.888   9.526  1.4311  0.6133 -0.0925
   22SAPC   C38 2935   2.670   4.724   9.376  0.1303  0.5481 -0.4605
   22SAPC   H8X 2936   2.581   4.661   9.355  0.3371 -0.6749  2.0257
   22SAPC   H8Y 2937   2.756   4.654   9.374 -0.0551  0.2915  0.3066
   22SAPC   C39 2938   2.705   4.825   9.258 -0.0305 -0.2442  0.2848
   22SAPC   H9X 2939   2.803   4.877   9.263  2.2385 -3.8193 -2.1160
   22SAPC   H9Y 2940   2.632   4.908   9.267  1.2734  0.8859  0.8131
   22SAPC  C310 2941   2.686   4.752   9.120  0.4847 -0.6049  0.1640
   22SAPC  H10X 2942   2.654   4.820   9.039  2.6819  0.1375 -0.1678
   22SAPC  H10Y 2943   2.610   4.674   9.142  0.8520 -0.7121  1.1082
   22SAPC  C311 2944   2.810   4.670   9.084 -0.4923  0.2353 -1.0889
   22SAPC  H11X 2945   2.847   4.630   9.181 -1.9946  2.1328  0.3377
   22SAPC  H11Y 2946   2.895   4.738   9.060 -1.3152  1.1780 -1.3770
   22SAPC  C312 2947   2.786   4.553   8.981 -0.6463 -0.3640 -0.1313
   22SAPC  H12X 2948   2.760   4.598   8.882  2.8194  1.9808 -0.1752
   22SAPC  H12Y 2949   2.701   4.496   9.024 -2.3325  0.5883 -2.0310
   22SAPC  C313 2950   2.916   4.476   8.969 -0.2887  0.4141 -0.1076
   22SAPC  H13X 2951   2.957   4.446   9.067  0.6382  0.0279 -0.5995
   22SAPC  H13Y 2952   2.996   4.537   8.923 -0.8340  1.5701  0.4286
   22SAPC  C314 2953   2.883   4.340   8.907  0.2256  0.2953  0.3818
   22SAPC  H14X 2954   2.846   4.361   8.805  2.0517 -1.3196 -0.6908
   22SAPC  H14Y 2955   2.809   4.282   8.966 -2.1459  0.8374 -1.8648
   22SAPC  C315 2956   3.011   4.253   8.876  0.2865  0.4913  1.0105
   22SAPC  H15X 2957   3.052   4.214   8.972 -0.2819  1.6277  1.7417
   22SAPC  H15Y 2958   3.090   4.311   8.825 -2.0809  0.3006 -3.3474
   22SAPC  C316 2959   2.990   4.136   8.786  0.6965  0.1590  1.1430
   22SAPC  H16X 2960   2.884   4.106   8.802 -0.3206  1.7763 -1.8602
   22SAPC  H16Y 2961   3.051   4.045   8.808 -1.5921 -1.1198  2.6555
   22SAPC  C317 2962   3.008   4.170   8.641  0.6578  0.5235 -0.0144
   22SAPC  H17X 2963   3.112   4.139   8.619  0.3273 -0.5866 -0.0604
   22SAPC  H17Y 2964   2.995   4.279   8.620  3.9955  0.9765 -0.2318
   22SAPC  C318 2965   2.913   4.095   8.551 -0.0504 -0.4325  0.5245
   22SAPC  H18X 2966   2.816   4.147   8.535  0.2276 -0.7662 -3.0383
   22SAPC  H18Y 2967   2.879   3.995   8.587  1.1481 -1.6608 -1.5386
   22SAPC  H18Z 2968   2.958   4.069   8.453  0.5954 -1.9139  1.1822
   23SAPC     N 2969   0.295   4.449  11.255 -0.0361  0.2244  0.0538
   23SAPC   C12 2970   0.293   4.535  11.128  0.2249  0.0360 -0.0963
   23SAPC  H12A 2971   0.215   4.608  11.138  0.4537  0.6344 -2.1394
   23SAPC  H12B 2972   0.264   4.467  11.049  0.3491 -1.4099  1.0521
   23SAPC   C13 2973   0.279   4.529  11.377 -0.1961 -0.1004 -0.0389
   23SAPC  H13A 2974   0.197   4.597  11.359  0.2121 -0.3981 -3.6448
   23SAPC  H13B 2975   0.267   4.457  11.457  2.5586 -2.7590 -1.8093
   23SAPC  H13C 2976   0.361   4.599  11.389 -1.3933  1.1073  1.6277
   23SAPC   C14 2977   0.168   4.365  11.263 -0.5316  0.4731  0.2538
   23SAPC  H14A 2978   0.082   4.430  11.264 -0.7258  0.2135  1.0126
   23SAPC  H14B 2979   0.163   4.293  11.182  2.0276 -3.1257  2.9434
   23SAPC  H14C 2980   0.163   4.309  11.355 -0.3964  0.3620  0.1951
   23SAPC   C15 2981   0.418   4.361  11.247 -0.6261 -0.0280  0.1599
   23SAPC  H15A 2982   0.512   4.416  11.246 -0.2534 -0.5336 -3.0051
   23SAPC  H15B 2983   0.432   4.302  11.336  1.7834  2.8498  1.8757
   23SAPC  H15C 2984   0.438   4.307  11.156 -0.8297  1.7838 -1.0224
   23SAPC   C11 2985   0.429   4.592  11.083  0.0171 -0.2263  0.3049
   23SAPC  H11A 2986   0.477   4.501  11.043  1.1264  0.3491  0.2910
   23SAPC  H11B 2987   0.494   4.637  11.162  0.8109  1.0524 -1.0123
   23SAPC     P 2988   0.339   4.816  10.980  0.5796 -0.3826  0.0067
   23SAPC   O13 2989   0.250   4.828  11.097 -0.0948 -0.1901  0.1199
   23SAPC   O14 2990   0.433   4.929  10.959  0.9609  0.9205  0.1129
   23SAPC   O12 2991   0.409   4.682  10.972  0.1020 -0.1395 -0.1110
   23SAPC   O11 2992   0.241   4.801  10.859  0.0774  0.0757  0.1252
   23SAPC    C1 2993   0.211   4.672  10.793 -0.3637  0.0699 -0.8805
   23SAPC    HA 2994   0.192   4.596  10.872  0.3984  2.2564  1.5362
   23SAPC    HB 2995   0.120   4.679  10.730  0.6703  1.1991 -2.3149
   23SAPC    C2 2996   0.328   4.620  10.693  0.5298  0.1049  0.4159
   23SAPC    HS 2997   0.424   4.633  10.749  0.7545  1.8889 -0.3007
   23SAPC   O21 2998   0.325   4.703  10.576 -0.0067  0.2457  0.1408
   23SAPC   C21 2999   0.449   4.718  10.515 -0.5439  0.3865  0.4016
   23SAPC   O22 3000   0.553   4.682  10.569  0.0697 -0.4053 -0.3604
   23SAPC   C22 3001   0.440   4.768  10.374 -0.2742  0.0145 -0.0184
   23SAPC   H2R 3002   0.379   4.692  10.322  1.1905 -1.0237 -0.2840
   23SAPC   H2S 3003   0.383   4.862  10.390 -0.2673  0.7914 -3.7503
   23SAPC    C3 3004   0.316   4.473  10.660  1.1916  0.0649  0.2215
   23SAPC    HX 3005   0.339   4.408  10.747 -0.2550  0.7335  1.1406
   23SAPC    HY 3006   0.400   4.450  10.591  2.0019  0.4017  1.0752
   23SAPC   O31 3007   0.180   4.451  10.607 -0.1521 -0.2807  0.0902
   23SAPC   C31 3008   0.146   4.475  10.478  0.1875  0.4636  0.4814
   23SAPC   O32 3009   0.225   4.513  10.394  0.2566  0.0167 -0.1683
   23SAPC   C32 3010   0.003   4.429  10.453 -0.2927 -0.2292 -0.5622
   23SAPC   H2X 3011  -0.051   4.522  10.483  0.0266 -0.5146  0.9721
   23SAPC   H2Y 3012  -0.031   4.351  10.525 -0.0821 -0.9026 -1.1849
   23SAPC   C23 3013   0.568   4.800  10.298  0.2091 -0.2126  0.2822
   23SAPC   H3R 3014   0.646   4.817  10.376  0.4562 -0.4869  0.0972
   23SAPC   H3S 3015   0.551   4.893  10.239 -2.3443 -0.4384  0.5740
   23SAPC   C24 3016   0.608   4.682  10.207  0.2680  0.8245 -0.0709
   23SAPC   H4R 3017   0.535   4.673  10.124 -0.5318 -0.9484  0.7646
   23SAPC   H4S 3018   0.604   4.587  10.265  2.0323  0.1958 -0.9110
   23SAPC   C25 3019   0.744   4.675  10.143  0.0426 -0.4875 -0.5790
   23SAPC   H5R 3020   0.817   4.595  10.168  0.4074 -0.0952 -0.3741
   23SAPC   C26 3021   0.782   4.749  10.032  0.4450  0.4299 -0.3037
   23SAPC   H6R 3022   0.886   4.729  10.003  0.4737 -1.7643  1.1269
   23SAPC   C27 3023   0.690   4.843   9.958  0.3608  0.8669  0.2078
   23SAPC   H7R 3024   0.744   4.926   9.908  0.8751 -0.5778 -1.7441
   23SAPC   H7S 3025   0.613   4.883  10.028 -0.5560 -0.4650 -0.0021
   23SAPC   C28 3026   0.615   4.761   9.854  0.0298  0.6166  0.4460
   23SAPC   H8R 3027   0.538   4.695   9.896  1.0586 -0.7275  0.2916
   23SAPC   C29 3028   0.636   4.750   9.719 -0.1071 -0.1757 -0.0853
   23SAPC   H9R 3029   0.563   4.684   9.669 -1.6165 -0.3763  2.1784
   23SAPC  C210 3030   0.747   4.815   9.637  0.3149 -1.3492 -0.1584
   23SAPC  H10R 3031   0.794   4.736   9.573 -3.1063 -2.4538 -1.5682
   23SAPC  H10S 3032   0.829   4.850   9.703 -1.2626 -2.5473  2.5946
   23SAPC  C211 3033   0.672   4.923   9.557  0.5890 -0.0330 -0.3160
   23SAPC  H11R 3034   0.645   5.012   9.614  0.3680  0.3906 -1.0692
   23SAPC  C212 3035   0.653   4.926   9.427 -0.4543  0.4938 -0.2972
   23SAPC  H12R 3036   0.591   5.003   9.377  0.1950  0.6237 -0.9179
   23SAPC  C213 3037   0.712   4.820   9.337 -0.2705 -0.2007 -0.0319
   23SAPC  H13R 3038   0.628   4.774   9.281  0.5874 -0.0422 -1.4808
   23SAPC  H13S 3039   0.748   4.726   9.385  0.9480 -0.5355 -1.5147
   23SAPC  C214 3040   0.815   4.861   9.234 -0.2175 -0.2835  0.3896
   23SAPC  H14R 3041   0.921   4.869   9.260 -0.5874  1.7365  1.5662
   23SAPC  C215 3042   0.788   4.910   9.108  0.3063 -0.5938 -0.1577
   23SAPC  H15R 3043   0.868   4.929   9.035 -0.7484 -2.3860 -1.9012
   23SAPC  C216 3044   0.648   4.928   9.045  0.6354  0.5083 -0.4058
   23SAPC  H16R 3045   0.657   5.019   8.982  1.9981  0.0922 -0.8605
   23SAPC  H16S 3046   0.573   4.952   9.124  0.7674  1.9737 -0.7132
   23SAPC  C217 3047   0.608   4.822   8.948  0.5141  0.0906  0.5249
   23SAPC  H17R 3048   0.498   4.824   8.931  0.6477  1.8318 -0.3483
   23SAPC  H17S 3049   0.635   4.720   8.982  0.8339 -0.5459 -1.4994
   23SAPC  C218 3050   0.668   4.847   8.803  0.0447  0.1274 -0.3427
   23SAPC  H18R 3051   0.778   4.853   8.814  0.3932 -3.5932 -0.3847
   23SAPC  H18S 3052   0.628   4.941   8.759 -0.3869  0.7225  1.2734
   23SAPC  C219 3053   0.642   4.736   8.697  0.2213  0.5076 -0.3272
   23SAPC  H19R 3054   0.662   4.640   8.749 -1.8548  0.1456 -0.0751
   23SAPC  H19S 3055   0.706   4.761   8.610  2.0390  1.4055  1.1981
   23SAPC  C220 3056   0.500   4.733   8.647 -0.2656  0.1165 -0.7655
   23SAPC  H20R 3057   0.428   4.735   8.732 -1.1618 -3.2441 -1.2738
   23SAPC  H20S 3058   0.480   4.642   8.586  2.2773 -1.7406  0.9720
   23SAPC  H20T 3059   0.490   4.824   8.584  0.8647  0.0698 -1.0278
   23SAPC   C33 3060  -0.025   4.375  10.310  0.0246 -0.6924  0.2222
   23SAPC   H3X 3061   0.021   4.274  10.307 -0.8779 -1.0866 -1.4334
   23SAPC   H3Y 3062   0.030   4.447  10.245  0.1736 -0.5989  0.4501
   23SAPC   C34 3063  -0.171   4.375  10.276 -0.4608  0.4360 -0.3899
   23SAPC   H4X 3064  -0.215   4.476  10.264 -0.3064  0.5062 -0.3671
   23SAPC   H4Y 3065  -0.227   4.337  10.365 -2.0206  0.2793 -1.4058
   23SAPC   C35 3066  -0.217   4.284  10.164  0.0910  0.0694 -0.4605
   23SAPC   H5X 3067  -0.325   4.296  10.141  0.2441  0.0715 -1.2093
   23SAPC   H5Y 3068  -0.212   4.177  10.193 -0.6410  0.0864 -0.2431
   23SAPC   C36 3069  -0.142   4.298  10.028  0.2943 -0.3380 -0.3043
   23SAPC   H6X 3070  -0.054   4.231  10.037 -0.7899 -1.6903  0.6272
   23SAPC   H6Y 3071  -0.105   4.402  10.021  3.0384 -1.0060  2.2878
   23SAPC   C37 3072  -0.230   4.261   9.906 -0.4010 -0.0801  0.0116
   23SAPC   H7X 3073  -0.325   4.318   9.900 -0.9534 -1.0032 -0.2726
   23SAPC   H7Y 3074  -0.248   4.151   9.902  0.8823 -0.3363  0.8473
   23SAPC   C38 3075  -0.152   4.282   9.773  0.3324 -0.5890  0.4841
   23SAPC   H8X 3076  -0.063   4.216   9.787  0.8762  0.0476  0.0995
   23SAPC   H8Y 3077  -0.110   4.385   9.770  1.6514 -1.1141 -2.0846
   23SAPC   C39 3078  -0.232   4.247   9.654 -0.1282  0.7703  0.7345
   23SAPC   H9X 3079  -0.329   4.300   9.651 -0.1818  0.6550  0.1207
   23SAPC   H9Y 3080  -0.248   4.137   9.645  2.3532  0.3743  0.2738
   23SAPC  C310 3081  -0.177   4.287   9.516  0.2267  0.0122  0.2888
   23SAPC  H10X 3082  -0.069   4.262   9.516  1.4556  4.3900  1.1540
   23SAPC  H10Y 3083  -0.179   4.398   9.513  0.7660  0.0797  1.8286
   23SAPC  C311 3084  -0.259   4.242   9.404 -0.1850 -0.3735 -0.2704
   23SAPC  H11X 3085  -0.362   4.282   9.415 -0.1124  0.0233 -0.9752
   23SAPC  H11Y 3086  -0.274   4.132   9.415  0.9056 -0.3704  1.7286
   23SAPC  C312 3087  -0.198   4.258   9.267  0.4332 -0.5842 -0.5280
   23SAPC  H12X 3088  -0.119   4.184   9.240  0.9412 -0.3529  0.3040
   23SAPC  H12Y 3089  -0.154   4.360   9.270 -1.6981  0.3722  0.1912
   23SAPC  C313 3090  -0.301   4.251   9.156 -0.0780 -0.0653 -0.0292
   23SAPC  H13X 3091  -0.378   4.328   9.178  0.7804  0.5259  0.9742
   23SAPC  H13Y 3092  -0.350   4.151   9.166 -1.2621  0.7197  2.9807
   23SAPC  C314 3093  -0.244   4.265   9.016 -1.1489  0.0543  0.4297
   23SAPC  H14X 3094  -0.161   4.191   9.009 -2.8424 -1.8628 -0.4944
   23SAPC  H14Y 3095  -0.211   4.369   8.995 -0.6453  0.0661  1.2391
   23SAPC  C315 3096  -0.329   4.221   8.892 -0.3433  0.3147  0.3451
   23SAPC  H15X 3097  -0.426   4.275   8.894  0.0628  1.2534 -2.3526
   23SAPC  H15Y 3098  -0.348   4.111   8.893  0.9153  0.0727 -0.6600
   23SAPC  C316 3099  -0.260   4.235   8.759 -0.1867 -0.2734 -0.3986
   23SAPC  H16X 3100  -0.164   4.179   8.769 -0.2716 -0.4570 -0.6086
   23SAPC  H16Y 3101  -0.247   4.345   8.751  0.1312  0.0007  2.5263
   23SAPC  C317 3102  -0.327   4.174   8.635 -0.3962  0.1738  0.3849
   23SAPC  H17X 3103  -0.395   4.097   8.677 -1.6258  1.2710  0.4754
   23SAPC  H17Y 3104  -0.248   4.135   8.567 -2.8219  0.3323 -2.7867
   23SAPC  C318 3105  -0.415   4.267   8.555  0.0525 -0.0546 -0.2713
   23SAPC  H18X 3106  -0.451   4.221   8.461 -0.8271  1.8009 -0.8858
   23SAPC  H18Y 3107  -0.354   4.354   8.524  0.1063  0.5641  1.4708
   23SAPC  H18Z 3108  -0.501   4.314   8.607  0.3632  0.2868 -0.0629
   24SAPC     N 3109   1.043   0.741  11.257 -0.1525 -0.4194  0.3809
   24SAPC   C12 3110   0.952   0.639  11.197 -0.3003 -0.5111  0.3195
   24SAPC  H12A 3111   0.870   0.688  11.147 -0.4554  0.4519  1.4860
   24SAPC  H12B 3112   0.901   0.584  11.275  0.4204  0.1148  1.2513
   24SAPC   C13 3113   1.100   0.829  11.150 -0.4229 -0.0072  0.1469
   24SAPC  H13A 3114   1.172   0.782  11.084 -0.4722  1.4517 -1.0034
   24SAPC  H13B 3115   1.018   0.869  11.092 -0.5633  1.3739  1.2630
   24SAPC  H13C 3116   1.161   0.901  11.203  0.9057 -0.7526 -0.2973
   24SAPC   C14 3117   0.951   0.820  11.346  0.2631 -0.5104 -0.5301
   24SAPC  H14A 3118   0.871   0.865  11.289 -1.7107 -1.8641  1.0394
   24SAPC  H14B 3119   0.898   0.752  11.410 -1.2221  0.6685 -0.4530
   24SAPC  H14C 3120   0.997   0.889  11.416 -0.2827 -2.1042  1.4821
   24SAPC   C15 3121   1.155   0.681  11.332 -0.0303  0.4704  0.4359
   24SAPC  H15A 3122   1.232   0.644  11.265 -0.2534  0.3739  0.2281
   24SAPC  H15B 3123   1.202   0.755  11.394  2.5039  0.0601 -0.8546
   24SAPC  H15C 3124   1.126   0.591  11.385 -2.9328  1.0383 -0.0127
   24SAPC   C11 3125   1.002   0.533  11.099 -0.4653 -0.9335  0.2931
   24SAPC  H11A 3126   0.943   0.440  11.086 -0.1836 -0.9426 -1.0793
   24SAPC  H11B 3127   1.099   0.498  11.139  0.1240 -0.6072 -0.8040
   24SAPC     P 3128   0.917   0.632  10.876  0.1066  0.0123  0.2986
   24SAPC   O13 3129   0.808   0.699  10.958  0.6256 -0.4247 -0.0925
   24SAPC   O14 3130   0.977   0.700  10.757 -0.2032 -0.9626  0.0502
   24SAPC   O12 3131   1.028   0.577  10.969 -0.3125  0.3482 -0.2070
   24SAPC   O11 3132   0.857   0.496  10.829 -0.5079  0.0874  0.2547
   24SAPC    C1 3133   0.928   0.393  10.756  0.6302  0.0646  0.3394
   24SAPC    HA 3134   1.028   0.429  10.722  0.7183 -1.2079 -0.7966
   24SAPC    HB 3135   0.950   0.306  10.821 -0.9576  0.2063  1.1045
   24SAPC    C2 3136   0.858   0.354  10.627  0.6193  0.2385 -0.6267
   24SAPC    HS 3137   0.901   0.262  10.581 -0.2495 -0.9936  0.9464
   24SAPC   O21 3138   0.860   0.464  10.539  0.0451  0.8657  0.3291
   24SAPC   C21 3139   0.975   0.485  10.478  0.7624 -0.7682 -0.4873
   24SAPC   O22 3140   1.079   0.426  10.488  0.2907  0.4419 -0.3093
   24SAPC   C22 3141   0.961   0.609  10.387  0.2831  0.3015  0.4151
   24SAPC   H2R 3142   0.924   0.697  10.445 -1.3494 -0.2158  0.2062
   24SAPC   H2S 3143   1.062   0.636  10.349 -0.7583  2.6492 -0.9202
   24SAPC    C3 3144   0.708   0.328  10.658 -0.3069  0.4122 -0.5070
   24SAPC    HX 3145   0.670   0.419  10.710  0.7563  0.3816  0.3646
   24SAPC    HY 3146   0.695   0.249  10.735 -2.7994  0.7264 -0.5180
   24SAPC   O31 3147   0.643   0.286  10.544 -0.2476  0.6537  0.0042
   24SAPC   C31 3148   0.592   0.387  10.471 -0.4050  0.2308  0.2063
   24SAPC   O32 3149   0.574   0.500  10.514  0.2786  0.1206 -0.5106
   24SAPC   C32 3150   0.556   0.337  10.326 -0.0486 -0.1957  0.4046
   24SAPC   H2X 3151   0.515   0.233  10.326  2.5067 -1.3265 -2.2138
   24SAPC   H2Y 3152   0.644   0.339  10.259 -1.4639 -1.7019 -1.6420
   24SAPC   C23 3153   0.871   0.595  10.259 -0.3945 -0.5214  0.2254
   24SAPC   H3R 3154   0.771   0.571  10.302  0.5725  0.6431  3.4535
   24SAPC   H3S 3155   0.909   0.512  10.196  0.1656 -0.3221  0.3003
   24SAPC   C24 3156   0.867   0.727  10.186  0.4812 -0.4070 -0.1128
   24SAPC   H4R 3157   0.849   0.804  10.264  0.4016 -0.0208 -0.5099
   24SAPC   H4S 3158   0.775   0.728  10.124  1.4336 -2.5070 -1.6997
   24SAPC   C25 3159   0.984   0.766  10.099 -0.4373 -0.0876 -0.0811
   24SAPC   H5R 3160   1.075   0.788  10.157 -0.8790 -1.8254  1.3608
   24SAPC   C26 3161   0.982   0.768   9.967 -0.2825  0.0794  1.0548
   24SAPC   H6R 3162   1.077   0.787   9.916  0.2461 -2.1750  1.1331
   24SAPC   C27 3163   0.877   0.729   9.875 -0.2981 -0.6265  0.3129
   24SAPC   H7R 3164   0.871   0.820   9.811 -1.7174  1.2927  2.9739
   24SAPC   H7S 3165   0.777   0.717   9.922 -1.2787 -0.7509 -1.6815
   24SAPC   C28 3166   0.917   0.607   9.791 -0.2096 -0.3774 -0.0871
   24SAPC   H8R 3167   0.993   0.547   9.844  0.7957 -0.8309 -1.9610
   24SAPC   C29 3168   0.874   0.578   9.664 -0.7109 -0.3884  0.1158
   24SAPC   H9R 3169   0.919   0.489   9.617  0.9531 -0.0479  0.9957
   24SAPC  C210 3170   0.776   0.654   9.586 -0.0312 -0.2309 -0.5491
   24SAPC  H10R 3171   0.831   0.694   9.499 -2.6478  1.2948 -1.6353
   24SAPC  H10S 3172   0.724   0.734   9.645  0.7690 -0.0451 -0.0790
   24SAPC  C211 3173   0.675   0.560   9.530 -0.4195 -0.1516  0.2618
   24SAPC  H11R 3174   0.694   0.452   9.540  0.9274 -0.0279 -0.6044
   24SAPC  C212 3175   0.559   0.587   9.467 -0.7347 -0.8780 -0.2511
   24SAPC  H12R 3176   0.497   0.503   9.433  0.5033 -2.8260  2.0434
   24SAPC  C213 3177   0.502   0.726   9.432 -0.5084  0.6378  0.0921
   24SAPC  H13R 3178   0.471   0.736   9.326 -0.4280  2.2143  0.1929
   24SAPC  H13S 3179   0.586   0.796   9.452 -0.3366  0.3165  0.5142
   24SAPC  C214 3180   0.398   0.771   9.534 -1.5404 -0.4690 -0.4017
   24SAPC  H14R 3181   0.436   0.827   9.621 -1.3667 -1.3854  0.1290
   24SAPC  C215 3182   0.267   0.754   9.526 -0.1911 -1.0904 -0.3486
   24SAPC  H15R 3183   0.207   0.795   9.608  0.0948  0.7754 -1.0308
   24SAPC  C216 3184   0.193   0.681   9.430  0.0324 -0.1576  0.1867
   24SAPC  H16R 3185   0.261   0.648   9.348 -0.9980 -1.2216 -0.2761
   24SAPC  H16S 3186   0.117   0.749   9.386  0.3684 -0.5315 -1.0310
   24SAPC  C217 3187   0.124   0.561   9.482  0.4661 -0.5726  0.1343
   24SAPC  H17R 3188   0.185   0.492   9.544  1.9099  1.0646  0.5994
   24SAPC  H17S 3189   0.102   0.505   9.389  0.0687  0.9588 -0.7310
   24SAPC  C218 3190   0.001   0.601   9.560  0.0342 -0.3100  0.0681
   24SAPC  H18R 3191   0.023   0.671   9.643 -1.3721  0.7256 -0.4036
   24SAPC  H18S 3192  -0.037   0.504   9.598 -0.5427 -0.1487 -0.0972
   24SAPC  C219 3193  -0.117   0.666   9.488  0.0892 -0.0735  0.3889
   24SAPC  H19R 3194  -0.147   0.597   9.407 -0.9795 -3.0944  3.1249
   24SAPC  H19S 3195  -0.081   0.757   9.436  1.6078 -1.0060 -0.2846
   24SAPC  C220 3196  -0.254   0.693   9.559 -0.4881 -0.2654  0.5553
   24SAPC  H20R 3197  -0.308   0.765   9.493  0.7569 -1.3755 -1.8038
   24SAPC  H20S 3198  -0.236   0.755   9.649 -0.0409 -0.2151  0.4353
   24SAPC  H20T 3199  -0.329   0.614   9.576  0.7036 -1.5685 -0.0645
   24SAPC   C33 3200   0.459   0.438  10.261  0.6859 -0.3170 -0.1535
   24SAPC   H3X 3201   0.498   0.542  10.272  1.5953 -0.6051 -0.5984
   24SAPC   H3Y 3202   0.362   0.424  10.313 -0.0006 -0.9429 -1.5363
   24SAPC   C34 3203   0.454   0.414  10.108  0.6083 -0.9021 -0.5817
   24SAPC   H4X 3204   0.371   0.476  10.069  0.1864 -0.7933  0.4636
   24SAPC   H4Y 3205   0.417   0.311  10.086  1.9595 -1.4094 -0.5975
   24SAPC   C35 3206   0.588   0.431  10.032  0.6717 -0.2574  0.8772
   24SAPC   H5X 3207   0.652   0.343  10.050  0.9935 -0.9058 -2.6476
   24SAPC   H5Y 3208   0.629   0.529  10.064 -1.7598  1.4339 -0.7750
   24SAPC   C36 3209   0.561   0.434   9.880  0.0413 -0.4089 -0.0847
   24SAPC   H6X 3210   0.661   0.455   9.837 -0.2001  0.7668 -0.0836
   24SAPC   H6Y 3211   0.484   0.513   9.869 -0.6876 -1.2207 -0.9774
   24SAPC   C37 3212   0.495   0.305   9.820 -0.7641  0.2868 -0.1752
   24SAPC   H7X 3213   0.396   0.288   9.866 -0.1323 -0.2268  1.0241
   24SAPC   H7Y 3214   0.552   0.212   9.842 -1.1325  0.2245  0.5255
   24SAPC   C38 3215   0.451   0.308   9.670  0.0278 -1.2015 -0.3241
   24SAPC   H8X 3216   0.545   0.313   9.610  0.2925 -0.6930  0.1197
   24SAPC   H8Y 3217   0.394   0.403   9.659 -0.3103 -1.4109 -0.3635
   24SAPC   C39 3218   0.367   0.186   9.621  0.1638 -0.6601  0.4366
   24SAPC   H9X 3219   0.275   0.172   9.681 -0.3889 -0.8287 -0.4379
   24SAPC   H9Y 3220   0.429   0.094   9.628  1.2417  0.0676  0.7550
   24SAPC  C310 3221   0.329   0.206   9.471  0.7225  0.2995 -1.2602
   24SAPC  H10X 3222   0.281   0.304   9.450  1.2726  0.5792 -1.2315
   24SAPC  H10Y 3223   0.255   0.128   9.443 -1.1224  0.4309  2.5990
   24SAPC  C311 3224   0.446   0.192   9.378 -0.7389  0.4371 -0.3404
   24SAPC  H11X 3225   0.512   0.103   9.387 -2.1786 -0.6438 -0.1059
   24SAPC  H11Y 3226   0.517   0.277   9.390 -1.5214  0.8819  1.4084
   24SAPC  C312 3227   0.402   0.195   9.224  0.2102  0.9863 -0.0928
   24SAPC  H12X 3228   0.310   0.137   9.200  2.2964 -2.7488  0.2285
   24SAPC  H12Y 3229   0.468   0.123   9.172 -1.1543  0.3330 -1.0011
   24SAPC  C313 3230   0.434   0.325   9.159 -0.1485 -0.2922  0.5570
   24SAPC  H13X 3231   0.532   0.365   9.193 -0.4004 -0.3904  1.4368
   24SAPC  H13Y 3232   0.359   0.400   9.193  0.8374 -0.1705  2.6418
   24SAPC  C314 3233   0.440   0.319   9.004  0.9268 -0.5629  0.1109
   24SAPC  H14X 3234   0.345   0.271   8.972  1.2265 -0.3150 -1.2178
   24SAPC  H14Y 3235   0.524   0.253   8.973  1.8118  0.9261 -0.8214
   24SAPC  C315 3236   0.458   0.458   8.934  0.2474  0.3266 -0.1754
   24SAPC  H15X 3237   0.479   0.431   8.828  1.1281  1.7304 -0.3885
   24SAPC  H15Y 3238   0.550   0.501   8.979  0.0504 -0.8579  1.4598
   24SAPC  C316 3239   0.322   0.544   8.938 -0.8201  0.7000  0.1061
   24SAPC  H16X 3240   0.307   0.582   9.041  2.1819 -0.5083  1.1103
   24SAPC  H16Y 3241   0.235   0.477   8.919 -0.1526 -0.9071  2.2821
   24SAPC  C317 3242   0.334   0.658   8.842 -0.0769 -0.4965 -0.1132
   24SAPC  H17X 3243   0.239   0.714   8.850 -0.9511 -1.6712 -1.6794
   24SAPC  H17Y 3244   0.337   0.617   8.739  0.9141 -2.1655  0.5247
   24SAPC  C318 3245   0.454   0.748   8.863 -0.1438  0.4724  0.4558
   24SAPC  H18X 3246   0.548   0.702   8.828  0.6801  1.8044  0.8394
   24SAPC  H18Y 3247   0.475   0.780   8.967 -0.0619 -0.5848  0.7751
   24SAPC  H18Z 3248   0.449   0.834   8.793 -0.1020 -0.2397 -0.4363
   25SAPC     N 3249   4.409   3.088   6.115 -0.5608  0.5370 -0.0961
   25SAPC   C12 3250   4.393   3.206   6.205 -0.5844 -0.5983  0.0677
   25SAPC  H12A 3251   4.379   3.293   6.143  1.3813  0.6158  1.2359
   25SAPC  H12B 3252   4.485   3.229   6.257 -0.8961  0.0795  0.3278
   25SAPC   C13 3253   4.522   3.106   6.023 -0.2179  0.1493 -0.1031
   25SAPC  H13A 3254   4.501   3.190   5.958  0.7430  0.4464 -0.0526
   25SAPC  H13B 3255   4.610   3.133   6.080 -1.0594  2.7694  0.0895
   25SAPC  H13C 3256   4.533   3.016   5.965 -1.7568  1.5859 -2.8387
   25SAPC   C14 3257   4.435   2.960   6.201 -0.1969  0.6999  0.1771
   25SAPC  H14A 3258   4.518   2.972   6.268 -1.9971  1.8901  2.3313
   25SAPC  H14B 3259   4.352   2.941   6.268  0.3131  1.5071  1.0638
   25SAPC  H14C 3260   4.465   2.884   6.131  0.2341  2.7097 -1.9654
   25SAPC   C15 3261   4.283   3.074   6.041 -0.2396 -0.0305  0.0043
   25SAPC  H15A 3262   4.201   3.077   6.112 -0.2172 -0.0363  0.0304
   25SAPC  H15B 3263   4.255   3.161   5.984  0.0008 -0.3984 -0.6746
   25SAPC  H15C 3264   4.287   2.987   5.977 -0.7603 -2.7783  3.3792
   25SAPC   C11 3265   4.285   3.199   6.311  0.2697  0.5649  0.3263
   25SAPC  H11A 3266   4.285   3.288   6.378 -0.3203  0.4714  0.4626
   25SAPC  H11B 3267   4.310   3.104   6.363 -2.4992  0.6544  2.0384
   25SAPC     P 3268   4.089   3.315   6.180  0.0532 -0.3265  0.0656
   25SAPC   O13 3269   4.199   3.367   6.097  0.4419 -0.1293  0.2390
   25SAPC   O14 3270   3.962   3.278   6.114 -0.2723 -0.0116  0.5613
   25SAPC   O12 3271   4.153   3.188   6.261 -0.4230 -0.5259 -0.7632
   25SAPC   O11 3272   4.057   3.418   6.302  0.3867  0.1304  0.5541
   25SAPC    C1 3273   3.926   3.444   6.352  0.6140  0.6988 -0.1275
   25SAPC    HA 3274   3.932   3.553   6.371 -2.2585  0.8970  0.1645
   25SAPC    HB 3275   3.844   3.432   6.278 -1.6258  1.6954  2.0659
   25SAPC    C2 3276   3.880   3.369   6.482 -0.7159 -0.1004 -0.1027
   25SAPC    HS 3277   3.801   3.423   6.539  0.1992  0.1232  0.9897
   25SAPC   O21 3278   4.000   3.345   6.561 -0.3217  0.6397 -0.0492
   25SAPC   C21 3279   4.034   3.452   6.631  0.2511 -0.1623 -0.4179
   25SAPC   O22 3280   3.965   3.551   6.642  0.2349  0.0527 -0.0232
   25SAPC   C22 3281   4.179   3.436   6.686 -0.9123  0.4603 -0.4780
   25SAPC   H2R 3282   4.205   3.328   6.681 -0.0833  0.6686 -0.6714
   25SAPC   H2S 3283   4.242   3.479   6.606  0.3144 -0.1481  0.1349
   25SAPC    C3 3284   3.811   3.232   6.454  0.8246 -0.5451  0.0134
   25SAPC    HX 3285   3.869   3.188   6.370 -0.6873  0.8407 -1.8517
   25SAPC    HY 3286   3.714   3.245   6.401  0.9641  2.4312  0.3324
   25SAPC   O31 3287   3.792   3.154   6.574  0.6659 -0.2780  0.3624
   25SAPC   C31 3288   3.885   3.069   6.609  0.2840  0.4049 -0.0708
   25SAPC   O32 3289   3.984   3.039   6.545  0.2697  0.1599 -0.1989
   25SAPC   C32 3290   3.864   3.006   6.745  0.1732 -0.4724  0.1677
   25SAPC   H2X 3291   3.780   2.933   6.751 -0.3867  0.1132 -0.4082
   25SAPC   H2Y 3292   3.853   3.087   6.819 -0.3359 -0.9137  0.5869
   25SAPC   C23 3293   4.204   3.502   6.823 -0.2474  0.2271 -0.1128
   25SAPC   H3R 3294   4.152   3.601   6.827 -0.5391  0.0900 -0.4732
   25SAPC   H3S 3295   4.315   3.506   6.827 -0.1863 -1.3539  0.0809
   25SAPC   C24 3296   4.155   3.414   6.943  0.7696 -0.0311  0.0265
   25SAPC   H4R 3297   4.046   3.412   6.922  1.0802 -0.9402 -1.6579
   25SAPC   H4S 3298   4.160   3.472   7.038  1.0210  0.8363 -0.5066
   25SAPC   C25 3299   4.230   3.285   6.946  0.3666  0.1435 -0.3502
   25SAPC   H5R 3300   4.253   3.232   6.852  2.4864  1.2094 -0.5035
   25SAPC   C26 3301   4.280   3.244   7.062  0.4558 -0.4036  0.7492
   25SAPC   H6R 3302   4.317   3.141   7.055  2.6494  0.3052  1.1556
   25SAPC   C27 3303   4.261   3.300   7.198  0.4341 -0.4503 -0.2663
   25SAPC   H7R 3304   4.151   3.312   7.213  0.3339 -2.0531  0.4697
   25SAPC   H7S 3305   4.301   3.404   7.197 -1.6655  0.4222  0.1916
   25SAPC   C28 3306   4.323   3.234   7.316 -0.1158 -0.0927  0.0668
   25SAPC   H8R 3307   4.423   3.277   7.335 -0.6712  0.8806  0.8868
   25SAPC   C29 3308   4.261   3.136   7.392 -1.1817  0.0281  0.4215
   25SAPC   H9R 3309   4.306   3.101   7.487 -0.0792  1.2306  0.3636
   25SAPC  C210 3310   4.126   3.070   7.363  0.3163 -0.2681  0.4244
   25SAPC  H10R 3311   4.073   3.128   7.284  3.2398  0.3466 -1.2115
   25SAPC  H10S 3312   4.061   3.095   7.450 -0.3674  1.8870 -0.6168
   25SAPC  C211 3313   4.128   2.922   7.342 -0.0556 -0.4805 -0.8415
   25SAPC  H11R 3314   4.219   2.882   7.293  1.9156  0.7826  1.5542
   25SAPC  C212 3315   4.039   2.831   7.399 -0.7988 -0.9916  0.7192
   25SAPC  H12R 3316   4.049   2.723   7.382  0.3960 -0.4063 -3.4204
   25SAPC  C213 3317   3.922   2.877   7.476  0.4721  0.6224  0.3558
   25SAPC  H13R 3318   3.859   2.950   7.422 -0.0077  1.1419  1.5804
   25SAPC  H13S 3319   3.960   2.935   7.563  1.3016 -0.3461  0.6603
   25SAPC  C214 3320   3.829   2.772   7.533 -0.1902 -0.0801  0.1091
   25SAPC  H14R 3321   3.738   2.746   7.476 -1.1107  1.4776  0.8050
   25SAPC  C215 3322   3.853   2.697   7.646 -0.1055  0.1311  0.2379
   25SAPC  H15R 3323   3.783   2.616   7.669 -0.2726 -0.3441 -1.7734
   25SAPC  C216 3324   3.977   2.707   7.731 -0.0016 -0.1521  0.3628
   25SAPC  H16R 3325   4.035   2.795   7.697 -0.8906  0.8466  1.3283
   25SAPC  H16S 3326   4.036   2.615   7.715 -0.2822 -0.4678  1.0864
   25SAPC  C217 3327   3.944   2.719   7.879  0.0278 -0.3778  0.2449
   25SAPC  H17R 3328   4.023   2.674   7.943 -0.4139  1.4109  2.1736
   25SAPC  H17S 3329   3.855   2.657   7.903 -0.8262  0.4294 -0.7864
   25SAPC  C218 3330   3.922   2.863   7.932 -0.1918 -0.1188 -0.6523
   25SAPC  H18R 3331   4.021   2.905   7.905 -0.4869  0.5981 -0.6634
   25SAPC  H18S 3332   3.907   2.871   8.042 -2.6551  2.6031 -1.0466
   25SAPC  C219 3333   3.815   2.939   7.871  0.2437  0.0316 -0.3807
   25SAPC  H19R 3334   3.832   2.954   7.763  0.3622  0.8616 -0.2530
   25SAPC  H19S 3335   3.809   3.042   7.910 -0.7948 -1.1912  3.0864
   25SAPC  C220 3336   3.674   2.880   7.902 -0.2863  0.5603 -0.4339
   25SAPC  H20R 3337   3.596   2.947   7.862 -2.0967 -0.6576  0.9059
   25SAPC  H20S 3338   3.653   2.869   8.010  1.0632  0.9105 -0.1218
   25SAPC  H20T 3339   3.665   2.775   7.866  2.4569 -1.0431  2.9513
   25SAPC   C33 3340   3.990   2.922   6.796  0.2575  0.6512 -0.3261
   25SAPC   H3X 3341   4.082   2.983   6.790 -1.2236  3.0522  0.0612
   25SAPC   H3Y 3342   3.994   2.835   6.726  1.0303  0.1382  0.3355
   25SAPC   C34 3343   3.969   2.857   6.934 -0.2475  0.8167 -0.0387
   25SAPC   H4X 3344   3.930   2.931   7.007 -0.0696  2.0519 -1.1518
   25SAPC   H4Y 3345   4.069   2.830   6.972 -0.1376  0.4515 -0.5690
   25SAPC   C35 3346   3.895   2.723   6.932  0.7787 -0.2422 -0.4838
   25SAPC   H5X 3347   3.943   2.650   6.863 -0.5959 -2.9349  1.2205
   25SAPC   H5Y 3348   3.790   2.743   6.901  0.1137 -2.6923 -0.0049
   25SAPC   C36 3349   3.891   2.670   7.082 -0.5998 -0.4819  1.2574
   25SAPC   H6X 3350   3.866   2.755   7.150 -0.7220  0.7904 -0.3239
   25SAPC   H6Y 3351   3.992   2.629   7.102 -0.4905 -0.8570  0.0033
   25SAPC   C37 3352   3.792   2.559   7.107  0.4844  0.3041  0.5540
   25SAPC   H7X 3353   3.806   2.494   7.018 -0.6711  0.1838  0.4473
   25SAPC   H7Y 3354   3.691   2.603   7.094  0.0822 -0.8516 -0.4508
   25SAPC   C38 3355   3.813   2.478   7.240 -0.6275 -0.0473 -0.3993
   25SAPC   H8X 3356   3.806   2.552   7.322  2.0733  0.7377 -0.7852
   25SAPC   H8Y 3357   3.917   2.439   7.239 -0.1281  1.2346 -0.3795
   25SAPC   C39 3358   3.720   2.355   7.256 -0.7278  0.7788  0.6361
   25SAPC   H9X 3359   3.733   2.283   7.172  2.0197  0.7931  0.9673
   25SAPC   H9Y 3360   3.617   2.395   7.259 -0.6847  0.9164  0.3313
   25SAPC  C310 3361   3.764   2.271   7.380 -0.4611 -1.0765  0.2593
   25SAPC  H10X 3362   3.839   2.209   7.327 -0.2149 -0.1337 -0.5059
   25SAPC  H10Y 3363   3.677   2.206   7.405 -0.8071  0.0583  2.1986
   25SAPC  C311 3364   3.839   2.343   7.498 -0.3511  0.0327 -0.2558
   25SAPC  H11X 3365   3.788   2.442   7.506  0.5961  0.5167 -0.0674
   25SAPC  H11Y 3366   3.943   2.362   7.464 -0.0753  0.2522  0.6874
   25SAPC  C312 3367   3.839   2.261   7.627  0.4877  0.0509 -0.3476
   25SAPC  H12X 3368   3.907   2.173   7.619 -0.7822 -0.9040 -0.8926
   25SAPC  H12Y 3369   3.736   2.226   7.649  0.6193  1.8479  4.1316
   25SAPC  C313 3370   3.884   2.348   7.752  0.5342  0.7710 -0.0548
   25SAPC  H13X 3371   3.813   2.432   7.762 -0.3321  0.2781 -1.6519
   25SAPC  H13Y 3372   3.986   2.378   7.720  0.8079 -1.1632 -1.1463
   25SAPC  C314 3373   3.882   2.274   7.886 -0.2322 -0.4048 -0.0731
   25SAPC  H14X 3374   3.921   2.170   7.874  1.1850  0.3573 -2.7077
   25SAPC  H14Y 3375   3.784   2.269   7.939  1.2098 -1.2092  2.7699
   25SAPC  C315 3376   3.987   2.342   7.978 -0.0536 -0.0836  0.3992
   25SAPC  H15X 3377   3.964   2.450   7.990  0.1116 -0.0031  0.0038
   25SAPC  H15Y 3378   4.084   2.333   7.924 -0.9937  1.1291 -1.6113
   25SAPC  C316 3379   3.996   2.287   8.126 -0.7744  0.5196  0.4039
   25SAPC  H16X 3380   4.027   2.181   8.113  0.7137  0.9164  0.5766
   25SAPC  H16Y 3381   3.895   2.273   8.170 -1.0582 -1.7248 -0.7990
   25SAPC  C317 3382   4.108   2.364   8.211  0.5643  0.3238 -0.1787
   25SAPC  H17X 3383   4.103   2.344   8.320  0.3458  1.5549  0.0472
   25SAPC  H17Y 3384   4.081   2.471   8.205 -2.2194 -0.2921 -0.2832
   25SAPC  C318 3385   4.250   2.339   8.159 -0.0198 -0.0824 -0.3231
   25SAPC  H18X 3386   4.321   2.411   8.205 -2.2615  1.9107  0.1707
   25SAPC  H18Y 3387   4.262   2.342   8.049  3.2641 -1.4617 -0.1274
   25SAPC  H18Z 3388   4.275   2.231   8.172  1.7987  0.3314 -0.0402
   26SAPC     N 3389   2.396   4.528   6.061  0.0681 -0.2109  0.6002
   26SAPC   C12 3390   2.472   4.598   6.169 -0.6503 -0.0281 -0.1998
   26SAPC  H12A 3391   2.445   4.702   6.181 -0.0675  0.2193 -0.9787
   26SAPC  H12B 3392   2.573   4.610   6.132 -0.8343  0.6738 -0.4951
   26SAPC   C13 3393   2.385   4.612   5.931 -0.6776  0.1260 -0.5728
   26SAPC  H13A 3394   2.481   4.638   5.889 -0.7122  1.2739  0.0102
   26SAPC  H13B 3395   2.346   4.545   5.856 -1.8719 -0.9057  0.9113
   26SAPC  H13C 3396   2.327   4.703   5.933 -0.9750 -0.0700  0.4176
   26SAPC   C14 3397   2.474   4.408   6.011 -0.1221  0.1191  0.2014
   26SAPC  H14A 3398   2.483   4.336   6.092 -0.3520  0.7531  0.7971
   26SAPC  H14B 3399   2.424   4.353   5.933  0.2041 -1.1282  0.8391
   26SAPC  H14C 3400   2.577   4.431   5.987  0.9154 -3.4522  0.5013
   26SAPC   C15 3401   2.260   4.483   6.106  0.2866 -0.6138 -0.6689
   26SAPC  H15A 3402   2.280   4.440   6.203  2.1126 -1.0776 -1.2095
   26SAPC  H15B 3403   2.189   4.564   6.106  0.7139 -0.1944  1.3513
   26SAPC  H15C 3404   2.227   4.410   6.034 -2.1051 -0.7505  0.4656
   26SAPC   C11 3405   2.478   4.528   6.304  0.0994  0.4495 -0.0633
   26SAPC  H11A 3406   2.376   4.533   6.347 -1.0536  0.3197 -2.5784
   26SAPC  H11B 3407   2.558   4.581   6.360  1.3328 -1.1753 -0.2550
   26SAPC     P 3408   2.485   4.284   6.401 -0.0388  0.0627  0.4927
   26SAPC   O13 3409   2.338   4.267   6.390 -0.1770  0.3670  0.0229
   26SAPC   O14 3410   2.581   4.174   6.376 -0.3347  0.0063  0.0826
   26SAPC   O12 3411   2.518   4.394   6.289 -0.9332  0.3419 -0.5348
   26SAPC   O11 3412   2.534   4.368   6.529 -0.1550 -0.3680 -0.2210
   26SAPC    C1 3413   2.671   4.353   6.570  0.1565  0.4029 -0.3183
   26SAPC    HA 3414   2.742   4.346   6.485 -0.2610  1.2229 -0.7466
   26SAPC    HB 3415   2.702   4.446   6.623 -0.0050  1.0404 -1.3237
   26SAPC    C2 3416   2.690   4.230   6.661  0.0448  0.2683 -0.5007
   26SAPC    HS 3417   2.655   4.137   6.611  1.7587  0.5998 -2.4227
   26SAPC   O21 3418   2.620   4.256   6.788  0.0399  0.0269 -0.1400
   26SAPC   C21 3419   2.497   4.216   6.792 -0.1599 -0.2458  0.4191
   26SAPC   O22 3420   2.439   4.161   6.701 -0.2123  0.5508 -1.2187
   26SAPC   C22 3421   2.440   4.283   6.921 -0.4126 -0.3985  0.5514
   26SAPC   H2R 3422   2.519   4.300   6.997 -0.3184  1.0319  0.1762
   26SAPC   H2S 3423   2.405   4.383   6.886  0.5135 -0.0125  0.6746
   26SAPC    C3 3424   2.842   4.204   6.696  0.0137 -0.0723  0.1117
   26SAPC    HX 3425   2.899   4.173   6.606 -0.2033 -2.6289  0.7935
   26SAPC    HY 3426   2.838   4.111   6.757 -0.2370 -0.3252 -0.2883
   26SAPC   O31 3427   2.913   4.304   6.774  0.8742 -0.1678 -0.1514
   26SAPC   C31 3428   3.013   4.259   6.845 -0.1646 -0.5944 -0.5163
   26SAPC   O32 3429   3.036   4.139   6.859 -0.6389 -0.4657 -0.0211
   26SAPC   C32 3430   3.101   4.371   6.901  0.0245  0.5052  0.7634
   26SAPC   H2X 3431   3.041   4.465   6.892  1.8500  1.7790  1.4319
   26SAPC   H2Y 3432   3.194   4.374   6.841  0.6989  0.3309  1.7855
   26SAPC   C23 3433   2.337   4.189   6.988  0.9150  0.3714  0.1180
   26SAPC   H3R 3434   2.281   4.129   6.913  1.1592  1.2254 -0.7635
   26SAPC   H3S 3435   2.255   4.249   7.032 -0.5505 -0.5883 -1.1949
   26SAPC   C24 3436   2.409   4.111   7.101 -0.3252  0.1829  0.1996
   26SAPC   H4R 3437   2.330   4.062   7.162 -1.0627  0.8491 -0.2041
   26SAPC   H4S 3438   2.465   4.186   7.160 -0.1796  0.9361 -0.8702
   26SAPC   C25 3439   2.497   4.005   7.023  1.3717  0.0079  0.8898
   26SAPC   H5R 3440   2.443   3.936   6.956 -0.6218  1.5812  0.7975
   26SAPC   C26 3441   2.629   4.010   7.027 -0.3534  0.0054 -0.3697
   26SAPC   H6R 3442   2.683   3.940   6.962  1.8675 -1.1285  2.4356
   26SAPC   C27 3443   2.716   4.100   7.109  0.4638  0.1911 -0.4375
   26SAPC   H7R 3444   2.664   4.150   7.194  0.5506 -0.9329  0.2999
   26SAPC   H7S 3445   2.765   4.181   7.052  0.4815  2.1149  2.1170
   26SAPC   C28 3446   2.836   4.029   7.163  0.5742 -0.7582  0.4224
   26SAPC   H8R 3447   2.903   3.990   7.085 -2.4310  0.3109 -2.9903
   26SAPC   C29 3448   2.864   3.996   7.290  0.3221  0.6116 -0.3701
   26SAPC   H9R 3449   2.955   3.943   7.322 -1.2078 -0.0129  3.5883
   26SAPC  C210 3450   2.770   4.032   7.408  0.8718 -0.1770  0.1211
   26SAPC  H10R 3451   2.664   4.019   7.380  1.1418  1.4030 -1.8616
   26SAPC  H10S 3452   2.786   4.139   7.435 -0.8735  0.3137 -0.6162
   26SAPC  C211 3453   2.788   3.943   7.525  0.2243  0.5988  1.2964
   26SAPC  H11R 3454   2.723   3.854   7.529  2.0617 -0.8409  0.4243
   26SAPC  C212 3455   2.860   3.963   7.631 -0.4432  0.1766  0.4213
   26SAPC  H12R 3456   2.871   3.877   7.699  1.8583  0.7381  0.8466
   26SAPC  C213 3457   2.951   4.079   7.659  0.6259  0.1620  0.6835
   26SAPC  H13R 3458   2.883   4.167   7.668  0.1386 -0.1624  0.1816
   26SAPC  H13S 3459   3.018   4.101   7.574  2.3372  1.1304  2.2110
   26SAPC  C214 3460   3.040   4.067   7.780  0.9201 -0.1535 -0.2524
   26SAPC  H14R 3461   3.116   3.987   7.776  1.7452  0.4937  1.3946
   26SAPC  C215 3462   3.028   4.138   7.892 -0.3943  0.2384 -0.3365
   26SAPC  H15R 3463   3.111   4.129   7.964 -1.4796 -1.7487  0.7512
   26SAPC  C216 3464   2.934   4.247   7.923 -0.1551 -0.1588 -0.5920
   26SAPC  H16R 3465   2.852   4.246   7.848 -0.4465 -0.1048 -0.2749
   26SAPC  H16S 3466   2.972   4.352   7.923 -0.7408  0.0854 -2.1295
   26SAPC  C217 3467   2.872   4.221   8.064  0.4734  0.6035 -0.0100
   26SAPC  H17R 3468   2.956   4.225   8.137 -0.1549 -0.9626  0.8406
   26SAPC  H17S 3469   2.829   4.120   8.079 -0.4202  1.3479  3.2989
   26SAPC  C218 3470   2.762   4.325   8.086 -0.3822  0.9148 -0.0337
   26SAPC  H18R 3471   2.704   4.333   7.991 -1.5325 -0.7874  0.4729
   26SAPC  H18S 3472   2.806   4.422   8.115  1.4020 -1.0574  4.9196
   26SAPC  C219 3473   2.664   4.274   8.195 -0.3550  0.3371  0.0415
   26SAPC  H19R 3474   2.712   4.262   8.294 -0.1783  0.5500 -0.0167
   26SAPC  H19S 3475   2.630   4.171   8.172 -1.1953  0.0410  2.3727
   26SAPC  C220 3476   2.550   4.377   8.198 -0.1969  0.4195 -0.0356
   26SAPC  H20R 3477   2.593   4.477   8.219  0.1883  1.2772 -4.0888
   26SAPC  H20S 3478   2.465   4.351   8.265 -0.1196 -0.4368 -0.2561
   26SAPC  H20T 3479   2.503   4.402   8.100  0.3981 -0.1916 -0.4855
   26SAPC   C33 3480   3.145   4.344   7.049 -0.2591 -0.2608  0.4025
   26SAPC   H3X 3481   3.171   4.236   7.055 -1.1891 -0.5402 -0.2396
   26SAPC   H3Y 3482   3.062   4.353   7.123  1.1272  0.9068  1.8711
   26SAPC   C34 3483   3.270   4.423   7.090  0.1082  0.4080  0.0749
   26SAPC   H4X 3484   3.295   4.485   7.001 -1.5514  1.2290  0.1520
   26SAPC   H4Y 3485   3.340   4.340   7.115 -0.3374 -0.1721 -0.5714
   26SAPC   C35 3486   3.241   4.509   7.220  0.1065  0.0546  0.5365
   26SAPC   H5X 3487   3.140   4.552   7.202  0.4940  0.3658 -1.0060
   26SAPC   H5Y 3488   3.324   4.582   7.210 -0.4381  0.3946 -2.9409
   26SAPC   C36 3489   3.256   4.427   7.342 -0.1646 -0.1112 -0.1394
   26SAPC   H6X 3490   3.354   4.376   7.341 -0.6334 -1.0379 -0.2861
   26SAPC   H6Y 3491   3.176   4.353   7.365  0.6380 -1.0168 -0.2016
   26SAPC   C37 3492   3.259   4.525   7.458  0.3891  0.1485 -0.3651
   26SAPC   H7X 3493   3.165   4.581   7.445 -0.2888 -0.3368  1.9221
   26SAPC   H7Y 3494   3.351   4.587   7.455  1.2561 -1.1199 -1.9041
   26SAPC   C38 3495   3.263   4.465   7.602  0.5659 -0.0057 -0.4344
   26SAPC   H8X 3496   3.366   4.444   7.639  0.9218  2.0071 -0.2001
   26SAPC   H8Y 3497   3.203   4.372   7.609 -1.7304  1.4098 -0.4819
   26SAPC   C39 3498   3.215   4.562   7.704  0.2589  0.0797 -0.6943
   26SAPC   H9X 3499   3.106   4.567   7.683  0.1366 -2.8165 -1.1549
   26SAPC   H9Y 3500   3.271   4.657   7.691  0.7850 -0.1388 -0.1176
   26SAPC  C310 3501   3.238   4.523   7.856 -0.2324 -0.3364 -0.7142
   26SAPC  H10X 3502   3.347   4.506   7.865  0.2969  3.0890  0.8879
   26SAPC  H10Y 3503   3.186   4.426   7.870 -2.5854  0.8624 -0.6090
   26SAPC  C311 3504   3.181   4.626   7.948  0.0761  0.4196  0.5325
   26SAPC  H11X 3505   3.074   4.648   7.932  0.0888 -0.8940 -1.7663
   26SAPC  H11Y 3506   3.243   4.718   7.938  1.6919 -0.4115  2.2838
   26SAPC  C312 3507   3.189   4.580   8.097  0.9582 -0.7708 -0.0450
   26SAPC  H12X 3508   3.280   4.522   8.120  1.0686 -0.3729  0.5388
   26SAPC  H12Y 3509   3.107   4.508   8.121  0.1890  0.2391  0.4719
   26SAPC  C313 3510   3.168   4.693   8.196  0.2946 -0.0294 -1.0815
   26SAPC  H13X 3511   3.062   4.724   8.210  1.1515  2.5652  0.3174
   26SAPC  H13Y 3512   3.206   4.792   8.161 -0.6710  0.3606 -1.0822
   26SAPC  C314 3513   3.202   4.670   8.340 -0.3564  0.9836 -0.8671
   26SAPC  H14X 3514   3.183   4.761   8.401 -0.3852 -0.7246  1.8543
   26SAPC  H14Y 3515   3.312   4.662   8.343 -0.4138 -1.3301 -2.3165
   26SAPC  C315 3516   3.143   4.546   8.402 -0.4822  0.4453  0.3922
   26SAPC  H15X 3517   3.179   4.456   8.347 -2.5989 -0.4646  0.3915
   26SAPC  H15Y 3518   3.034   4.546   8.380 -0.4313  1.3979  0.1319
   26SAPC  C316 3519   3.147   4.546   8.553  0.1603 -0.1933 -0.2102
   26SAPC  H16X 3520   3.125   4.447   8.598  0.3003  0.2579  0.8652
   26SAPC  H16Y 3521   3.072   4.615   8.596 -1.5149 -0.9207 -1.8260
   26SAPC  C317 3522   3.280   4.587   8.616 -0.1579 -0.8542 -0.4212
   26SAPC  H17X 3523   3.313   4.684   8.574 -1.4828 -0.1875  0.0433
   26SAPC  H17Y 3524   3.345   4.500   8.590 -0.3621  0.1976 -5.4532
   26SAPC  C318 3525   3.276   4.606   8.767  0.0573  0.6702 -0.4245
   26SAPC  H18X 3526   3.298   4.519   8.833 -1.0415  2.3664  2.3584
   26SAPC  H18Y 3527   3.169   4.628   8.786  0.2384  2.7239 -1.5733
   26SAPC  H18Z 3528   3.343   4.692   8.789  1.4718 -0.3184 -0.7116
   27SAPC     N 3529   0.191   6.587   6.512 -0.5485  0.2897  0.5987
   27SAPC   C12 3530   0.066   6.534   6.577 -0.2284  0.0641 -0.3101
   27SAPC  H12A 3531   0.079   6.458   6.652  0.1698  0.9963  0.5915
   27SAPC  H12B 3532   0.009   6.490   6.496  1.7516 -0.1188 -1.6608
   27SAPC   C13 3533   0.284   6.473   6.483 -0.6446  0.1252  0.2104
   27SAPC  H13A 3534   0.259   6.430   6.387  1.6868 -0.1023 -0.3379
   27SAPC  H13B 3535   0.385   6.509   6.475 -0.6690  0.4766  1.2888
   27SAPC  H13C 3536   0.293   6.404   6.565 -1.0957  1.0525  1.0663
   27SAPC   C14 3537   0.163   6.646   6.377  0.7517  0.6574  0.0723
   27SAPC  H14A 3538   0.260   6.661   6.330  1.3787 -0.1782  1.0750
   27SAPC  H14B 3539   0.089   6.592   6.320  0.5047  0.1742  0.8443
   27SAPC  H14C 3540   0.123   6.746   6.380 -0.1632  0.3054 -0.1461
   27SAPC   C15 3541   0.275   6.681   6.600  0.0155 -0.4092 -0.2489
   27SAPC  H15A 3542   0.216   6.764   6.636  0.9880  0.8226 -1.3665
   27SAPC  H15B 3543   0.321   6.626   6.681 -1.0066 -1.3307 -0.2777
   27SAPC  H15C 3544   0.359   6.717   6.541  0.6976  1.2572  1.6085
   27SAPC   C11 3545  -0.029   6.637   6.650  0.1144  0.0460  0.6483
   27SAPC  H11A 3546   0.005   6.670   6.751 -2.3562 -1.6987  2.1575
   27SAPC  H11B 3547  -0.119   6.577   6.674 -0.4763  1.0656  1.0595
   27SAPC     P 3548  -0.183   6.793   6.494  0.1417  0.0499 -0.1793
   27SAPC   O13 3549  -0.174   6.926   6.431  0.8935 -0.0749 -0.1955
   27SAPC   O14 3550  -0.221   6.677   6.407 -0.5211 -0.1178  0.4053
   27SAPC   O12 3551  -0.051   6.756   6.570 -0.2075 -0.3493 -0.3552
   27SAPC   O11 3552  -0.289   6.791   6.613 -0.0332 -0.8020 -0.7475
   27SAPC    C1 3553  -0.289   6.899   6.701  0.4552 -0.5218 -0.2882
   27SAPC    HA 3554  -0.193   6.906   6.756  0.4885  0.6803 -0.4612
   27SAPC    HB 3555  -0.314   6.996   6.652 -4.5583 -0.4613  1.7247
   27SAPC    C2 3556  -0.392   6.881   6.816  0.1265 -0.5526  0.2954
   27SAPC    HS 3557  -0.377   6.961   6.892 -1.5787 -0.8434  0.9771
   27SAPC   O21 3558  -0.378   6.749   6.871  0.2086  0.2738 -0.6214
   27SAPC   C21 3559  -0.273   6.732   6.947  0.0662 -0.7495 -0.6146
   27SAPC   O22 3560  -0.206   6.826   6.993  0.3302  0.1826  0.0641
   27SAPC   C22 3561  -0.256   6.584   6.991 -0.2798  0.4258  0.2340
   27SAPC   H2R 3562  -0.232   6.524   6.901 -1.3282 -1.3377  1.0562
   27SAPC   H2S 3563  -0.175   6.585   7.068 -2.8185  2.2178  3.1334
   27SAPC    C3 3564  -0.539   6.905   6.756  0.3822  0.6395  0.6002
   27SAPC    HX 3565  -0.563   6.845   6.666 -0.3385  2.9211 -0.8203
   27SAPC    HY 3566  -0.551   7.006   6.712  0.4990 -0.3203 -1.7330
   27SAPC   O31 3567  -0.636   6.902   6.863 -0.4542  0.2000 -0.7682
   27SAPC   C31 3568  -0.683   6.782   6.896  0.0855 -0.0948 -0.2392
   27SAPC   O32 3569  -0.682   6.683   6.821 -0.9569 -0.6574 -0.1977
   27SAPC   C32 3570  -0.757   6.794   7.031  0.6057  0.1272  0.7770
   27SAPC   H2X 3571  -0.792   6.898   7.045  0.8235  0.5962 -1.6861
   27SAPC   H2Y 3572  -0.693   6.762   7.116  1.0512 -2.0045 -0.2884
   27SAPC   C23 3573  -0.387   6.521   7.054 -0.4925 -0.1548  0.5519
   27SAPC   H3R 3574  -0.366   6.413   7.068  1.1394  0.0175 -0.3053
   27SAPC   H3S 3575  -0.462   6.532   6.973  2.1450  2.2154 -1.7801
   27SAPC   C24 3576  -0.432   6.601   7.183 -0.1062  0.5615  0.5941
   27SAPC   H4R 3577  -0.481   6.688   7.136 -0.7421 -0.9211 -1.6083
   27SAPC   H4S 3578  -0.337   6.613   7.241  1.9149 -1.0320 -2.1345
   27SAPC   C25 3579  -0.540   6.526   7.265  0.7499 -0.4987  0.9538
   27SAPC   H5R 3580  -0.638   6.529   7.215  2.0222 -0.2552 -1.6900
   27SAPC   C26 3581  -0.539   6.476   7.383 -0.0737 -0.2149 -1.1276
   27SAPC   H6R 3582  -0.628   6.427   7.423  0.6279 -0.0743  0.7108
   27SAPC   C27 3583  -0.424   6.483   7.484 -0.2238 -0.4271  0.1531
   27SAPC   H7R 3584  -0.324   6.487   7.435 -0.5507 -2.1904 -0.7402
   27SAPC   H7S 3585  -0.425   6.392   7.547 -0.3256 -0.7008 -0.2414
   27SAPC   C28 3586  -0.449   6.602   7.566  0.5272 -0.3221  0.0528
   27SAPC   H8R 3587  -0.456   6.700   7.517  0.1355 -1.1319 -1.5773
   27SAPC   C29 3588  -0.473   6.606   7.699 -0.1620  0.6753  0.0450
   27SAPC   H9R 3589  -0.481   6.707   7.742 -1.6375  0.8384 -0.5629
   27SAPC  C210 3590  -0.465   6.503   7.800  0.5156 -0.0409 -0.0181
   27SAPC  H10R 3591  -0.426   6.546   7.895 -0.4708 -0.4003  0.5710
   27SAPC  H10S 3592  -0.385   6.429   7.780  0.4842 -1.6584  4.5560
   27SAPC  C211 3593  -0.600   6.436   7.822  0.0922 -0.1262 -0.6751
   27SAPC  H11R 3594  -0.646   6.391   7.733  2.4078  1.9934 -3.1406
   27SAPC  C212 3595  -0.665   6.425   7.943 -0.0464  0.5930 -0.3818
   27SAPC  H12R 3596  -0.755   6.365   7.963  1.4299 -0.8619  2.7619
   27SAPC  C213 3597  -0.614   6.477   8.075  0.3232  0.5728  0.0232
   27SAPC  H13R 3598  -0.703   6.494   8.139 -0.6573 -1.3294 -0.7271
   27SAPC  H13S 3599  -0.566   6.576   8.064  1.1509  0.2746  0.8492
   27SAPC  C214 3600  -0.509   6.377   8.125 -0.1794  0.2681 -0.1297
   27SAPC  H14R 3601  -0.441   6.336   8.049 -2.6061  0.7395 -2.7421
   27SAPC  C215 3602  -0.506   6.333   8.252  0.3283 -0.1516 -0.5018
   27SAPC  H15R 3603  -0.432   6.255   8.275  0.6930 -0.2335 -1.8654
   27SAPC  C216 3604  -0.586   6.384   8.371  0.6064 -0.3083  0.5149
   27SAPC  H16R 3605  -0.655   6.464   8.340  0.8028 -1.1550 -2.3806
   27SAPC  H16S 3606  -0.516   6.421   8.449  0.9894  0.5623 -0.2277
   27SAPC  C217 3607  -0.670   6.270   8.412  1.1761  0.1523  0.7490
   27SAPC  H17R 3608  -0.742   6.239   8.333  0.6229  0.6735  1.0354
   27SAPC  H17S 3609  -0.725   6.302   8.504  2.4299  1.8809  0.9385
   27SAPC  C218 3610  -0.599   6.140   8.452 -1.2010 -0.5833  0.2404
   27SAPC  H18R 3611  -0.556   6.097   8.359 -0.1232 -0.5229  0.6955
   27SAPC  H18S 3612  -0.673   6.068   8.491 -1.5709 -0.5697 -0.4392
   27SAPC  C219 3613  -0.486   6.147   8.551 -0.1149 -0.4977 -0.3809
   27SAPC  H19R 3614  -0.406   6.217   8.520 -0.6570 -0.7198 -2.4366
   27SAPC  H19S 3615  -0.432   6.051   8.562  1.7742  0.4157 -1.3119
   27SAPC  C220 3616  -0.535   6.197   8.684  0.0180 -0.6909  0.3534
   27SAPC  H20R 3617  -0.583   6.115   8.740 -4.1462  1.1566 -0.1686
   27SAPC  H20S 3618  -0.610   6.278   8.689  2.0179  1.2043  1.4860
   27SAPC  H20T 3619  -0.461   6.231   8.759 -1.8787  0.8560  1.6027
   27SAPC   C33 3620  -0.885   6.701   7.039  0.2871 -0.2706 -0.4030
   27SAPC   H3X 3621  -0.853   6.595   7.040 -0.7036 -0.5852  0.4379
   27SAPC   H3Y 3622  -0.947   6.729   6.951  0.3791  3.1783  0.4699
   27SAPC   C34 3623  -0.976   6.741   7.154  0.3478  0.5021 -0.2006
   27SAPC   H4X 3624  -1.059   6.668   7.164  0.5820  0.5776  3.3082
   27SAPC   H4Y 3625  -1.022   6.838   7.123 -0.4615 -0.5613 -2.5610
   27SAPC   C35 3626  -0.896   6.749   7.292 -0.4335  1.0806  0.0119
   27SAPC   H5X 3627  -0.834   6.841   7.290 -2.7109  2.7732  1.2632
   27SAPC   H5Y 3628  -0.831   6.660   7.293 -1.3376  0.2861 -2.7373
   27SAPC   C36 3629  -1.006   6.762   7.409 -0.2875 -0.7406  0.4996
   27SAPC   H6X 3630  -1.083   6.682   7.398 -1.2032  0.1354  0.3517
   27SAPC   H6Y 3631  -1.075   6.848   7.391  0.2966 -0.8904 -3.4061
   27SAPC   C37 3632  -0.939   6.758   7.548 -0.5742  0.3985  0.5009
   27SAPC   H7X 3633  -0.873   6.845   7.568 -0.1841  0.4181 -0.7536
   27SAPC   H7Y 3634  -0.870   6.672   7.537 -1.2596 -0.1422  0.2947
   27SAPC   C38 3635  -1.042   6.732   7.664 -0.4012 -0.3755  0.2027
   27SAPC   H8X 3636  -1.117   6.662   7.622 -0.5706  0.2589 -0.5809
   27SAPC   H8Y 3637  -1.091   6.830   7.686  0.2697  0.1284 -0.4758
   27SAPC   C39 3638  -0.985   6.682   7.803 -0.1657  0.7437 -0.6379
   27SAPC   H9X 3639  -0.917   6.757   7.849 -0.0895  0.7553 -0.7677
   27SAPC   H9Y 3640  -0.918   6.594   7.790  0.1306  0.7630  0.6222
   27SAPC  C310 3641  -1.098   6.658   7.899  0.0107  0.6070  0.0441
   27SAPC  H10X 3642  -1.152   6.565   7.871  0.7981  0.2652 -0.4033
   27SAPC  H10Y 3643  -1.160   6.749   7.890  0.5914  1.1210  1.0991
   27SAPC  C311 3644  -1.054   6.639   8.050 -0.0934  0.0019  0.4111
   27SAPC  H11X 3645  -0.958   6.689   8.075  1.0228 -1.4336 -0.8061
   27SAPC  H11Y 3646  -1.045   6.530   8.065 -0.1133 -0.4286 -2.2299
   27SAPC  C312 3647  -1.167   6.702   8.144  0.4021 -0.1284  0.6088
   27SAPC  H12X 3648  -1.261   6.677   8.089  0.4841  3.5493 -1.5471
   27SAPC  H12Y 3649  -1.166   6.813   8.144 -1.5393 -0.0470 -0.9624
   27SAPC  C313 3650  -1.179   6.634   8.280 -0.2037  1.1211 -0.0744
   27SAPC  H13X 3651  -1.185   6.525   8.258 -1.8449  0.9538  1.0667
   27SAPC  H13Y 3652  -1.270   6.666   8.334  0.7746  1.8178  1.2318
   27SAPC  C314 3653  -1.047   6.651   8.355  0.5296  0.4365  0.0950
   27SAPC  H14X 3654  -1.029   6.754   8.392 -1.3365  1.0540 -0.6369
   27SAPC  H14Y 3655  -0.955   6.613   8.304  0.4673  1.7214 -1.0493
   27SAPC  C315 3656  -1.064   6.567   8.485  0.1698 -0.1571 -1.1362
   27SAPC  H15X 3657  -1.090   6.460   8.467 -0.7966 -0.8098  3.1256
   27SAPC  H15Y 3658  -1.149   6.604   8.545  1.1929  2.1659 -1.0454
   27SAPC  C316 3659  -0.930   6.556   8.558 -0.2656 -0.2498 -0.0477
   27SAPC  H16X 3660  -0.863   6.497   8.491  0.5811  1.7239 -1.0433
   27SAPC  H16Y 3661  -0.956   6.496   8.648 -0.4324  1.4641  1.0862
   27SAPC  C317 3662  -0.864   6.685   8.597  0.3323 -0.8313 -0.1326
   27SAPC  H17X 3663  -0.933   6.766   8.628  1.5096  0.7320 -1.4474
   27SAPC  H17Y 3664  -0.818   6.732   8.508  0.3125 -0.2173  0.1793
   27SAPC  C318 3665  -0.742   6.670   8.691 -0.3879  0.3415  0.4627
   27SAPC  H18X 3666  -0.669   6.593   8.658 -1.0613 -0.1547  0.1135
   27SAPC  H18Y 3667  -0.791   6.641   8.787 -0.9482  1.6090  0.5811
   27SAPC  H18Z 3668  -0.693   6.767   8.714  0.9434 -1.0687  4.3380
   28SAPC     N 3669   6.763   3.810   6.045  0.1519 -0.5441 -0.0542
   28SAPC   C12 3670   6.661   3.775   6.146 -0.0455 -0.9431 -0.5298
   28SAPC  H12A 3671   6.700   3.696   6.208 -0.1447  0.5361  1.5080
   28SAPC  H12B 3672   6.574   3.734   6.095  1.5619 -2.3125 -2.3247
   28SAPC   C13 3673   6.716   3.930   5.973  0.1113  0.1396 -0.0484
   28SAPC  H13A 3674   6.781   3.961   5.893 -1.3214 -2.6373 -2.4363
   28SAPC  H13B 3675   6.619   3.907   5.932 -0.9084 -0.3215  2.3995
   28SAPC  H13C 3676   6.701   4.016   6.037 -1.9121 -0.0423 -0.2206
   28SAPC   C14 3677   6.898   3.841   6.106 -0.6597  0.1458  0.2834
   28SAPC  H14A 3678   6.901   3.938   6.154 -1.6933 -0.8782  2.5180
   28SAPC  H14B 3679   6.914   3.763   6.179  0.1013 -1.9556 -1.9865
   28SAPC  H14C 3680   6.978   3.854   6.034  0.0656  1.6955  1.3195
   28SAPC   C15 3681   6.780   3.698   5.946  0.2900  0.0803 -0.4467
   28SAPC  H15A 3682   6.687   3.670   5.900  0.5396 -1.1773 -0.2139
   28SAPC  H15B 3683   6.841   3.732   5.864  2.1743  0.9949  1.2186
   28SAPC  H15C 3684   6.834   3.613   5.986 -0.7411 -1.2497 -1.7764
   28SAPC   C11 3685   6.619   3.891   6.247 -0.2857 -0.5662 -0.2648
   28SAPC  H11A 3686   6.709   3.950   6.273 -0.1037 -1.3902  1.0882
   28SAPC  H11B 3687   6.587   3.824   6.330 -1.6571  1.8771  1.3041
   28SAPC     P 3688   6.377   3.929   6.143 -0.2124 -0.2105  0.0860
   28SAPC   O13 3689   6.307   4.036   6.077  0.1005 -0.3875  0.0572
   28SAPC   O14 3690   6.382   3.795   6.086 -0.2307 -0.3102 -0.1646
   28SAPC   O12 3691   6.523   3.977   6.189  0.7253 -0.0880 -0.2822
   28SAPC   O11 3692   6.313   3.907   6.289  0.6444  0.1432  0.4626
   28SAPC    C1 3693   6.287   4.023   6.366 -0.7332 -0.7087  0.1218
   28SAPC    HA 3694   6.380   4.078   6.388 -1.2658  0.8713 -1.3382
   28SAPC    HB 3695   6.216   4.094   6.319 -0.3299 -0.0776  0.4450
   28SAPC    C2 3696   6.221   4.005   6.505 -0.2505 -0.1992  0.3354
   28SAPC    HS 3697   6.215   4.101   6.560 -1.0549 -0.0943  0.0692
   28SAPC   O21 3698   6.287   3.899   6.578  0.0570  0.2188 -0.0498
   28SAPC   C21 3699   6.416   3.921   6.612  0.5971 -0.3787  0.2582
   28SAPC   O22 3700   6.469   4.033   6.617 -0.6675  0.9500 -0.1150
   28SAPC   C22 3701   6.491   3.788   6.628  0.0074  0.5418 -0.1026
   28SAPC   H2R 3702   6.450   3.728   6.712 -1.2797  1.7471  0.1595
   28SAPC   H2S 3703   6.469   3.724   6.540 -2.9195 -1.0764  1.6519
   28SAPC    C3 3704   6.072   3.960   6.477  0.1092 -0.2688  0.1505
   28SAPC    HX 3705   6.071   3.849   6.479  0.7662 -0.2805  0.1207
   28SAPC    HY 3706   6.041   3.991   6.375 -0.1425 -2.4755 -0.4960
   28SAPC   O31 3707   5.989   4.026   6.570  0.2590 -0.2203  0.3723
   28SAPC   C31 3708   5.980   3.970   6.693  0.5983  0.3448  0.4916
   28SAPC   O32 3709   6.027   3.868   6.736 -0.8060 -0.2533  0.0778
   28SAPC   C32 3710   5.913   4.079   6.768  0.7631  0.2017  0.1051
   28SAPC   H2X 3711   5.818   4.093   6.712  0.9099 -2.6713 -1.0635
   28SAPC   H2Y 3712   5.984   4.164   6.764  0.7831  0.2500  1.1112
   28SAPC   C23 3713   6.642   3.811   6.653  0.1465  0.6665  0.2614
   28SAPC   H3R 3714   6.650   3.890   6.731 -0.4294 -1.0396  2.1309
   28SAPC   H3S 3715   6.690   3.840   6.557  0.2537 -0.4782 -0.0415
   28SAPC   C24 3716   6.703   3.676   6.702 -0.6573 -0.1503  0.2027
   28SAPC   H4R 3717   6.664   3.648   6.802  1.6697 -2.2336  0.6268
   28SAPC   H4S 3718   6.685   3.602   6.622  2.9602 -0.0147 -0.9493
   28SAPC   C25 3719   6.854   3.688   6.712 -0.5862  0.1805  0.3550
   28SAPC   H5R 3720   6.910   3.699   6.617 -0.1778 -2.4138  0.2179
   28SAPC   C26 3721   6.934   3.692   6.828 -0.4333 -0.5327  0.0699
   28SAPC   H6R 3722   7.040   3.712   6.809 -0.6743  0.2167 -0.5220
   28SAPC   C27 3723   6.891   3.684   6.975  0.2219 -0.2167  0.0819
   28SAPC   H7R 3724   6.974   3.704   7.046 -0.9918  0.6227  1.3070
   28SAPC   H7S 3725   6.843   3.588   7.005  0.7559 -0.2773  0.7828
   28SAPC   C28 3726   6.782   3.787   7.010 -0.7624 -0.4033 -0.0348
   28SAPC   H8R 3727   6.764   3.869   6.938  0.0580 -0.2504 -0.0750
   28SAPC   C29 3728   6.702   3.774   7.116  0.2151  0.3351  0.2176
   28SAPC   H9R 3729   6.622   3.849   7.118  0.4406  0.6567 -1.3205
   28SAPC  C210 3730   6.696   3.670   7.223  0.5890 -0.5884 -0.3644
   28SAPC  H10R 3731   6.765   3.707   7.301  1.0058 -3.5399  0.7918
   28SAPC  H10S 3732   6.734   3.575   7.180 -0.7721 -0.7947 -1.1738
   28SAPC  C211 3733   6.566   3.660   7.298  0.6478  0.9345 -0.8295
   28SAPC  H11R 3734   6.478   3.657   7.231 -0.4656 -3.1678  0.5177
   28SAPC  C212 3735   6.556   3.635   7.432 -0.4127  0.1218 -0.4625
   28SAPC  H12R 3736   6.460   3.637   7.487 -0.3603 -0.3216 -0.3544
   28SAPC  C213 3737   6.670   3.626   7.538 -0.0640 -0.1734  0.3803
   28SAPC  H13R 3738   6.642   3.688   7.626 -1.8585  0.4805 -0.6068
   28SAPC  H13S 3739   6.766   3.671   7.505  0.6128 -2.8227 -1.6219
   28SAPC  C214 3740   6.698   3.483   7.582  0.2105 -0.4493  0.1454
   28SAPC  H14R 3741   6.645   3.409   7.521 -1.4730  1.3970 -0.7460
   28SAPC  C215 3742   6.792   3.443   7.674  0.3520 -0.2904 -0.2539
   28SAPC  H15R 3743   6.793   3.334   7.690 -3.0547 -0.5114 -0.8852
   28SAPC  C216 3744   6.881   3.525   7.753 -0.1809  0.0887  0.2748
   28SAPC  H16R 3745   6.884   3.630   7.717 -0.7155 -0.3269 -1.0268
   28SAPC  H16S 3746   6.985   3.490   7.734 -0.4202 -0.1928 -0.5562
   28SAPC  C217 3747   6.859   3.514   7.909 -0.3238 -0.1232 -0.3088
   28SAPC  H17R 3748   6.957   3.525   7.961  0.2713 -1.1827 -1.1510
   28SAPC  H17S 3749   6.848   3.407   7.935  2.6549 -0.9556 -1.9299
   28SAPC  C218 3750   6.741   3.595   7.963 -1.0026 -0.5902  0.1212
   28SAPC  H18R 3751   6.647   3.550   7.924 -0.9542 -0.1162 -0.5566
   28SAPC  H18S 3752   6.755   3.697   7.921  2.2729 -0.9106  0.1897
   28SAPC  C219 3753   6.731   3.603   8.120 -0.0490 -0.3131  0.3270
   28SAPC  H19R 3754   6.640   3.657   8.151 -0.1036 -0.5807  0.6290
   28SAPC  H19S 3755   6.813   3.663   8.166 -1.4769  0.2416  2.2573
   28SAPC  C220 3756   6.747   3.463   8.187 -0.0881  1.0723 -0.2132
   28SAPC  H20R 3757   6.756   3.482   8.296 -0.1733 -0.1917  0.0328
   28SAPC  H20S 3758   6.832   3.404   8.146  0.7169  0.2667  2.4270
   28SAPC  H20T 3759   6.653   3.406   8.168 -1.1064  2.3957  0.6478
   28SAPC   C33 3760   5.886   4.037   6.921 -0.2531 -0.1461 -0.5435
   28SAPC   H3X 3761   5.846   4.127   6.972  0.2645  0.5185 -1.2905
   28SAPC   H3Y 3762   5.986   4.009   6.962 -0.4751 -1.7647 -1.0537
   28SAPC   C34 3763   5.781   3.930   6.938 -0.2835 -0.4361 -0.4413
   28SAPC   H4X 3764   5.822   3.827   6.933  0.1243 -0.4702  2.1327
   28SAPC   H4Y 3765   5.709   3.929   6.854 -1.5774 -0.2923  0.6325
   28SAPC   C35 3766   5.700   3.943   7.069 -0.0525 -0.1983  0.3270
   28SAPC   H5X 3767   5.651   4.042   7.061 -0.6231 -0.5948 -1.4318
   28SAPC   H5Y 3768   5.778   3.956   7.147 -0.7171  0.7763  0.8564
   28SAPC   C36 3769   5.609   3.828   7.098  0.3605  0.4104 -0.0176
   28SAPC   H6X 3770   5.665   3.732   7.100  0.7147  0.6198  1.2099
   28SAPC   H6Y 3771   5.542   3.820   7.009 -0.8784  0.4295  0.8836
   28SAPC   C37 3772   5.524   3.854   7.225 -0.3072 -0.4087 -0.2552
   28SAPC   H7X 3773   5.433   3.793   7.208 -1.0944  0.7048 -0.1506
   28SAPC   H7Y 3774   5.501   3.963   7.235 -1.3884 -0.6393 -0.0882
   28SAPC   C38 3775   5.586   3.806   7.353  0.1473 -0.4239  0.4167
   28SAPC   H8X 3776   5.682   3.856   7.375  0.1428 -1.2313  2.5790
   28SAPC   H8Y 3777   5.608   3.697   7.349 -1.7356 -0.9653  2.6670
   28SAPC   C39 3778   5.513   3.849   7.479  0.5872 -0.1127 -0.7227
   28SAPC   H9X 3779   5.411   3.806   7.468  0.6199 -0.9343  1.6336
   28SAPC   H9Y 3780   5.502   3.960   7.471 -1.2495 -0.1500  0.6303
   28SAPC  C310 3781   5.574   3.804   7.611 -0.4162  0.0492 -0.1453
   28SAPC  H10X 3782   5.672   3.856   7.625 -0.0474 -0.5996 -0.2964
   28SAPC  H10Y 3783   5.597   3.696   7.611  1.4375  0.4053  0.3504
   28SAPC  C311 3784   5.480   3.831   7.726 -0.6992 -0.0467 -0.1276
   28SAPC  H11X 3785   5.378   3.803   7.691 -1.1109  0.7581  0.3925
   28SAPC  H11Y 3786   5.491   3.941   7.739 -2.2518  0.2134 -0.6429
   28SAPC  C312 3787   5.514   3.756   7.853  0.5064 -0.2058 -0.7682
   28SAPC  H12X 3788   5.504   3.645   7.848 -0.3715 -0.3273  1.9943
   28SAPC  H12Y 3789   5.433   3.788   7.923  0.6189 -0.0255 -0.7223
   28SAPC  C313 3790   5.647   3.791   7.917 -0.0376 -0.0320 -0.2872
   28SAPC  H13X 3791   5.659   3.898   7.892  0.7275 -0.2226 -0.7717
   28SAPC  H13Y 3792   5.738   3.747   7.869  0.8663 -0.1144  1.4376
   28SAPC  C314 3793   5.657   3.776   8.070  0.4254 -0.1308  0.2151
   28SAPC  H14X 3794   5.632   3.671   8.094  0.3631  0.0799  1.0991
   28SAPC  H14Y 3795   5.577   3.828   8.127 -1.9377 -1.9537 -1.2719
   28SAPC  C315 3796   5.796   3.821   8.116  0.2156  0.2810  0.2859
   28SAPC  H15X 3797   5.781   3.874   8.213 -0.7826 -1.3026  1.0356
   28SAPC  H15Y 3798   5.826   3.889   8.034 -1.6178  0.2549 -0.4520
   28SAPC  C316 3799   5.894   3.705   8.152 -0.5002  0.2405 -0.1485
   28SAPC  H16X 3800   5.831   3.631   8.205 -0.0515  0.0802  0.1652
   28SAPC  H16Y 3801   5.973   3.751   8.215  0.1815 -0.4167 -0.5038
   28SAPC  C317 3802   5.977   3.652   8.032 -0.1290  0.3423  0.0196
   28SAPC  H17X 3803   6.072   3.607   8.068 -2.2111 -3.7621  1.0240
   28SAPC  H17Y 3804   6.007   3.721   7.951  0.3332 -0.2715 -0.3431
   28SAPC  C318 3805   5.905   3.529   7.963  0.4652  0.5439  0.2368
   28SAPC  H18X 3806   5.854   3.557   7.868 -0.9429  0.0229  0.8186
   28SAPC  H18Y 3807   5.823   3.496   8.030 -0.6117  3.7256  0.6431
   28SAPC  H18Z 3808   5.978   3.446   7.951 -0.0586  0.1298 -0.1780
   29SAPC     N 3809   1.058   5.289   6.548  0.2587 -0.0696 -0.2280
   29SAPC   C12 3810   1.206   5.328   6.541 -0.0892 -0.0783 -0.3446
   29SAPC  H12A 3811   1.219   5.419   6.597  0.1025  0.8847 -1.9072
   29SAPC  H12B 3812   1.251   5.358   6.448 -0.3216  0.9975 -0.1197
   29SAPC   C13 3813   0.995   5.293   6.687 -0.4331  0.1869 -0.3045
   29SAPC  H13A 3814   0.998   5.393   6.727 -0.1547  0.2525 -0.4875
   29SAPC  H13B 3815   0.896   5.250   6.686 -0.2272 -0.5703 -4.2117
   29SAPC  H13C 3816   1.049   5.238   6.764 -0.5180  1.1084  0.4290
   29SAPC   C14 3817   0.989   5.393   6.463 -0.4741  0.4435  0.5384
   29SAPC  H14A 3818   1.007   5.493   6.499  1.4352  0.4427 -0.2625
   29SAPC  H14B 3819   1.034   5.387   6.365 -1.8522 -0.6083 -0.0571
   29SAPC  H14C 3820   0.883   5.377   6.454 -0.4721  0.6296  0.1889
   29SAPC   C15 3821   1.019   5.161   6.487 -0.5076  0.2686 -0.0308
   29SAPC  H15A 3822   0.912   5.164   6.472 -0.7384  3.2615  1.4690
   29SAPC  H15B 3823   1.069   5.150   6.392 -1.3635  0.1965 -0.4809
   29SAPC  H15C 3824   1.042   5.079   6.554 -1.4374 -0.1416 -0.1879
   29SAPC   C11 3825   1.290   5.220   6.610 -0.3878  0.5567  0.2514
   29SAPC  H11A 3826   1.231   5.176   6.693 -2.2675  1.9171 -0.2864
   29SAPC  H11B 3827   1.379   5.276   6.646  0.6205  0.5901 -2.1122
   29SAPC     P 3828   1.439   5.138   6.415  0.3436 -0.0788  0.1087
   29SAPC   O13 3829   1.472   5.012   6.346  0.9472  0.5067 -0.0684
   29SAPC   O14 3830   1.417   5.258   6.332 -1.1741  0.4244 -0.3459
   29SAPC   O12 3831   1.316   5.112   6.514 -0.1376 -0.1484  0.7788
   29SAPC   O11 3832   1.564   5.178   6.506  0.3215  0.1256 -0.1293
   29SAPC    C1 3833   1.617   5.081   6.596 -0.3520 -0.5001 -0.1823
   29SAPC    HA 3834   1.551   4.994   6.610 -0.6608  0.0216  1.9463
   29SAPC    HB 3835   1.721   5.058   6.563  0.8079  0.7128  2.2972
   29SAPC    C2 3836   1.648   5.158   6.729  0.0506 -0.6181  0.5388
   29SAPC    HS 3837   1.554   5.197   6.775 -0.2619  1.9274 -1.9659
   29SAPC   O21 3838   1.726   5.275   6.696  0.1756  0.2538 -0.4104
   29SAPC   C21 3839   1.727   5.362   6.794  0.8080 -0.3598 -0.4172
   29SAPC   O22 3840   1.676   5.356   6.904 -0.1135 -0.1110 -0.3358
   29SAPC   C22 3841   1.807   5.488   6.750  0.4838 -0.2150  0.1378
   29SAPC   H2R 3842   1.867   5.469   6.659  1.3902 -0.2123  0.7210
   29SAPC   H2S 3843   1.727   5.562   6.728  1.2577  0.6129  0.0863
   29SAPC    C3 3844   1.730   5.076   6.833  0.2226 -0.1256 -0.1496
   29SAPC    HX 3845   1.761   5.122   6.929  0.5079 -1.5444  0.4708
   29SAPC    HY 3846   1.826   5.054   6.781 -0.2777 -0.5781 -0.8945
   29SAPC   O31 3847   1.656   4.951   6.861  0.4841 -0.0569 -0.4672
   29SAPC   C31 3848   1.556   4.952   6.953 -0.0619 -0.0050  0.3228
   29SAPC   O32 3849   1.508   5.052   7.002  0.1319 -0.5023  0.1909
   29SAPC   C32 3850   1.511   4.800   6.977 -0.4178  0.4093  0.0233
   29SAPC   H2X 3851   1.594   4.745   6.927  1.8611  2.3188  1.5027
   29SAPC   H2Y 3852   1.413   4.788   6.926 -1.3723  1.7215  1.4681
   29SAPC   C23 3853   1.896   5.538   6.865 -0.0189 -0.3268  0.6951
   29SAPC   H3R 3854   1.856   5.502   6.963 -0.5294  2.3166  1.5506
   29SAPC   H3S 3855   1.895   5.649   6.869  0.4337 -0.3145  0.5917
   29SAPC   C24 3856   2.048   5.509   6.843  0.6763 -0.2861 -0.2883
   29SAPC   H4R 3857   2.099   5.537   6.938 -0.9598  2.8583 -0.1900
   29SAPC   H4S 3858   2.082   5.574   6.759  0.2752 -0.1646 -0.3598
   29SAPC   C25 3859   2.069   5.367   6.802 -0.5632 -0.2336 -0.3981
   29SAPC   H5R 3860   2.079   5.349   6.694  3.6208  0.3973 -0.2712
   29SAPC   C26 3861   2.098   5.265   6.885  0.5125 -0.9032  0.2558
   29SAPC   H6R 3862   2.111   5.169   6.833 -1.4353 -0.2922 -1.4994
   29SAPC   C27 3863   2.114   5.277   7.035 -0.1272 -0.7922  0.1450
   29SAPC   H7R 3864   2.022   5.312   7.086 -1.0750 -0.0817 -1.9437
   29SAPC   H7S 3865   2.189   5.357   7.052 -0.0669 -0.6708 -0.6266
   29SAPC   C28 3866   2.175   5.153   7.097 -0.4443 -0.7444 -0.2993
   29SAPC   H8R 3867   2.243   5.092   7.035  2.0265  0.7462  0.8080
   29SAPC   C29 3868   2.174   5.126   7.230  0.0489 -0.2007  0.4496
   29SAPC   H9R 3869   2.235   5.046   7.274 -0.4933 -0.4776  0.7092
   29SAPC  C210 3870   2.113   5.206   7.346 -0.3906  0.1195 -0.0011
   29SAPC  H10R 3871   2.118   5.312   7.315  1.8529 -0.2076 -0.9263
   29SAPC  H10S 3872   2.190   5.211   7.426  0.0508  2.2732 -0.5144
   29SAPC  C211 3873   1.982   5.156   7.406  0.5253  0.3330 -0.0833
   29SAPC  H11R 3874   1.908   5.124   7.331 -0.0564  0.8195  0.2731
   29SAPC  C212 3875   1.947   5.153   7.541 -0.8402  0.3011 -0.4515
   29SAPC  H12R 3876   1.849   5.114   7.573  0.1810  0.5810  3.5746
   29SAPC  C213 3877   2.023   5.204   7.663 -0.1747  0.6007  1.0122
   29SAPC  H13R 3878   2.125   5.161   7.673 -0.2622  0.3836  0.9839
   29SAPC  H13S 3879   1.975   5.168   7.756 -0.6205  1.5741  1.1592
   29SAPC  C214 3880   2.041   5.359   7.648 -0.4978  0.6044 -0.5846
   29SAPC  H14R 3881   2.004   5.410   7.558 -1.0405  4.4412  1.5695
   29SAPC  C215 3882   2.121   5.430   7.733  0.2730 -0.3788 -0.6183
   29SAPC  H15R 3883   2.134   5.538   7.716  0.3997 -0.4243 -0.8073
   29SAPC  C216 3884   2.203   5.380   7.854  0.8307  0.0910  0.4776
   29SAPC  H16R 3885   2.294   5.442   7.863 -0.4767  2.2939 -0.5122
   29SAPC  H16S 3886   2.231   5.272   7.846 -1.3620 -0.4433 -0.7430
   29SAPC  C217 3887   2.115   5.390   7.982 -0.4394 -0.0806 -0.3425
   29SAPC  H17R 3888   2.019   5.334   7.983 -0.2286 -0.4473 -0.5852
   29SAPC  H17S 3889   2.094   5.496   8.010 -1.0553  0.1395 -1.5714
   29SAPC  C218 3890   2.180   5.323   8.105  0.2977  0.3760  0.4286
   29SAPC  H18R 3891   2.272   5.374   8.140 -0.6401  1.9024  0.7536
   29SAPC  H18S 3892   2.205   5.218   8.076 -0.6498  0.3598 -0.3785
   29SAPC  C219 3893   2.084   5.318   8.221 -0.2246 -0.5651  0.2116
   29SAPC  H19R 3894   1.999   5.248   8.203 -0.1428 -0.2583 -1.6538
   29SAPC  H19S 3895   2.042   5.419   8.241 -0.7007 -0.0552 -2.7833
   29SAPC  C220 3896   2.153   5.281   8.353  0.3851 -0.2603 -0.3937
   29SAPC  H20R 3897   2.251   5.333   8.365 -0.5072  1.2724  0.6209
   29SAPC  H20S 3898   2.165   5.171   8.349 -0.6736 -0.3535 -1.4294
   29SAPC  H20T 3899   2.089   5.305   8.440  1.1220 -0.6450  0.2716
   29SAPC   C33 3900   1.491   4.756   7.120 -0.1125  0.9136  0.5046
   29SAPC   H3X 3901   1.435   4.660   7.125  1.1560  0.1924  1.5163
   29SAPC   H3Y 3902   1.430   4.833   7.171 -0.6040  1.8971 -1.4766
   29SAPC   C34 3903   1.620   4.720   7.201  0.2945 -1.0595  1.0268
   29SAPC   H4X 3904   1.657   4.630   7.147 -0.4099 -0.3410 -0.7176
   29SAPC   H4Y 3905   1.585   4.689   7.302 -2.3730 -1.5275  0.0495
   29SAPC   C35 3906   1.727   4.829   7.208 -0.6829  0.2777  0.0620
   29SAPC   H5X 3907   1.675   4.919   7.247 -1.5703 -0.4338  0.5341
   29SAPC   H5Y 3908   1.758   4.857   7.105 -0.3018  0.1569  0.1424
   29SAPC   C36 3909   1.854   4.791   7.287 -0.6870  0.3914  0.0866
   29SAPC   H6X 3910   1.926   4.875   7.275  0.5164 -0.7052 -0.5871
   29SAPC   H6Y 3911   1.898   4.704   7.235  1.0468  1.2113  0.1284
   29SAPC   C37 3912   1.829   4.757   7.433  0.3654 -0.1137 -0.2617
   29SAPC   H7X 3913   1.780   4.657   7.436  0.8526 -0.3261  1.7892
   29SAPC   H7Y 3914   1.765   4.831   7.485 -0.1238 -0.6506 -0.0874
   29SAPC   C38 3915   1.953   4.736   7.509 -0.8050 -0.6771 -0.5288
   29SAPC   H8X 3916   2.008   4.833   7.511  1.3693 -1.8403 -0.3321
   29SAPC   H8Y 3917   2.005   4.655   7.454  0.5223 -0.2154 -0.0027
   29SAPC   C39 3918   1.926   4.692   7.655  0.7744  0.4534 -0.7824
   29SAPC   H9X 3919   1.985   4.604   7.687 -0.8158 -0.8686 -1.3200
   29SAPC   H9Y 3920   1.819   4.664   7.661  0.1542  2.5141 -1.4115
   29SAPC  C310 3921   1.965   4.795   7.762 -0.2454 -0.4821 -0.1754
   29SAPC  H10X 3922   1.890   4.875   7.745  1.1108  1.6052  2.8422
   29SAPC  H10Y 3923   2.067   4.839   7.756 -1.3712  2.2399 -0.7948
   29SAPC  C311 3924   1.949   4.748   7.907  0.2343 -0.1716  0.5721
   29SAPC  H11X 3925   2.030   4.677   7.932  0.7839  0.1539 -0.2389
   29SAPC  H11Y 3926   1.851   4.694   7.904  0.9282 -1.4412 -0.4804
   29SAPC  C312 3927   1.928   4.868   8.005 -0.1391 -0.4728  0.0313
   29SAPC  H12X 3928   1.869   4.830   8.091  1.1548 -1.9322  0.3263
   29SAPC  H12Y 3929   1.864   4.940   7.950 -2.4916 -0.9600  1.9502
   29SAPC  C313 3930   2.058   4.938   8.058 -0.9261  0.0635  0.5174
   29SAPC  H13X 3931   2.014   5.027   8.109 -2.2051 -0.7839  0.9319
   29SAPC  H13Y 3932   2.119   4.972   7.971  2.2584 -3.1145  1.2434
   29SAPC  C314 3933   2.132   4.860   8.169 -0.1653  0.5520  0.2299
   29SAPC  H14X 3934   2.208   4.926   8.216  1.5067  1.6380 -3.5726
   29SAPC  H14Y 3935   2.192   4.778   8.123 -0.1435  0.6887  0.0110
   29SAPC  C315 3936   2.047   4.806   8.278  0.1399 -0.2645  0.4806
   29SAPC  H15X 3937   1.979   4.730   8.234  1.4340 -0.4577 -1.3262
   29SAPC  H15Y 3938   1.992   4.893   8.319 -0.3917  0.3172 -1.3599
   29SAPC  C316 3939   2.129   4.731   8.384  0.3006 -0.1273 -0.6172
   29SAPC  H16X 3940   2.223   4.786   8.409 -0.1059  0.3416 -0.0999
   29SAPC  H16Y 3941   2.165   4.637   8.338  2.4668  0.7895 -0.9494
   29SAPC  C317 3942   2.055   4.712   8.515 -0.2855  0.7205 -0.0666
   29SAPC  H17X 3943   1.989   4.801   8.527  0.4173  1.1614  0.6557
   29SAPC  H17Y 3944   2.129   4.716   8.598  1.2837  1.5947 -1.4442
   29SAPC  C318 3945   1.981   4.578   8.523 -0.0840 -0.1011 -0.7166
   29SAPC  H18X 3946   1.877   4.584   8.485  0.2171 -0.0116 -1.5583
   29SAPC  H18Y 3947   1.959   4.554   8.629  0.6735  3.6848  0.4673
   29SAPC  H18Z 3948   2.023   4.492   8.466 -0.5980  0.1506 -1.4934
   30SAPC     N 3949   3.086   5.523   6.144 -0.4075 -0.0160 -0.4927
   30SAPC   C12 3950   3.090   5.663   6.207 -0.1093  0.1865  0.3108
   30SAPC  H12A 3951   2.991   5.681   6.248 -1.7266 -1.2129 -2.6498
   30SAPC  H12B 3952   3.107   5.745   6.139 -3.5637  2.0496  1.4061
   30SAPC   C13 3953   3.218   5.488   6.081  0.5236  1.3137 -0.3147
   30SAPC  H13A 3954   3.225   5.383   6.057 -0.4893  0.8414  1.2886
   30SAPC  H13B 3955   3.222   5.536   5.984  2.0780 -0.5443 -1.2404
   30SAPC  H13C 3956   3.302   5.512   6.145  1.7148  0.6697 -1.5865
   30SAPC   C14 3957   3.055   5.422   6.252  0.6367 -0.0920 -0.7316
   30SAPC  H14A 3958   3.062   5.320   6.216  1.1337 -0.5572  0.6463
   30SAPC  H14B 3959   3.127   5.416   6.331  0.1815 -1.6547 -0.3873
   30SAPC  H14C 3960   2.957   5.440   6.293  0.6280  0.4099 -0.9749
   30SAPC   C15 3961   2.981   5.516   6.046 -0.1847  0.6937  0.0755
   30SAPC  H15A 3962   2.891   5.499   6.103 -1.0667  0.1402 -1.4084
   30SAPC  H15B 3963   2.981   5.607   5.989  0.3369  2.0326  2.1124
   30SAPC  H15C 3964   2.988   5.439   5.970 -0.1894  0.9619 -0.1958
   30SAPC   C11 3965   3.190   5.681   6.319  0.2236  0.2367 -0.0907
   30SAPC  H11A 3966   3.172   5.600   6.393  1.7981  0.1213  0.1867
   30SAPC  H11B 3967   3.174   5.778   6.371  0.4980  0.4336 -0.3737
   30SAPC     P 3968   3.409   5.789   6.218  0.0355 -0.1764  0.0407
   30SAPC   O13 3969   3.544   5.734   6.182  0.1918 -0.1089  0.3079
   30SAPC   O14 3970   3.343   5.865   6.108 -0.2874 -0.1327  0.3479
   30SAPC   O12 3971   3.322   5.674   6.277 -0.3986  0.2756  0.0357
   30SAPC   O11 3972   3.440   5.882   6.342  0.5901  1.0162  0.2120
   30SAPC    C1 3973   3.490   5.815   6.460  0.2271 -0.2595 -0.6057
   30SAPC    HA 3974   3.537   5.716   6.442  1.6491  0.6890 -2.4622
   30SAPC    HB 3975   3.576   5.870   6.502  0.2639 -0.5112 -0.3493
   30SAPC    C2 3976   3.382   5.822   6.573 -0.3626  0.0167  0.6265
   30SAPC    HS 3977   3.299   5.768   6.523  0.2516 -0.2462 -0.1382
   30SAPC   O21 3978   3.346   5.959   6.610 -0.3423  0.3115  1.0839
   30SAPC   C21 3979   3.220   5.993   6.601  0.9021  0.1476 -0.7041
   30SAPC   O22 3980   3.133   5.928   6.552 -0.1460  0.1703 -0.0939
   30SAPC   C22 3981   3.206   6.129   6.646  0.0367  0.1107  0.1558
   30SAPC   H2R 3982   3.274   6.196   6.589 -2.7409  2.2430 -0.8835
   30SAPC   H2S 3983   3.105   6.170   6.623 -0.3090 -0.9484 -0.2967
   30SAPC    C3 3984   3.434   5.751   6.704 -0.5398  0.2460  0.4527
   30SAPC    HX 3985   3.515   5.806   6.755  0.8913 -1.6010  0.2916
   30SAPC    HY 3986   3.482   5.656   6.672  0.9335  1.7448 -2.0834
   30SAPC   O31 3987   3.322   5.733   6.793  0.0213  1.2189  0.0532
   30SAPC   C31 3988   3.336   5.640   6.883  0.2883 -0.1436 -0.2693
   30SAPC   O32 3989   3.431   5.569   6.903  0.1643  0.3439 -0.5543
   30SAPC   C32 3990   3.204   5.630   6.963  0.0406 -0.2653 -1.1367
   30SAPC   H2X 3991   3.143   5.554   6.909  2.8349 -2.6725 -1.1229
   30SAPC   H2Y 3992   3.154   5.729   6.950  0.5403  0.1480 -0.0302
   30SAPC   C23 3993   3.211   6.148   6.800  0.2087 -0.4081  0.6741
   30SAPC   H3R 3994   3.231   6.257   6.810 -2.6652  0.1498  1.2680
   30SAPC   H3S 3995   3.295   6.094   6.849 -0.4734 -0.3160  1.9759
   30SAPC   C24 3996   3.078   6.116   6.868 -0.7118  0.2428 -0.0471
   30SAPC   H4R 3997   3.102   6.068   6.965 -0.1982 -1.4587 -0.9761
   30SAPC   H4S 3998   3.024   6.042   6.806 -1.7086 -0.0069  1.0730
   30SAPC   C25 3999   2.990   6.229   6.883 -0.0035  0.2148 -0.1728
   30SAPC   H5R 4000   2.961   6.280   6.790 -0.2518  0.2072 -0.1022
   30SAPC   C26 4001   2.958   6.286   7.001 -0.8001 -0.6581 -0.6577
   30SAPC   H6R 4002   2.889   6.372   6.999  0.8589  0.7237 -0.4746
   30SAPC   C27 4003   2.997   6.245   7.144  0.1850  0.7820 -0.3320
   30SAPC   H7R 4004   3.071   6.320   7.180  2.1464 -2.6039  3.6133
   30SAPC   H7S 4005   3.056   6.151   7.152 -1.3268 -0.1382  0.8204
   30SAPC   C28 4006   2.887   6.232   7.252 -0.0791 -0.3977  0.1051
   30SAPC   H8R 4007   2.799   6.296   7.232  0.8367  0.7163 -0.4746
   30SAPC   C29 4008   2.874   6.150   7.360  0.5151  0.1405 -0.4004
   30SAPC   H9R 4009   2.786   6.170   7.422  0.5824 -0.8445  0.0170
   30SAPC  C210 4010   2.969   6.045   7.411  0.0342 -0.6586  0.3608
   30SAPC  H10R 4011   2.976   6.066   7.520 -2.2856 -0.0689  0.4559
   30SAPC  H10S 4012   3.062   6.059   7.352 -0.3349 -0.8703 -0.2820
   30SAPC  C211 4013   2.920   5.901   7.394 -0.1506  0.1622 -0.0190
   30SAPC  H11R 4014   2.869   5.883   7.298  0.4335  2.1597 -0.7551
   30SAPC  C212 4015   2.916   5.808   7.489  0.0245  0.7985  0.1277
   30SAPC  H12R 4016   2.853   5.721   7.465 -1.4782  1.6834  0.7267
   30SAPC  C213 4017   2.960   5.834   7.630  0.3582 -0.3464  0.2011
   30SAPC  H13R 4018   2.930   5.936   7.663  0.3802  0.4470 -2.0839
   30SAPC  H13S 4019   3.071   5.844   7.636  0.2201  0.8323  1.4864
   30SAPC  C214 4020   2.911   5.738   7.737 -0.7486  0.5511  0.2100
   30SAPC  H14R 4021   2.894   5.634   7.709  1.4001  0.5051 -1.1526
   30SAPC  C215 4022   2.917   5.763   7.867 -0.7983 -0.2143  0.4626
   30SAPC  H15R 4023   2.890   5.683   7.939  1.1465 -1.8100 -0.4680
   30SAPC  C216 4024   2.952   5.901   7.928  0.1675 -0.0231  0.7584
   30SAPC  H16R 4025   2.881   5.931   8.007 -0.1797  2.2229 -0.3455
   30SAPC  H16S 4026   2.949   5.980   7.850  3.0397 -0.5377 -0.0123
   30SAPC  C217 4027   3.093   5.892   7.980 -0.4900 -0.0520 -0.2205
   30SAPC  H17R 4028   3.135   5.989   8.015 -1.2921  0.3370 -0.2965
   30SAPC  H17S 4029   3.158   5.859   7.896  0.3963 -0.6402  0.6829
   30SAPC  C218 4030   3.104   5.802   8.106  0.6118 -0.1270 -0.0055
   30SAPC  H18R 4031   3.106   5.696   8.073 -1.5461 -1.3684  3.3171
   30SAPC  H18S 4032   3.014   5.820   8.168 -0.4293  1.0059 -1.7443
   30SAPC  C219 4033   3.218   5.819   8.200  0.2526 -0.2358 -0.9649
   30SAPC  H19R 4034   3.309   5.845   8.142 -0.2536  1.1308 -1.1966
   30SAPC  H19S 4035   3.226   5.720   8.249 -0.6615  0.2124  0.1578
   30SAPC  C220 4036   3.195   5.932   8.300  0.2170 -0.8656 -0.1072
   30SAPC  H20R 4037   3.205   6.026   8.242  0.1603 -0.1047  1.0795
   30SAPC  H20S 4038   3.262   5.926   8.388 -0.2353  0.1779  0.3325
   30SAPC  H20T 4039   3.090   5.927   8.336  0.0969  3.0100  0.5471
   30SAPC   C33 4040   3.210   5.601   7.117 -0.2014  0.1846 -0.3180
   30SAPC   H3X 4041   3.239   5.495   7.135  0.3383  0.2127 -0.9980
   30SAPC   H3Y 4042   3.105   5.608   7.151  0.2199  0.1388  1.0607
   30SAPC   C34 4043   3.294   5.700   7.190  0.1701  0.4983 -0.3893
   30SAPC   H4X 4044   3.280   5.808   7.168  1.7387  0.5982 -1.0313
   30SAPC   H4Y 4045   3.401   5.685   7.163 -0.0948 -1.2023 -0.5876
   30SAPC   C35 4046   3.280   5.689   7.345 -0.4080  0.0992 -0.2142
   30SAPC   H5X 4047   3.178   5.709   7.385 -0.3288 -1.5515  0.9064
   30SAPC   H5Y 4048   3.338   5.770   7.395  0.1342 -0.6017  0.3019
   30SAPC   C36 4049   3.300   5.541   7.397 -0.4765 -0.0805  0.1681
   30SAPC   H6X 4050   3.404   5.511   7.368 -1.0574 -1.9107 -0.1834
   30SAPC   H6Y 4051   3.228   5.470   7.350 -0.0702  0.2721 -1.0314
   30SAPC   C37 4052   3.263   5.540   7.545 -0.0093 -0.5281 -0.0968
   30SAPC   H7X 4053   3.280   5.437   7.581  0.7319  0.5257  2.8603
   30SAPC   H7Y 4054   3.156   5.571   7.555  0.2273  0.3399 -0.1943
   30SAPC   C38 4055   3.354   5.631   7.629  0.5267  0.1023 -0.0138
   30SAPC   H8X 4056   3.320   5.736   7.616  2.9654  1.0118  0.5427
   30SAPC   H8Y 4057   3.456   5.621   7.588  0.0359  0.4330 -1.3641
   30SAPC   C39 4058   3.355   5.587   7.777 -0.7085  0.1784 -0.1148
   30SAPC   H9X 4059   3.373   5.477   7.775  1.5404  0.4820  0.7116
   30SAPC   H9Y 4060   3.257   5.595   7.829 -0.0738 -1.1464  1.3718
   30SAPC  C310 4061   3.448   5.673   7.857 -0.0244  1.4335 -0.3131
   30SAPC  H10X 4062   3.411   5.778   7.856 -0.0370  1.4322 -1.1667
   30SAPC  H10Y 4063   3.550   5.681   7.812  0.8001  0.3501  1.2809
   30SAPC  C311 4064   3.465   5.634   8.006  0.2790 -0.5979 -0.4060
   30SAPC  H11X 4065   3.365   5.627   8.052  0.3275  0.1598 -0.1706
   30SAPC  H11Y 4066   3.512   5.719   8.060 -0.7895 -1.0754  1.3572
   30SAPC  C312 4067   3.542   5.509   8.026 -0.6041  0.6658  0.2792
   30SAPC  H12X 4068   3.637   5.524   7.971 -2.3823 -0.9102 -3.5963
   30SAPC  H12Y 4069   3.491   5.417   7.989 -1.2473  0.6610  1.1485
   30SAPC  C313 4070   3.570   5.478   8.178  0.5657  0.3743  0.4408
   30SAPC  H13X 4071   3.605   5.566   8.237  2.2217  0.1179 -0.1101
   30SAPC  H13Y 4072   3.653   5.405   8.184  0.3241 -0.1884 -2.0320
   30SAPC  C314 4073   3.451   5.413   8.241 -0.2765 -0.2260 -0.3000
   30SAPC  H14X 4074   3.388   5.363   8.165 -2.0775 -0.2254  1.1168
   30SAPC  H14Y 4075   3.386   5.494   8.281 -0.1801  0.1849 -0.9576
   30SAPC  C315 4076   3.481   5.313   8.353  0.0354  0.4353  0.0314
   30SAPC  H15X 4077   3.526   5.369   8.437 -0.9666  3.2965 -1.2140
   30SAPC  H15Y 4078   3.553   5.235   8.320 -0.2743  0.2887 -0.3219
   30SAPC  C316 4079   3.360   5.246   8.419  0.3251 -0.4974 -0.1230
   30SAPC  H16X 4080   3.267   5.299   8.388  0.2650 -0.7301 -0.3385
   30SAPC  H16Y 4081   3.373   5.270   8.527 -0.6617  1.2891 -0.3660
   30SAPC  C317 4082   3.334   5.096   8.384 -0.0501  0.7670 -0.3076
   30SAPC  H17X 4083   3.345   5.096   8.273  1.3749  0.3550 -0.1872
   30SAPC  H17Y 4084   3.230   5.071   8.412 -0.0462 -1.5211 -2.0372
   30SAPC  C318 4085   3.424   4.991   8.450  0.3682  0.1994 -0.1720
   30SAPC  H18X 4086   3.531   5.013   8.428  0.3332  0.9691  0.3770
   30SAPC  H18Y 4087   3.397   4.886   8.426 -0.3327  0.8040 -2.1691
   30SAPC  H18Z 4088   3.404   5.000   8.559  1.1045  1.6493 -0.1339
   31SAPC     N 4089   4.389   2.492   5.784  0.6837 -0.3259 -0.1239
   31SAPC   C12 4090   4.321   2.528   5.919  0.7965  0.0834 -0.0143
   31SAPC  H12A 4091   4.215   2.512   5.906  0.6976  1.4413 -1.0119
   31SAPC  H12B 4092   4.330   2.633   5.943 -1.2842  0.0508  1.1301
   31SAPC   C13 4093   4.336   2.569   5.663 -0.1871  0.7357 -0.7718
   31SAPC  H13A 4094   4.397   2.547   5.576  1.9807  3.0261  0.0415
   31SAPC  H13B 4095   4.235   2.542   5.635  0.0842  1.8441 -3.0992
   31SAPC  H13C 4096   4.350   2.674   5.687 -1.2093  0.5924  0.5547
   31SAPC   C14 4097   4.535   2.522   5.781 -0.5178  0.3615  0.2378
   31SAPC  H14A 4098   4.575   2.453   5.853 -0.8818  0.8152  0.8885
   31SAPC  H14B 4099   4.574   2.492   5.685 -0.2747  1.0306  0.1232
   31SAPC  H14C 4100   4.564   2.625   5.797  0.2455  0.2627 -0.4772
   31SAPC   C15 4101   4.367   2.345   5.761 -0.1887  0.3583 -0.0665
   31SAPC  H15A 4102   4.272   2.301   5.788  1.4183 -3.4008 -0.0449
   31SAPC  H15B 4103   4.399   2.321   5.661 -0.8347  0.8282 -0.3952
   31SAPC  H15C 4104   4.441   2.297   5.824 -1.8212  0.0685  1.7432
   31SAPC   C11 4105   4.383   2.461   6.052 -0.9092 -0.5756  0.3553
   31SAPC  H11A 4106   4.371   2.351   6.048  1.1671 -0.8390  0.7275
   31SAPC  H11B 4107   4.328   2.508   6.137 -2.6391  1.0838 -1.5604
   31SAPC     P 4108   4.611   2.428   6.175  0.2145  0.2736  0.4143
   31SAPC   O13 4109   4.541   2.314   6.233 -0.4199 -0.0145  0.4760
   31SAPC   O14 4110   4.745   2.407   6.129 -0.2983  0.5589  0.5759
   31SAPC   O12 4111   4.520   2.494   6.061  0.3446  0.1864 -0.1562
   31SAPC   O11 4112   4.614   2.541   6.289 -0.4038  0.1071 -0.1037
   31SAPC    C1 4113   4.735   2.549   6.377  0.0032  0.3852  0.3159
   31SAPC    HA 4114   4.747   2.447   6.418 -1.2545 -0.4567 -1.3013
   31SAPC    HB 4115   4.826   2.579   6.322  0.0147 -1.7723 -0.9397
   31SAPC    C2 4116   4.705   2.652   6.489  0.3215  1.0362 -0.4029
   31SAPC    HS 4117   4.796   2.677   6.549  0.2068  0.7068 -0.0915
   31SAPC   O21 4118   4.587   2.607   6.569 -1.1594  0.0152  0.0423
   31SAPC   C21 4119   4.625   2.511   6.658  0.1900 -0.1670 -0.5930
   31SAPC   O22 4120   4.738   2.469   6.679  0.5657 -0.2856  0.1705
   31SAPC   C22 4121   4.499   2.481   6.747 -0.3391 -0.2543  0.8163
   31SAPC   H2R 4122   4.517   2.529   6.846 -0.2566 -3.1967  2.3162
   31SAPC   H2S 4123   4.417   2.524   6.685  1.3708  2.5425  0.3147
   31SAPC    C3 4124   4.665   2.786   6.426 -0.2393 -0.2704 -0.0513
   31SAPC    HX 4125   4.578   2.773   6.358  0.0859  0.6727 -0.6586
   31SAPC    HY 4126   4.740   2.817   6.351 -0.3576 -0.4893 -0.2631
   31SAPC   O31 4127   4.655   2.891   6.527  0.0641 -0.0530  0.5106
   31SAPC   C31 4128   4.536   2.911   6.576 -0.0272  0.0795 -0.5408
   31SAPC   O32 4129   4.432   2.889   6.512 -0.0939  0.4372 -0.3351
   31SAPC   C32 4130   4.543   2.987   6.703  0.3049 -0.0710 -0.1176
   31SAPC   H2X 4131   4.526   3.095   6.680 -2.0131 -0.0226  1.5700
   31SAPC   H2Y 4132   4.634   2.958   6.759 -0.2312 -1.5289  0.0293
   31SAPC   C23 4133   4.468   2.331   6.765  0.3877 -0.0658  0.2884
   31SAPC   H3R 4134   4.508   2.315   6.868  0.1366  1.3023  0.6307
   31SAPC   H3S 4135   4.511   2.263   6.689 -0.1114 -1.8563  1.5345
   31SAPC   C24 4136   4.314   2.313   6.770  0.1114  0.6003 -0.4475
   31SAPC   H4R 4137   4.256   2.350   6.683  0.4665  1.2593 -0.4136
   31SAPC   H4S 4138   4.272   2.376   6.851 -1.4947  0.8330 -1.4105
   31SAPC   C25 4139   4.266   2.171   6.782  0.4820 -0.3684 -0.5179
   31SAPC   H5R 4140   4.257   2.115   6.688  0.9840  1.3662 -1.6385
   31SAPC   C26 4141   4.224   2.111   6.894 -0.0457 -0.2627 -0.9189
   31SAPC   H6R 4142   4.201   2.004   6.886 -1.7039  0.0375 -0.5730
   31SAPC   C27 4143   4.216   2.176   7.037  0.0779 -0.5103 -0.3231
   31SAPC   H7R 4144   4.156   2.101   7.094 -1.0272  0.7611  0.2395
   31SAPC   H7S 4145   4.168   2.276   7.026  0.0036 -0.2846  1.5943
   31SAPC   C28 4146   4.354   2.196   7.097  0.1064 -0.0362 -0.5307
   31SAPC   H8R 4147   4.440   2.167   7.034 -0.9052 -0.8134 -1.5786
   31SAPC   C29 4148   4.369   2.252   7.220 -0.0558  0.1841 -0.5716
   31SAPC   H9R 4149   4.472   2.272   7.254 -0.3460 -1.3695  1.3723
   31SAPC  C210 4150   4.254   2.300   7.302 -0.2865 -0.1217  0.7236
   31SAPC  H10R 4151   4.177   2.220   7.304  1.7473 -2.4729 -2.8149
   31SAPC  H10S 4152   4.192   2.378   7.253  0.1736  0.5965  1.2628
   31SAPC  C211 4153   4.315   2.352   7.429 -0.2902  0.2779  0.4736
   31SAPC  H11R 4154   4.351   2.455   7.439  0.5040  0.1690 -1.0700
   31SAPC  C212 4155   4.340   2.274   7.538  0.3122 -0.4425 -0.8697
   31SAPC  H12R 4156   4.388   2.324   7.623 -0.2241 -1.4288  0.0449
   31SAPC  C213 4157   4.322   2.119   7.562 -0.5556  0.0870  0.0306
   31SAPC  H13R 4158   4.421   2.078   7.589  0.4874 -0.4471 -4.0013
   31SAPC  H13S 4159   4.286   2.066   7.471 -1.7110 -2.4246  1.8335
   31SAPC  C214 4160   4.229   2.096   7.679  0.1338 -0.0520 -0.9481
   31SAPC  H14R 4161   4.123   2.094   7.650  0.1159 -1.2141 -0.8215
   31SAPC  C215 4162   4.262   2.053   7.803 -0.3006 -0.2495 -0.2007
   31SAPC  H15R 4163   4.174   2.041   7.868 -1.3617  0.7286 -1.4013
   31SAPC  C216 4164   4.401   2.038   7.864  0.0692  0.4390  0.5954
   31SAPC  H16R 4165   4.465   2.120   7.825 -0.0393  1.0623  1.7107
   31SAPC  H16S 4166   4.450   1.941   7.840 -0.3463 -0.1553  2.0384
   31SAPC  C217 4167   4.401   2.055   8.015 -0.5021  0.4225  1.2165
   31SAPC  H17R 4168   4.390   2.164   8.035  0.2364  0.3982  1.8083
   31SAPC  H17S 4169   4.504   2.025   8.047  0.2565 -0.8388 -2.0394
   31SAPC  C218 4170   4.309   1.957   8.082  0.2629  0.0894 -0.0091
   31SAPC  H18R 4171   4.204   1.956   8.045  0.7719 -0.0593 -1.5389
   31SAPC  H18S 4172   4.303   1.987   8.189  0.6066  1.1950 -0.2863
   31SAPC  C219 4173   4.361   1.812   8.065  0.1595 -0.2598 -0.2719
   31SAPC  H19R 4174   4.463   1.802   8.108 -0.7959 -0.1373  2.1798
   31SAPC  H19S 4175   4.361   1.782   7.958 -1.1490 -3.6493  0.5222
   31SAPC  C220 4176   4.272   1.708   8.135 -0.1967 -0.2693  0.0281
   31SAPC  H20R 4177   4.176   1.715   8.079  0.7461  2.5109 -1.4217
   31SAPC  H20S 4178   4.260   1.724   8.244  3.0980  3.1891  0.0928
   31SAPC  H20T 4179   4.297   1.600   8.130  0.8001 -0.0817  0.8073
   31SAPC   C33 4180   4.427   2.959   6.802  0.4768 -0.2951  0.2422
   31SAPC   H3X 4181   4.325   2.957   6.758  0.1202  0.3855  1.0015
   31SAPC   H3Y 4182   4.430   3.032   6.886  2.7261 -0.9016  0.7508
   31SAPC   C34 4183   4.463   2.826   6.870  0.1393  0.4852 -0.7973
   31SAPC   H4X 4184   4.526   2.755   6.812 -0.1552 -2.0065  1.7362
   31SAPC   H4Y 4185   4.366   2.777   6.891 -0.2497  0.9676 -1.4413
   31SAPC   C35 4186   4.538   2.837   7.005 -0.3193 -0.3553  0.7448
   31SAPC   H5X 4187   4.466   2.881   7.078 -0.2897 -0.7366  1.0041
   31SAPC   H5Y 4188   4.619   2.913   7.003 -0.0105 -0.6403 -2.6874
   31SAPC   C36 4189   4.584   2.700   7.049  0.0576  0.4103 -0.0163
   31SAPC   H6X 4190   4.667   2.667   6.984  1.4371 -1.0268  2.3290
   31SAPC   H6Y 4191   4.492   2.641   7.029 -1.3637  2.2672  0.6579
   31SAPC   C37 4192   4.626   2.692   7.199  0.4687  0.4179 -0.7950
   31SAPC   H7X 4193   4.718   2.753   7.206  0.4722  0.2750  1.0174
   31SAPC   H7Y 4194   4.646   2.585   7.218 -0.6015  0.0685 -1.5074
   31SAPC   C38 4195   4.522   2.752   7.296 -0.0968 -0.1228  0.1384
   31SAPC   H8X 4196   4.425   2.704   7.268 -0.3516  0.6500 -0.3376
   31SAPC   H8Y 4197   4.520   2.861   7.277  0.1337  0.2540  2.1027
   31SAPC   C39 4198   4.556   2.734   7.437  0.0820  0.2842 -0.1627
   31SAPC   H9X 4199   4.651   2.786   7.458 -0.3043  0.5852  0.9275
   31SAPC   H9Y 4200   4.584   2.629   7.464 -0.8840 -0.2561 -1.1711
   31SAPC  C310 4201   4.444   2.768   7.530 -0.2898 -0.2968 -0.1016
   31SAPC  H10X 4202   4.355   2.717   7.487  1.5415 -0.4451 -4.1838
   31SAPC  H10Y 4203   4.425   2.877   7.525 -1.9607 -0.3555  3.0450
   31SAPC  C311 4204   4.473   2.728   7.680 -0.1138 -0.2664 -0.5809
   31SAPC  H11X 4205   4.547   2.797   7.725  0.0915  0.2705 -1.7068
   31SAPC  H11Y 4206   4.520   2.628   7.674  1.8334  0.6650 -2.7477
   31SAPC  C312 4207   4.348   2.709   7.764 -1.1214 -0.5760  0.2411
   31SAPC  H12X 4208   4.273   2.647   7.711 -2.1455  1.1735 -0.4342
   31SAPC  H12Y 4209   4.296   2.807   7.771  1.8889  1.3443 -1.7667
   31SAPC  C313 4210   4.378   2.650   7.895  0.1023  0.2686  0.1576
   31SAPC  H13X 4211   4.407   2.543   7.889 -0.1643 -0.0722  3.3462
   31SAPC  H13Y 4212   4.283   2.652   7.952 -1.2285  0.1633 -1.9586
   31SAPC  C314 4213   4.486   2.719   7.984  0.2388 -0.3413 -0.6099
   31SAPC  H14X 4214   4.589   2.724   7.945  0.4128  0.4447 -0.0714
   31SAPC  H14Y 4215   4.490   2.653   8.074  2.4124  1.3914  0.6558
   31SAPC  C315 4216   4.460   2.866   8.019  0.2435 -0.2366 -0.7200
   31SAPC  H15X 4217   4.353   2.897   8.022  0.3980  0.2687 -0.2352
   31SAPC  H15Y 4218   4.497   2.929   7.935  1.3774  0.0359 -0.0446
   31SAPC  C316 4219   4.526   2.916   8.152  0.0712 -0.0406  0.7459
   31SAPC  H16X 4220   4.465   3.003   8.185  0.7376  1.0113 -0.6745
   31SAPC  H16Y 4221   4.625   2.957   8.122 -0.0446 -0.4652 -0.2798
   31SAPC  C317 4222   4.536   2.816   8.262 -0.6354 -0.0773  0.3028
   31SAPC  H17X 4223   4.593   2.726   8.231 -1.4931  0.2772 -2.6810
   31SAPC  H17Y 4224   4.440   2.764   8.282  0.0225 -1.1812  0.6974
   31SAPC  C318 4225   4.604   2.857   8.387 -0.2612  0.2437 -0.2109
   31SAPC  H18X 4226   4.589   2.778   8.463 -2.4564  1.9324  1.2429
   31SAPC  H18Y 4227   4.559   2.948   8.433  2.6750  1.5782  0.2446
   31SAPC  H18Z 4228   4.715   2.867   8.381 -0.1096 -1.1664  0.0315
   32SAPC     N 4229   5.890   3.376   6.310 -0.4240 -0.8135 -0.5984
   32SAPC   C12 4230   6.014   3.290   6.323 -0.5068 -0.0539 -0.2114
   32SAPC  H12A 4231   6.089   3.336   6.386  1.2699 -0.7453 -1.6976
   32SAPC  H12B 4232   6.057   3.288   6.224 -1.7054 -2.1858 -0.7580
   32SAPC   C13 4233   5.803   3.329   6.193 -0.2483  0.5482 -0.7592
   32SAPC  H13A 4234   5.718   3.394   6.183 -0.9264 -0.4047 -1.4312
   32SAPC  H13B 4235   5.861   3.327   6.102  1.7906 -0.0233  0.4757
   32SAPC  H13C 4236   5.763   3.233   6.222 -1.7267  1.4550  0.3118
   32SAPC   C14 4237   5.816   3.370   6.441  0.3243  0.3061 -0.8382
   32SAPC  H14A 4238   5.823   3.268   6.475  2.4031  1.0159  1.0904
   32SAPC  H14B 4239   5.868   3.425   6.517 -0.6380  0.8766 -0.5689
   32SAPC  H14C 4240   5.719   3.418   6.445 -0.6608 -1.6088 -0.0924
   32SAPC   C15 4241   5.927   3.515   6.276  0.4016 -0.4656  0.3955
   32SAPC  H15A 4242   5.840   3.579   6.278  0.9319  0.2605  1.6138
   32SAPC  H15B 4243   5.995   3.562   6.346  0.6273 -0.7153  0.3436
   32SAPC  H15C 4244   5.974   3.529   6.180 -1.3086 -1.4025 -0.6207
   32SAPC   C11 4245   5.995   3.143   6.365  0.2531 -0.6836 -0.4278
   32SAPC  H11A 4246   5.969   3.152   6.472  1.8603 -1.9093  0.0967
   32SAPC  H11B 4247   6.088   3.084   6.355  0.1145 -0.7817 -1.1998
   32SAPC     P 4248   5.851   2.934   6.327 -0.0263  0.3137  0.1366
   32SAPC   O13 4249   5.749   2.900   6.227  0.2346 -0.0227 -0.5286
   32SAPC   O14 4250   5.968   2.842   6.330 -0.3118 -0.4340 -0.6230
   32SAPC   O12 4251   5.893   3.079   6.293  0.8090 -0.8720 -0.0979
   32SAPC   O11 4252   5.779   2.948   6.467  0.5494  0.0944 -0.0330
   32SAPC    C1 4253   5.669   3.036   6.478  0.1753  0.6591  0.1713
   32SAPC    HA 4254   5.702   3.142   6.486 -1.0218  1.0103  0.7551
   32SAPC    HB 4255   5.600   3.033   6.391  0.0625 -2.1554  0.2642
   32SAPC    C2 4256   5.581   3.001   6.607 -0.6493  0.3242 -0.0995
   32SAPC    HS 4257   5.516   3.089   6.622 -1.2840  0.1602 -1.6925
   32SAPC   O21 4258   5.673   2.960   6.716 -0.0825 -0.2930 -0.8535
   32SAPC   C21 4259   5.729   3.062   6.782  0.2170 -0.1068 -0.0490
   32SAPC   O22 4260   5.685   3.181   6.765  0.3292  0.0370 -0.4098
   32SAPC   C22 4261   5.833   3.021   6.882  0.2436 -0.0179  0.0579
   32SAPC   H2R 4262   5.932   3.048   6.839 -0.4334 -1.1615 -2.3565
   32SAPC   H2S 4263   5.811   3.081   6.973  1.5762  0.0883  0.3366
   32SAPC    C3 4264   5.484   2.877   6.581 -0.0288  0.5728 -0.0800
   32SAPC    HX 4265   5.564   2.813   6.538  0.7018  0.3861  1.4918
   32SAPC    HY 4266   5.409   2.893   6.500 -0.2660  0.8117  0.1821
   32SAPC   O31 4267   5.421   2.832   6.705  0.2577  0.3499 -0.5496
   32SAPC   C31 4268   5.465   2.720   6.762 -0.6827 -0.2712  0.4492
   32SAPC   O32 4269   5.554   2.653   6.716  0.0114 -0.3972 -0.0724
   32SAPC   C32 4270   5.400   2.696   6.900  0.0482  0.6041  0.8352
   32SAPC   H2X 4271   5.400   2.588   6.925 -0.3741  0.5224  0.5138
   32SAPC   H2Y 4272   5.296   2.736   6.898 -1.0576 -2.0771  0.5258
   32SAPC   C23 4273   5.825   2.876   6.944 -0.4397 -0.6198 -0.7085
   32SAPC   H3R 4274   5.814   2.801   6.862  2.3779  0.3358 -2.0655
   32SAPC   H3S 4275   5.747   2.873   7.024  1.2522  2.6108  1.2511
   32SAPC   C24 4276   5.952   2.833   7.025 -0.9184 -0.5386  0.0999
   32SAPC   H4R 4277   5.985   2.922   7.083  0.6408 -1.0977  0.1213
   32SAPC   H4S 4278   6.031   2.831   6.947 -0.9704  0.8620 -0.0164
   32SAPC   C25 4279   5.937   2.705   7.101 -0.4605 -0.0719 -1.0405
   32SAPC   H5R 4280   5.914   2.616   7.040  0.7011 -2.0336  1.2153
   32SAPC   C26 4281   5.954   2.689   7.236 -0.0689 -0.0123 -0.2452
   32SAPC   H6R 4282   5.932   2.591   7.281 -0.7216  0.3860  0.3311
   32SAPC   C27 4283   5.982   2.801   7.332  0.3604 -0.0955 -0.2607
   32SAPC   H7R 4284   5.892   2.845   7.379  0.3612 -0.3234 -0.0489
   32SAPC   H7S 4285   6.016   2.893   7.279 -0.1833 -0.3445 -1.0608
   32SAPC   C28 4286   6.081   2.779   7.445  0.4840  0.2700 -0.3610
   32SAPC   H8R 4287   6.165   2.715   7.414 -0.6429 -1.3476 -0.1572
   32SAPC   C29 4288   6.087   2.831   7.573  0.3490 -0.9180  0.1097
   32SAPC   H9R 4289   6.174   2.814   7.638  0.7821 -2.7436 -0.8693
   32SAPC  C210 4290   5.986   2.919   7.635 -0.6534  0.1358  0.8463
   32SAPC  H10R 4291   5.925   2.866   7.711  0.1275 -2.5548 -0.2690
   32SAPC  H10S 4292   5.920   2.959   7.555  0.8628 -2.2040 -1.7777
   32SAPC  C211 4293   6.053   3.039   7.700 -0.3825 -0.4807  0.4877
   32SAPC  H11R 4294   6.068   3.121   7.628 -1.4185 -0.7905 -0.1054
   32SAPC  C212 4295   6.102   3.052   7.826 -0.0091  0.6412  0.5482
   32SAPC  H12R 4296   6.141   3.148   7.862  1.0635  0.2537  0.4346
   32SAPC  C213 4297   6.092   2.939   7.928 -0.6519  0.2421 -0.7340
   32SAPC  H13R 4298   6.130   2.846   7.881  1.6784  0.7783 -0.0420
   32SAPC  H13S 4299   5.986   2.911   7.945 -0.3003 -1.8147 -1.6535
   32SAPC  C214 4300   6.168   2.961   8.056 -0.8613 -0.2855  0.2363
   32SAPC  H14R 4301   6.276   2.971   8.043 -0.9772  0.5329 -0.1280
   32SAPC  C215 4302   6.112   2.968   8.176  0.3369  0.2075  0.4596
   32SAPC  H15R 4303   6.173   2.982   8.267  1.4071  0.6208 -0.2984
   32SAPC  C216 4304   5.966   2.956   8.209  0.2158 -0.4049  0.1531
   32SAPC  H16R 4305   5.918   2.900   8.126  1.0179  0.5478 -0.9863
   32SAPC  H16S 4306   5.918   3.055   8.218  0.5641 -0.1045 -1.1295
   32SAPC  C217 4307   5.947   2.871   8.342  0.5925  0.4518  0.0170
   32SAPC  H17R 4308   5.970   2.763   8.326 -1.5050 -0.6572  3.5425
   32SAPC  H17S 4309   5.839   2.872   8.365  0.8373 -2.5406  1.8725
   32SAPC  C218 4310   6.038   2.926   8.453 -0.1452  0.8057  0.2514
   32SAPC  H18R 4311   6.056   3.034   8.431  2.1792 -0.0008 -2.3714
   32SAPC  H18S 4312   6.134   2.872   8.437 -1.0486 -0.2205 -2.0461
   32SAPC  C219 4313   5.978   2.911   8.597  0.2474  0.2185 -0.1536
   32SAPC  H19R 4314   5.868   2.925   8.589  0.0519 -0.5039  0.9739
   32SAPC  H19S 4315   6.026   2.997   8.649  2.3452 -0.3706 -1.0205
   32SAPC  C220 4316   6.001   2.774   8.669 -0.0222  0.4315 -0.2343
   32SAPC  H20R 4317   6.100   2.729   8.648 -0.6378 -0.7132 -0.7870
   32SAPC  H20S 4318   5.932   2.695   8.632 -1.6618  0.1439  3.0708
   32SAPC  H20T 4319   5.985   2.768   8.778 -0.6242 -4.4026 -0.3615
   32SAPC   C33 4320   5.473   2.763   7.020 -0.4529 -0.1370  0.9728
   32SAPC   H3X 4321   5.495   2.870   6.998 -0.2965  0.0169  1.8554
   32SAPC   H3Y 4322   5.577   2.726   7.032 -0.2846 -0.0187 -0.0026
   32SAPC   C34 4323   5.398   2.748   7.153  0.1368  0.0153  0.1324
   32SAPC   H4X 4324   5.394   2.638   7.168  1.1677 -0.1696 -0.7617
   32SAPC   H4Y 4325   5.301   2.799   7.135  1.3013  1.3686 -2.9572
   32SAPC   C35 4326   5.462   2.823   7.266 -0.3836  0.2538 -0.1136
   32SAPC   H5X 4327   5.475   2.928   7.233  2.9061 -0.6346 -2.0940
   32SAPC   H5Y 4328   5.563   2.779   7.278 -0.6193  0.1674  2.0139
   32SAPC   C36 4329   5.377   2.811   7.396  0.1567  0.5022  0.0711
   32SAPC   H6X 4330   5.371   2.700   7.398  1.4710  0.4209  0.4100
   32SAPC   H6Y 4331   5.279   2.861   7.379  0.0530  0.9920  1.9132
   32SAPC   C37 4332   5.443   2.876   7.521 -0.1897 -0.3211  0.8908
   32SAPC   H7X 4333   5.450   2.986   7.506  0.9909 -0.6012 -0.9266
   32SAPC   H7Y 4334   5.546   2.835   7.523 -0.5695 -1.2601  2.0901
   32SAPC   C38 4335   5.379   2.835   7.652 -0.0349 -0.4974 -0.2919
   32SAPC   H8X 4336   5.403   2.728   7.674 -1.0424 -1.1509 -2.1627
   32SAPC   H8Y 4337   5.270   2.830   7.631  0.3897  0.5811 -3.2378
   32SAPC   C39 4338   5.414   2.941   7.761  0.1546  0.0509 -0.0000
   32SAPC   H9X 4339   5.382   3.037   7.714 -1.1532 -0.7574 -0.8064
   32SAPC   H9Y 4340   5.524   2.928   7.772 -0.1899 -3.2131  0.4300
   32SAPC  C310 4341   5.339   2.938   7.897  0.2339  0.1576 -0.3903
   32SAPC  H10X 4342   5.230   2.944   7.876  0.1412 -1.1325 -0.3724
   32SAPC  H10Y 4343   5.360   3.033   7.951  2.2776 -1.6201  2.1776
   32SAPC  C311 4344   5.380   2.816   7.986 -0.0843  0.6546  0.1728
   32SAPC  H11X 4345   5.490   2.805   7.989  0.1311  0.7349 -3.3854
   32SAPC  H11Y 4346   5.343   2.725   7.934 -2.4286  0.2069  2.4372
   32SAPC  C312 4347   5.314   2.817   8.122  0.0455  0.2469 -0.3848
   32SAPC  H12X 4348   5.203   2.814   8.125  0.0274  0.4742 -0.7549
   32SAPC  H12Y 4349   5.340   2.905   8.185 -1.0190  0.4315 -0.1784
   32SAPC  C313 4350   5.346   2.688   8.196  0.0733  0.7159 -0.1490
   32SAPC  H13X 4351   5.454   2.666   8.181 -0.6104 -1.8378 -1.9611
   32SAPC  H13Y 4352   5.282   2.603   8.165 -2.1378  2.7876 -1.6463
   32SAPC  C314 4353   5.319   2.696   8.352 -0.8305  0.1542  1.3262
   32SAPC  H14X 4354   5.393   2.772   8.385  1.3729 -1.2819 -0.0402
   32SAPC  H14Y 4355   5.357   2.594   8.376 -1.4086 -1.1404 -2.5150
   32SAPC  C315 4356   5.174   2.719   8.390  0.3995 -0.1702 -1.0284
   32SAPC  H15X 4357   5.120   2.628   8.355 -0.1689  0.0059 -0.6326
   32SAPC  H15Y 4358   5.119   2.800   8.338 -0.2299  0.2671  0.2565
   32SAPC  C316 4359   5.150   2.738   8.543  0.3472  0.1183  0.6108
   32SAPC  H16X 4360   5.205   2.830   8.572  2.8857 -1.7259  2.0706
   32SAPC  H16Y 4361   5.198   2.656   8.600 -0.3405 -0.0230  1.0015
   32SAPC  C317 4362   5.006   2.756   8.583 -0.2569 -0.1235  0.3710
   32SAPC  H17X 4363   4.985   2.861   8.553 -1.4221 -0.1268  1.0990
   32SAPC  H17Y 4364   4.984   2.743   8.691 -0.5139 -3.1648  0.0308
   32SAPC  C318 4365   4.901   2.666   8.514 -0.3124 -0.2438  0.2453
   32SAPC  H18X 4366   4.942   2.564   8.531  0.5965 -0.3380 -2.0557
   32SAPC  H18Y 4367   4.896   2.683   8.404  2.0133 -2.0975 -0.2398
   32SAPC  H18Z 4368   4.795   2.677   8.545 -0.9608  0.0351 -1.9279
   33POPC     N 4369   4.794   3.190  10.800 -1.0252 -0.2740  0.2416
   33POPC   C12 4370   4.813   3.191  10.650  0.2379  0.6411 -0.0272
   33POPC  H12A 4371   4.780   3.094  10.617 -0.1807  0.4877  0.8206
   33POPC  H12B 4372   4.912   3.187  10.609 -0.4005 -1.5978 -1.5151
   33POPC   C13 4373   4.647   3.149  10.826 -0.2442  0.3901 -0.6631
   33POPC  H13A 4374   4.632   3.048  10.790 -0.2323  0.7140 -1.5958
   33POPC  H13B 4375   4.615   3.158  10.929  0.5446  0.8498 -0.4529
   33POPC  H13C 4376   4.569   3.209  10.781 -0.8014  1.2582  1.3430
   33POPC   C14 4377   4.874   3.081  10.858 -0.6299 -0.2980 -0.2449
   33POPC  H14A 4378   4.862   2.986  10.808  2.7914 -1.2598  0.5163
   33POPC  H14B 4379   4.979   3.103  10.845 -0.4709 -1.4064 -0.9294
   33POPC  H14C 4380   4.854   3.063  10.963 -0.0119  0.5513  0.0335
   33POPC   C15 4381   4.820   3.328  10.851 -1.0917  0.1941 -0.5660
   33POPC  H15A 4382   4.745   3.399  10.821  0.4318  1.7580 -0.8546
   33POPC  H15B 4383   4.919   3.358  10.821 -0.5325 -1.2359 -0.2783
   33POPC  H15C 4384   4.818   3.327  10.959  1.1607  0.0293 -0.4743
   33POPC   C11 4385   4.736   3.296  10.563  0.8557  0.2827  0.4117
   33POPC  H11A 4386   4.741   3.272  10.455 -1.7392 -0.1413  0.3170
   33POPC  H11B 4387   4.780   3.397  10.582  0.8891 -0.0876  2.5836
   33POPC     P 4388   4.506   3.424  10.597 -0.0133 -0.3181 -0.1855
   33POPC   O13 4389   4.563   3.513  10.705  0.3168  0.0652 -0.3351
   33POPC   O14 4390   4.366   3.377  10.620  0.2017  0.1085 -0.5173
   33POPC   O12 4391   4.599   3.294  10.594 -0.5775 -0.0122  0.2180
   33POPC   O11 4392   4.502   3.487  10.449 -0.4306  0.1161 -0.1772
   33POPC    C1 4393   4.597   3.586  10.407  1.0599 -0.1267 -0.3792
   33POPC    HA 4394   4.701   3.564  10.437  0.0344 -1.9449  2.2896
   33POPC    HB 4395   4.600   3.591  10.296 -1.1836  1.9560 -0.4479
   33POPC    C2 4396   4.573   3.739  10.451 -0.1374  0.1904  0.4322
   33POPC    HS 4397   4.596   3.745  10.560  4.5053  1.0457 -0.3659
   33POPC   O21 4398   4.434   3.771  10.419  0.0372 -0.4705  0.2067
   33POPC   C21 4399   4.383   3.865  10.501  0.1404  0.4294  0.0479
   33POPC   O22 4400   4.451   3.937  10.577  0.2526 -0.7183 -0.2967
   33POPC   C22 4401   4.226   3.853  10.505  0.6663 -0.6658  0.0458
   33POPC   H2R 4402   4.215   3.912  10.598 -1.7551  0.0773 -0.6491
   33POPC   H2S 4403   4.190   3.748  10.518 -1.6173  0.1619  0.8690
   33POPC    C3 4404   4.672   3.839  10.383 -0.5500 -0.5351 -0.3212
   33POPC    HX 4405   4.776   3.805  10.400 -0.9749 -0.7397  2.1002
   33POPC    HY 4406   4.662   3.934  10.440 -1.7049 -0.1152 -1.1596
   33POPC   O31 4407   4.648   3.852  10.240  0.2236 -0.0427  0.4374
   33POPC   C31 4408   4.570   3.957  10.201 -0.2240  0.3848  0.5103
   33POPC   O32 4409   4.550   4.060  10.263 -0.7672 -0.5053 -0.6526
   33POPC   C32 4410   4.498   3.935  10.063  0.1273  0.3696 -0.2332
   33POPC   H2X 4411   4.391   3.961  10.078 -0.1598 -0.3942 -0.9599
   33POPC   H2Y 4412   4.508   3.826  10.045 -0.7415 -0.0186  1.3758
   33POPC   C23 4413   4.158   3.927  10.387  0.1067  0.6808 -0.0071
   33POPC   H3R 4414   4.195   4.032  10.387  0.7956  0.4507  0.5761
   33POPC   H3S 4415   4.053   3.940  10.421 -0.1251 -1.2099  0.0968
   33POPC   C24 4416   4.156   3.851  10.258  0.1413  0.1764 -0.4812
   33POPC   H4R 4417   4.116   3.753  10.293 -0.2261  0.6131  0.3519
   33POPC   H4S 4418   4.252   3.832  10.206  1.3611  0.7318  1.4424
   33POPC   C25 4419   4.059   3.919  10.162 -1.1211 -0.0165 -0.6766
   33POPC   H5R 4420   4.082   4.028  10.167  0.3002 -0.2909 -0.9139
   33POPC   H5S 4421   3.954   3.913  10.198 -1.2814 -0.5014 -1.2210
   33POPC   C26 4422   4.080   3.862  10.024 -0.0195 -0.0300 -0.4301
   33POPC   H6R 4423   4.030   3.763  10.016  1.0775 -0.7889  1.4841
   33POPC   H6S 4424   4.187   3.854   9.995 -0.2357  0.8412 -1.5570
   33POPC   C27 4425   4.010   3.947   9.918  0.7092  0.0543 -0.8258
   33POPC   H7R 4426   4.069   4.040   9.904  2.6763 -0.8041  1.1088
   33POPC   H7S 4427   3.914   3.985   9.957  1.2042 -0.6160  1.1595
   33POPC   C28 4428   3.986   3.880   9.775  0.4032  0.6496  0.0255
   33POPC   H8R 4429   3.950   3.960   9.707  1.4134  1.7763  0.7571
   33POPC   H8S 4430   3.899   3.811   9.778 -2.0144  3.4777 -0.5657
   33POPC   C29 4431   4.117   3.811   9.716  0.3531 -0.4864  0.5349
   33POPC   H91 4432   4.166   3.735   9.778 -0.2163 -1.5331 -0.2616
   33POPC  C210 4433   4.167   3.835   9.594  0.3863  0.4118  0.3354
   33POPC  H101 4434   4.256   3.774   9.570  0.9073  0.7593  1.3171
   33POPC  C211 4435   4.114   3.925   9.482  0.5566 -0.2526  0.1516
   33POPC  H11R 4436   4.134   4.032   9.506  2.0530 -0.7852  1.4787
   33POPC  H11S 4437   4.003   3.916   9.484  0.7084 -2.9601  2.1268
   33POPC  C212 4438   4.139   3.880   9.331 -0.0510 -0.2830  0.0972
   33POPC  H12R 4439   4.082   3.785   9.327 -1.5867  0.6340 -0.2269
   33POPC  H12S 4440   4.247   3.868   9.307  0.2602  0.1485  1.2021
   33POPC  C213 4441   4.094   3.987   9.231  1.0660 -0.0469  0.3536
   33POPC  H13R 4442   3.995   4.029   9.259  1.2469 -0.4345  1.6225
   33POPC  H13S 4443   4.082   3.935   9.133 -1.9816 -0.6903  0.9547
   33POPC  C214 4444   4.189   4.111   9.224  0.2639  0.3312  0.9515
   33POPC  H14R 4445   4.292   4.076   9.203  0.1129 -1.7442  3.1100
   33POPC  H14S 4446   4.196   4.164   9.322 -0.5192  2.7618 -0.2396
   33POPC  C215 4447   4.149   4.220   9.120 -0.1520  0.9322 -0.8436
   33POPC  H15R 4448   4.214   4.308   9.141  1.1143 -0.2961  0.6566
   33POPC  H15S 4449   4.040   4.240   9.126 -0.2212  0.5079 -0.6792
   33POPC  C216 4450   4.169   4.162   8.976 -0.0378 -0.2003 -0.7633
   33POPC  H16R 4451   4.099   4.076   8.973  2.0356 -1.9459 -1.9998
   33POPC  H16S 4452   4.274   4.132   8.956  0.7198  0.9581  1.2250
   33POPC  C217 4453   4.123   4.261   8.866 -1.1983 -0.4223  0.8336
   33POPC  H17R 4454   4.104   4.213   8.768 -2.9121  1.1168  0.3748
   33POPC  H17S 4455   4.214   4.321   8.846 -2.2605  0.7080 -0.8333
   33POPC  C218 4456   4.000   4.350   8.891 -0.0979 -0.2148 -0.4696
   33POPC  H18R 4457   4.020   4.429   8.966  0.6769 -1.0375  0.2107
   33POPC  H18S 4458   3.917   4.283   8.925  1.2180 -1.1073  1.1208
   33POPC  H18T 4459   3.965   4.392   8.794 -0.9211 -0.6052 -0.3573
   33POPC   C33 4460   4.547   4.006   9.936  0.0632  0.3172 -0.2038
   33POPC   H3X 4461   4.658   4.008   9.935  0.2342 -2.7693  1.6768
   33POPC   H3Y 4462   4.493   4.102   9.920 -1.3014 -0.4707 -0.4748
   33POPC   C34 4463   4.507   3.935   9.806 -0.4554 -0.6956 -0.0387
   33POPC   H4X 4464   4.400   3.907   9.804 -0.8215  0.6394 -0.2861
   33POPC   H4Y 4465   4.561   3.838   9.807  0.7251 -0.1009  1.9947
   33POPC   C35 4466   4.563   4.021   9.686 -0.1269 -0.0884  0.3824
   33POPC   H5X 4467   4.670   4.045   9.701  0.2240 -0.7962 -0.8770
   33POPC   H5Y 4468   4.510   4.119   9.685  4.3722  2.6378  1.9079
   33POPC   C36 4469   4.545   3.958   9.548  0.0202  0.5131 -0.0678
   33POPC   H6X 4470   4.438   3.941   9.523  0.0451 -2.0101  1.1894
   33POPC   H6Y 4471   4.598   3.861   9.557 -0.1641  0.4741  0.7073
   33POPC   C37 4472   4.604   4.041   9.440  0.3019  0.5138 -0.1741
   33POPC   H7X 4473   4.703   4.080   9.472  0.0214  1.2336 -0.1658
   33POPC   H7Y 4474   4.544   4.133   9.430  3.0572  2.5447  0.7784
   33POPC   C38 4475   4.611   3.957   9.312 -0.0409  0.3636 -0.7802
   33POPC   H8X 4476   4.506   3.959   9.277 -0.3642 -0.3181  0.1140
   33POPC   H8Y 4477   4.647   3.852   9.322  4.1763  1.6851 -0.1268
   33POPC   C39 4478   4.697   4.023   9.212  0.0195 -0.6465 -0.2352
   33POPC   H9X 4479   4.801   4.017   9.250  1.0078  0.9978 -2.4838
   33POPC   H9Y 4480   4.668   4.130   9.210  0.5096 -0.4301  1.7079
   33POPC  C310 4481   4.682   3.963   9.072 -0.2925  0.3692 -0.5195
   33POPC  H10X 4482   4.580   3.956   9.030 -0.0192  1.6843 -1.4737
   33POPC  H10Y 4483   4.715   3.857   9.081 -0.1311  0.5157  0.7475
   33POPC  C311 4484   4.758   4.033   8.962 -0.6687 -0.8628  0.0396
   33POPC  H11X 4485   4.749   3.978   8.865 -0.0731  0.2734 -0.6755
   33POPC  H11Y 4486   4.868   4.030   8.980 -0.8318  1.5903  1.9213
   33POPC  C312 4487   4.715   4.181   8.946  0.8751  0.0316  0.4736
   33POPC  H12X 4488   4.714   4.248   9.034 -0.7294 -0.4648  0.8601
   33POPC  H12Y 4489   4.611   4.175   8.907  1.3858 -2.4782 -0.7463
   33POPC  C313 4490   4.810   4.247   8.834 -0.4055  0.0371 -0.3271
   33POPC  H13X 4491   4.790   4.187   8.743 -1.2615 -0.9690  0.4873
   33POPC  H13Y 4492   4.918   4.233   8.857 -0.3530  1.7694  0.6314
   33POPC  C314 4493   4.789   4.396   8.828 -0.3511  0.2622 -1.1538
   33POPC  H14X 4494   4.685   4.417   8.862  0.6740  1.5417  1.5027
   33POPC  H14Y 4495   4.801   4.433   8.724 -1.8604  2.1838 -0.7168
   33POPC  C315 4496   4.854   4.480   8.934  0.5953 -0.2476  0.2911
   33POPC  H15X 4497   4.965   4.478   8.927  0.6019  0.8808 -0.1847
   33POPC  H15Y 4498   4.829   4.432   9.031 -2.1677  0.0654 -0.1943
   33POPC  C316 4499   4.810   4.634   8.944  0.3290 -0.0072  0.4725
   33POPC  H16X 4500   4.789   4.657   9.051 -2.1155  0.8129 -0.1289
   33POPC  H16Y 4501   4.714   4.663   8.897 -0.9681 -2.8905  1.1264
   33POPC  H16Z 4502   4.898   4.691   8.909 -0.1649  0.5436  0.1313
   34POPC     N 4503   5.163   4.937  10.871  0.3870 -0.4378  0.4445
   34POPC   C12 4504   5.052   4.840  10.884 -0.4421  0.2422  0.4732
   34POPC  H12A 4505   5.007   4.818  10.788 -2.4270  1.8376  0.9811
   34POPC  H12B 4506   4.969   4.884  10.936 -2.2303 -0.1809 -1.8718
   34POPC   C13 4507   5.231   4.968  10.998 -0.5890  0.1914 -0.5971
   34POPC  H13A 4508   5.279   4.876  11.026 -0.6975  0.7973  1.8433
   34POPC  H13B 4509   5.292   5.056  10.980 -1.2656  0.9976  0.8038
   34POPC  H13C 4510   5.163   4.995  11.078  0.8081 -0.8430  1.0159
   34POPC   C14 4511   5.267   4.885  10.771 -0.2018  0.9520  0.6379
   34POPC  H14A 4512   5.238   4.920  10.673  0.0206 -0.1157  0.1776
   34POPC  H14B 4513   5.363   4.934  10.782 -0.5897  1.4951  1.7308
   34POPC  H14C 4514   5.290   4.781  10.788  3.5742  1.4975 -0.2322
   34POPC   C15 4515   5.112   5.062  10.812 -0.1951  0.9611  0.0674
   34POPC  H15A 4516   5.056   5.034  10.724  0.3381  0.3196 -0.0714
   34POPC  H15B 4517   5.191   5.130  10.782  2.2782 -2.2455 -1.2103
   34POPC  H15C 4518   5.047   5.115  10.881  0.7500  0.9363  1.0162
   34POPC   C11 4519   5.072   4.694  10.940 -0.2503 -1.6443 -0.5950
   34POPC  H11A 4520   4.974   4.648  10.964  0.4793 -2.7643  0.2785
   34POPC  H11B 4521   5.113   4.720  11.040 -1.3671  1.4821 -0.8127
   34POPC     P 4522   5.095   4.561  10.730 -0.2131 -0.4703  0.1623
   34POPC   O13 4523   4.982   4.649  10.696 -0.2324 -0.2053 -0.1566
   34POPC   O14 4524   5.080   4.412  10.718  0.2498 -0.0545 -0.4512
   34POPC   O12 4525   5.153   4.602  10.865  0.1137 -0.3631  0.1800
   34POPC   O11 4526   5.212   4.598  10.629  0.4422 -0.4273 -0.5748
   34POPC    C1 4527   5.313   4.500  10.598 -0.0884 -0.2410  1.0152
   34POPC    HA 4528   5.355   4.450  10.687 -1.3996 -1.1420  1.1537
   34POPC    HB 4529   5.401   4.550  10.553 -1.0449 -0.0869 -0.7959
   34POPC    C2 4530   5.273   4.404  10.488  0.9547  0.5596 -0.0078
   34POPC    HS 4531   5.187   4.346  10.530  0.0541  1.9728  0.1742
   34POPC   O21 4532   5.389   4.325  10.458  0.3146  1.2579 -0.6186
   34POPC   C21 4533   5.357   4.195  10.431  0.3093  0.0418 -0.5601
   34POPC   O22 4534   5.251   4.141  10.440 -0.1007 -0.2686  0.4655
   34POPC   C22 4535   5.492   4.128  10.392  0.5078 -0.5118  0.3586
   34POPC   H2R 4536   5.521   4.049  10.464 -0.8717 -1.6848 -0.3321
   34POPC   H2S 4537   5.572   4.204  10.402 -1.0732  1.5019 -1.2696
   34POPC    C3 4538   5.231   4.481  10.357  0.4426 -0.3064  0.1473
   34POPC    HX 4539   5.311   4.538  10.305 -0.0574  0.9561  0.7141
   34POPC    HY 4540   5.165   4.561  10.396 -0.1167 -0.9968  0.6467
   34POPC   O31 4541   5.159   4.392  10.268  0.6634 -0.0152  0.4359
   34POPC   C31 4542   5.022   4.393  10.281 -0.1982 -0.3481  0.8375
   34POPC   O32 4543   4.967   4.457  10.361  0.5817  0.3069  0.3298
   34POPC   C32 4544   4.965   4.310  10.168 -0.2977 -0.2167  0.5674
   34POPC   H2X 4545   4.855   4.308  10.180 -0.1238 -0.3225  2.4486
   34POPC   H2Y 4546   5.010   4.209  10.176  2.6850  1.0545  1.1925
   34POPC   C23 4547   5.516   4.069  10.247  0.2085 -0.3039  0.2592
   34POPC   H3R 4548   5.425   4.011  10.220  0.5715 -0.7667  0.0082
   34POPC   H3S 4549   5.604   4.001  10.253  0.4798 -0.0368 -0.6354
   34POPC   C24 4550   5.551   4.177  10.141 -0.4416  0.4641  0.3338
   34POPC   H4R 4551   5.589   4.115  10.056  0.2250  1.2979  0.0080
   34POPC   H4S 4552   5.630   4.247  10.176  1.3525 -0.6066 -1.3767
   34POPC   C25 4553   5.436   4.264  10.091  0.2965 -0.4786  0.7295
   34POPC   H5R 4554   5.407   4.335  10.171 -0.0516 -0.2567  0.4092
   34POPC   H5S 4555   5.345   4.205  10.067 -0.5965  1.6501 -1.5268
   34POPC   C26 4556   5.470   4.341   9.965  0.5658 -0.3598  0.5286
   34POPC   H6R 4557   5.547   4.420   9.980  1.2647 -1.4421  3.1105
   34POPC   H6S 4558   5.370   4.379   9.935 -0.7271 -2.6153  1.7318
   34POPC   C27 4559   5.525   4.253   9.849  0.0068 -0.6796 -0.3684
   34POPC   H7R 4560   5.456   4.166   9.848  0.5706 -1.1327 -0.5604
   34POPC   H7S 4561   5.624   4.215   9.883 -0.4256  0.4430  2.4886
   34POPC   C28 4562   5.516   4.326   9.719  1.1792  0.5670 -0.1170
   34POPC   H8R 4563   5.582   4.266   9.653  1.6287 -0.0531  0.8697
   34POPC   H8S 4564   5.549   4.432   9.729  0.7374  0.8328 -1.3249
   34POPC   C29 4565   5.378   4.308   9.658  0.4128 -1.0078 -0.2723
   34POPC   H91 4566   5.299   4.276   9.728  0.7058 -1.0466  0.0428
   34POPC  C210 4567   5.355   4.337   9.524  0.3714  0.9466  0.2155
   34POPC  H101 4568   5.252   4.325   9.487  1.4089  0.6976 -2.9230
   34POPC  C211 4569   5.456   4.380   9.420 -0.3730  0.0405 -0.4562
   34POPC  H11R 4570   5.557   4.402   9.459 -1.4642  1.8487  1.5710
   34POPC  H11S 4571   5.423   4.475   9.373 -0.9266  1.3484  2.3566
   34POPC  C212 4572   5.480   4.269   9.311  0.5383 -0.3089 -0.5595
   34POPC  H12R 4573   5.380   4.233   9.278  0.4721 -0.1040 -0.5839
   34POPC  H12S 4574   5.533   4.182   9.357  1.2930  0.6981  0.5419
   34POPC  C213 4575   5.554   4.322   9.184 -0.5298 -0.0925 -0.5279
   34POPC  H13R 4576   5.647   4.379   9.210 -0.4602 -1.8128  3.9380
   34POPC  H13S 4577   5.498   4.391   9.118 -0.3171  1.3716  0.7515
   34POPC  C214 4578   5.604   4.210   9.094 -0.2790  0.5017 -0.0730
   34POPC  H14R 4579   5.520   4.164   9.038 -1.4525  0.6099  1.5044
   34POPC  H14S 4580   5.655   4.130   9.152  0.6735  0.3708 -1.0606
   34POPC  C215 4581   5.697   4.268   8.990  0.1923  0.5446 -0.2950
   34POPC  H15R 4582   5.785   4.314   9.039 -0.3397 -0.9345  2.2237
   34POPC  H15S 4583   5.637   4.352   8.947  0.2539  0.5396 -0.3902
   34POPC  C216 4584   5.728   4.177   8.874 -0.1529 -0.1046  0.7333
   34POPC  H16R 4585   5.742   4.074   8.912 -2.2573 -0.0138  1.8561
   34POPC  H16S 4586   5.829   4.212   8.840 -1.1991  2.2027 -0.2536
   34POPC  C217 4587   5.630   4.198   8.753 -1.1292 -0.1670 -0.6267
   34POPC  H17R 4588   5.639   4.302   8.713  3.1663  0.3220  1.0655
   34POPC  H17S 4589   5.526   4.187   8.791 -0.5259 -2.0635  0.5956
   34POPC  C218 4590   5.661   4.098   8.646  0.2764  0.2818  0.3687
   34POPC  H18R 4591   5.622   3.998   8.673 -1.2190  0.7595  0.0568
   34POPC  H18S 4592   5.772   4.095   8.633  0.2749  2.0268 -0.4392
   34POPC  H18T 4593   5.600   4.127   8.558 -1.0471 -0.1974  1.0989
   34POPC   C33 4594   5.000   4.379  10.033 -0.5089  0.4745  0.0487
   34POPC   H3X 4595   5.110   4.395  10.040 -0.1612 -1.3508 -0.6224
   34POPC   H3Y 4596   4.956   4.480  10.019 -3.3589 -0.7452 -0.5108
   34POPC   C34 4597   4.971   4.278   9.913  0.7323 -0.1010 -0.3767
   34POPC   H4X 4598   4.863   4.257   9.905  0.7210 -0.2020  0.0367
   34POPC   H4Y 4599   5.026   4.183   9.932  2.5979  0.6421 -1.6561
   34POPC   C35 4600   4.994   4.355   9.778  0.3273 -0.1483 -0.0273
   34POPC   H5X 4601   5.101   4.385   9.774 -0.0937  1.4423  0.0030
   34POPC   H5Y 4602   4.930   4.445   9.781  1.0409  0.3441  0.7331
   34POPC   C36 4603   4.970   4.264   9.653 -0.3159  0.2170 -0.4833
   34POPC   H6X 4604   4.878   4.203   9.665 -0.3824  0.1910 -1.1151
   34POPC   H6Y 4605   5.053   4.190   9.651 -0.9161 -0.4569 -1.0551
   34POPC   C37 4606   4.980   4.338   9.522 -0.1433 -0.4624 -0.6419
   34POPC   H7X 4607   5.058   4.415   9.537 -2.4122  1.6529  1.1424
   34POPC   H7Y 4608   4.882   4.389   9.514  0.5101  1.2913  1.6312
   34POPC   C38 4609   5.003   4.255   9.390 -0.5385  0.0222 -0.2898
   34POPC   H8X 4610   4.923   4.187   9.352 -2.1601  1.1515  0.9484
   34POPC   H8Y 4611   5.084   4.185   9.418  0.2470  2.0588  3.1864
   34POPC   C39 4612   5.040   4.355   9.282 -0.4090  0.0212  0.1083
   34POPC   H9X 4613   5.109   4.427   9.330 -0.3735 -0.4302  0.7453
   34POPC   H9Y 4614   4.948   4.410   9.251 -0.9559 -1.7472 -1.6498
   34POPC  C310 4615   5.093   4.301   9.149 -0.4792  0.0163 -0.4222
   34POPC  H10X 4616   5.008   4.283   9.080  2.7328 -1.9084 -4.2780
   34POPC  H10Y 4617   5.150   4.206   9.160 -0.9321 -0.1449  0.7058
   34POPC  C311 4618   5.180   4.394   9.077 -0.1327 -0.4975 -0.8555
   34POPC  H11X 4619   5.270   4.430   9.132  0.2590  0.6292 -2.1826
   34POPC  H11Y 4620   5.130   4.492   9.071  0.5132 -0.1384 -0.5103
   34POPC  C312 4621   5.221   4.343   8.942 -0.0702  0.1546 -0.3766
   34POPC  H12X 4622   5.131   4.328   8.878  0.6034 -1.9877 -0.8991
   34POPC  H12Y 4623   5.277   4.248   8.936 -1.5099 -0.7500  0.0247
   34POPC  C313 4624   5.328   4.439   8.873 -0.6383 -0.1068  0.0619
   34POPC  H13X 4625   5.430   4.430   8.916 -0.6936  1.1378  0.5079
   34POPC  H13Y 4626   5.299   4.542   8.904  0.1321 -0.4966  2.2115
   34POPC  C314 4627   5.335   4.434   8.725 -0.1495  0.2127 -0.1382
   34POPC  H14X 4628   5.232   4.456   8.689  0.2240  2.5529  0.0818
   34POPC  H14Y 4629   5.352   4.326   8.703  1.0896  0.2825  0.4045
   34POPC  C315 4630   5.436   4.524   8.658 -0.2347 -0.1621 -0.0048
   34POPC  H15X 4631   5.535   4.498   8.701  0.7599  0.7216 -1.6406
   34POPC  H15Y 4632   5.409   4.629   8.683  0.5290  0.2362 -0.7855
   34POPC  C316 4633   5.450   4.520   8.502  0.0293 -0.0097  0.0394
   34POPC  H16X 4634   5.354   4.559   8.461  1.2374  1.7275 -1.2728
   34POPC  H16Y 4635   5.463   4.416   8.465 -0.9707 -0.0506 -0.2301
   34POPC  H16Z 4636   5.540   4.578   8.472  0.4474 -0.0884  1.0689
   35POPC     N 4637   1.258   6.435  11.223 -0.2865 -0.5858 -0.2866
   35POPC   C12 4638   1.283   6.573  11.148  0.2191  0.4159  0.4867
   35POPC  H12A 4639   1.386   6.594  11.123  0.5449  2.3230  3.0405
   35POPC  H12B 4640   1.270   6.659  11.212 -0.5228  0.0402  0.8484
   35POPC   C13 4641   1.128   6.452  11.300 -0.2776 -0.4329 -0.6123
   35POPC  H13A 4642   1.106   6.371  11.369 -2.9457 -0.6323 -1.5725
   35POPC  H13B 4643   1.134   6.544  11.357  2.1892 -0.2380 -1.1104
   35POPC  H13C 4644   1.044   6.449  11.232 -0.4096 -2.3935 -0.4112
   35POPC   C14 4645   1.257   6.312  11.146  0.2508 -0.1021  0.8386
   35POPC  H14A 4646   1.252   6.224  11.209  0.5837 -0.1604  0.7878
   35POPC  H14B 4647   1.188   6.319  11.064  0.2315  1.8138  0.9736
   35POPC  H14C 4648   1.358   6.298  11.111  0.1127  0.6766  0.1195
   35POPC   C15 4649   1.367   6.413  11.322  0.7554 -0.5198 -0.4065
   35POPC  H15A 4650   1.370   6.493  11.395 -3.1955 -0.8072  0.2484
   35POPC  H15B 4651   1.463   6.396  11.276  0.3279 -2.0899 -0.7646
   35POPC  H15C 4652   1.351   6.318  11.371  1.0247 -0.7915 -0.8332
   35POPC   C11 4653   1.191   6.607  11.036 -0.0051  0.8148 -0.1026
   35POPC  H11A 4654   1.158   6.513  10.987  0.3971 -0.1951  1.4688
   35POPC  H11B 4655   1.247   6.670  10.964  2.8537  2.1687  3.0334
   35POPC     P 4656   1.007   6.788  11.029  0.0739  0.0501 -0.0374
   35POPC   O13 4657   1.085   6.915  11.010 -0.0896  0.2875  0.3020
   35POPC   O14 4658   0.877   6.794  11.103 -0.3348 -0.1738  0.3447
   35POPC   O12 4659   1.089   6.680  11.099 -0.2159 -0.3427 -0.3826
   35POPC   O11 4660   0.979   6.725  10.885 -0.3018 -0.4405 -0.0175
   35POPC    C1 4661   0.908   6.601  10.865  0.0938  0.1999  0.4335
   35POPC    HA 4662   0.812   6.625  10.816  0.7897 -0.0158 -1.1153
   35POPC    HB 4663   0.894   6.550  10.962 -0.5929 -1.6478 -0.5822
   35POPC    C2 4664   0.989   6.517  10.766  0.0259 -1.0059 -0.4699
   35POPC    HS 4665   1.096   6.530  10.795 -0.2593 -0.2676  0.3056
   35POPC   O21 4666   0.961   6.553  10.634  0.2680  0.1744 -0.5293
   35POPC   C21 4667   1.057   6.534  10.549 -0.7559  0.3341 -0.1597
   35POPC   O22 4668   1.176   6.520  10.574  0.1803  0.2083 -0.1717
   35POPC   C22 4669   0.998   6.544  10.409 -0.2073  0.2912  0.0948
   35POPC   H2R 4670   0.978   6.653  10.407 -0.9599  0.1799  0.9888
   35POPC   H2S 4671   0.894   6.506  10.417 -0.5178  1.4956  2.4164
   35POPC    C3 4672   0.943   6.371  10.787 -0.8805  0.5811  0.0667
   35POPC    HX 4673   0.843   6.366  10.739 -0.8903  0.5148  0.0925
   35POPC    HY 4674   0.933   6.347  10.895  0.0574 -0.3543 -0.0404
   35POPC   O31 4675   1.021   6.276  10.715  0.2881  0.2907 -0.2612
   35POPC   C31 4676   1.144   6.245  10.753  0.3781  0.4473 -0.8024
   35POPC   O32 4677   1.192   6.272  10.865 -0.4084 -0.5376 -0.6877
   35POPC   C32 4678   1.213   6.145  10.657 -0.4029 -0.0495  0.3189
   35POPC   H2X 4679   1.180   6.042  10.681  0.5324  0.0355  2.0818
   35POPC   H2Y 4680   1.322   6.145  10.674 -0.0604  3.6415 -0.9978
   35POPC   C23 4681   1.080   6.500  10.280 -0.7844 -0.4149  0.6444
   35POPC   H3R 4682   1.093   6.390  10.264  1.3545 -0.1200  0.0980
   35POPC   H3S 4683   1.177   6.552  10.290 -0.7007 -0.1963 -1.0818
   35POPC   C24 4684   1.014   6.571  10.151 -0.5165  0.2073  0.2157
   35POPC   H4R 4685   0.990   6.677  10.174 -0.2906  0.5295 -0.9529
   35POPC   H4S 4686   0.914   6.524  10.145 -0.1373 -0.6039  0.2098
   35POPC   C25 4687   1.094   6.551  10.024  0.7082  0.2812 -0.1644
   35POPC   H5R 4688   1.148   6.455  10.036  0.3772  0.0487 -0.4893
   35POPC   H5S 4689   1.159   6.640  10.018  0.7188  0.4236  1.6544
   35POPC   C26 4690   1.007   6.559   9.896  0.3022 -0.1170 -0.2490
   35POPC   H6R 4691   0.912   6.606   9.928  1.5902  2.6521 -0.2311
   35POPC   H6S 4692   0.994   6.453   9.865 -3.7304  0.3733 -0.7024
   35POPC   C27 4693   1.075   6.651   9.793 -0.0897  0.9225 -0.6289
   35POPC   H7R 4694   1.105   6.749   9.837 -1.5364  1.1096 -0.0007
   35POPC   H7S 4695   0.999   6.664   9.714  0.0600  0.3340 -0.8761
   35POPC   C28 4696   1.205   6.587   9.728 -0.2026  0.1442 -0.1394
   35POPC   H8R 4697   1.272   6.560   9.813 -0.4891 -1.6215 -0.4416
   35POPC   H8S 4698   1.252   6.674   9.677 -1.0290  1.7805  1.7592
   35POPC   C29 4699   1.183   6.467   9.640 -0.0197  0.1633 -0.6177
   35POPC   H91 4700   1.154   6.371   9.685 -0.4273  0.5478 -0.0398
   35POPC  C210 4701   1.213   6.459   9.509  0.1322 -0.9854 -0.6038
   35POPC  H101 4702   1.206   6.363   9.456 -0.6559 -0.0696 -2.2086
   35POPC  C211 4703   1.262   6.570   9.415  0.1042 -1.3634  0.0495
   35POPC  H11R 4704   1.372   6.558   9.417  0.5351  1.9447  1.1954
   35POPC  H11S 4705   1.229   6.667   9.457 -2.5116 -1.5028 -1.4464
   35POPC  C212 4706   1.191   6.564   9.278 -0.6119  0.2174 -0.1855
   35POPC  H12R 4707   1.226   6.646   9.211  0.5462  0.2128  0.3984
   35POPC  H12S 4708   1.084   6.591   9.286 -1.0748 -1.4850 -0.3252
   35POPC  C213 4709   1.211   6.440   9.190 -0.0459  0.1777 -0.2798
   35POPC  H13R 4710   1.158   6.462   9.095 -0.2595  3.3834  0.4656
   35POPC  H13S 4711   1.162   6.358   9.245 -0.6041 -0.1616 -1.2577
   35POPC  C214 4712   1.361   6.415   9.160  0.5411 -0.0743 -0.1774
   35POPC  H14R 4713   1.403   6.366   9.250 -0.3015  0.9536  0.8089
   35POPC  H14S 4714   1.421   6.504   9.129 -0.1079  0.4981  0.1854
   35POPC  C215 4715   1.374   6.330   9.037 -0.9568  1.2382  0.4193
   35POPC  H15R 4716   1.302   6.364   8.959 -0.0227  0.7689 -0.6815
   35POPC  H15S 4717   1.361   6.226   9.073  0.9000  1.6128  2.3665
   35POPC  C216 4718   1.517   6.330   8.978 -0.1174 -0.1920 -0.0013
   35POPC  H16R 4719   1.591   6.281   9.044 -1.9828 -1.7453  1.0267
   35POPC  H16S 4720   1.563   6.430   8.962  1.1658 -0.9856 -1.5159
   35POPC  C217 4721   1.525   6.269   8.835  0.8404 -0.4269 -0.0986
   35POPC  H17R 4722   1.462   6.332   8.768 -1.2760  0.6697  2.7128
   35POPC  H17S 4723   1.485   6.165   8.835 -0.1630 -0.0847  1.5792
   35POPC  C218 4724   1.666   6.271   8.784 -0.2433 -0.0260  0.0145
   35POPC  H18R 4725   1.733   6.225   8.859  0.5670  1.7313  0.4218
   35POPC  H18S 4726   1.692   6.379   8.771  0.1217  0.2013  2.2418
   35POPC  H18T 4727   1.680   6.225   8.684 -0.0393  1.5672 -0.7220
   35POPC   C33 4728   1.187   6.176  10.506 -0.1579 -0.0102 -0.2359
   35POPC   H3X 4729   1.220   6.280  10.481 -1.0060  0.9784  2.4037
   35POPC   H3Y 4730   1.077   6.174  10.490 -0.4647  0.4296  1.5819
   35POPC   C34 4731   1.248   6.081  10.405  0.9241  0.0654  0.2635
   35POPC   H4X 4732   1.200   5.982  10.407 -0.4166  0.6681 -0.5173
   35POPC   H4Y 4733   1.357   6.064  10.420  1.3108 -1.2933 -3.1795
   35POPC   C35 4734   1.230   6.140  10.262 -0.3596 -0.8695 -0.1506
   35POPC   H5X 4735   1.305   6.221  10.248 -1.0187  0.0422  1.3644
   35POPC   H5Y 4736   1.128   6.180  10.244  0.0790 -0.4084 -1.8151
   35POPC   C36 4737   1.272   6.044  10.151 -0.5959 -0.4113  0.3859
   35POPC   H6X 4738   1.201   5.963  10.126 -1.2498  0.2866 -0.0685
   35POPC   H6Y 4739   1.367   5.995  10.181 -0.6475 -0.1649  0.9636
   35POPC   C37 4740   1.289   6.121  10.017 -0.2682 -0.4900 -0.3440
   35POPC   H7X 4741   1.355   6.208  10.038  0.8521 -0.5743 -3.1270
   35POPC   H7Y 4742   1.187   6.154   9.986 -0.0391 -1.0173 -1.7024
   35POPC   C38 4743   1.364   6.032   9.926  0.4961  0.1088  0.2950
   35POPC   H8X 4744   1.310   5.934   9.928 -0.1761  0.4844  1.4059
   35POPC   H8Y 4745   1.461   5.994   9.966  0.2935 -0.0430  0.6458
   35POPC   C39 4746   1.388   6.096   9.786 -0.0818  0.6404 -0.3136
   35POPC   H9X 4747   1.492   6.067   9.760 -0.7666 -2.6724  0.2368
   35POPC   H9Y 4748   1.386   6.207   9.789  1.5271  0.8082 -2.8046
   35POPC  C310 4749   1.290   6.044   9.686 -0.1474  0.0537 -0.0730
   35POPC  H10X 4750   1.192   6.089   9.715 -0.1716 -1.3569  2.1950
   35POPC  H10Y 4751   1.303   5.934   9.685  0.6409  0.1421 -0.1097
   35POPC  C311 4752   1.323   6.103   9.546 -0.8116  0.6448 -0.8773
   35POPC  H11X 4753   1.335   6.213   9.558 -0.5796  0.6131 -0.8025
   35POPC  H11Y 4754   1.236   6.095   9.478 -1.1380 -0.2409 -0.3628
   35POPC  C312 4755   1.433   6.023   9.478 -0.2905  0.4906  0.2154
   35POPC  H12X 4756   1.402   5.917   9.476  2.8194 -0.5144 -1.1661
   35POPC  H12Y 4757   1.517   6.020   9.551 -0.7401  1.5245  0.7987
   35POPC  C313 4758   1.483   6.072   9.339 -0.3935  0.0093  0.2195
   35POPC  H13X 4759   1.526   6.174   9.354 -0.5030  0.0971 -0.0607
   35POPC  H13Y 4760   1.396   6.086   9.272  1.2550  1.2710 -1.7924
   35POPC  C314 4761   1.588   5.982   9.283  0.5707 -0.5468  0.5522
   35POPC  H14X 4762   1.545   5.879   9.275 -1.9103  0.2076  2.8755
   35POPC  H14Y 4763   1.682   5.977   9.341  1.3309 -1.2053 -0.6723
   35POPC  C315 4764   1.628   6.019   9.145 -0.1712  0.4548  1.1971
   35POPC  H15X 4765   1.697   6.105   9.156  2.1023 -1.3190  1.5554
   35POPC  H15Y 4766   1.537   6.048   9.088 -0.7204 -2.0234  0.6978
   35POPC  C316 4767   1.693   5.893   9.065 -0.0374  0.0114  0.3573
   35POPC  H16X 4768   1.622   5.809   9.078 -1.1788  0.9589  0.4431
   35POPC  H16Y 4769   1.787   5.855   9.111  0.5438  1.6702  0.6099
   35POPC  H16Z 4770   1.708   5.922   8.958 -2.0815 -0.4808 -0.0944
   36POPC     N 4771   3.127   5.433  10.682 -0.1917  0.2517 -0.1473
   36POPC   C12 4772   3.193   5.550  10.608 -0.6484 -0.3383  0.2671
   36POPC  H12A 4773   3.138   5.566  10.516  0.0178  0.8095  0.0522
   36POPC  H12B 4774   3.293   5.519  10.582 -0.8505  1.2284 -2.9138
   36POPC   C13 4775   3.180   5.424  10.826 -0.6883 -0.1398  0.1845
   36POPC  H13A 4776   3.286   5.405  10.834 -1.2511 -3.4879  1.6630
   36POPC  H13B 4777   3.167   5.508  10.892  4.1908  0.8758  0.2693
   36POPC  H13C 4778   3.142   5.329  10.861  0.7745 -1.1041 -0.7054
   36POPC   C14 4779   2.979   5.470  10.693 -0.0333  0.0099 -0.1326
   36POPC  H14A 4780   2.925   5.402  10.757 -3.7699  2.0943 -0.7397
   36POPC  H14B 4781   2.978   5.569  10.737  2.6033  1.0426 -2.1113
   36POPC  H14C 4782   2.930   5.460  10.597  0.0246  0.5747 -0.2303
   36POPC   C15 4783   3.151   5.296  10.616 -0.1121  0.2772  0.0841
   36POPC  H15A 4784   3.141   5.303  10.509 -0.5385  0.4144  0.1301
   36POPC  H15B 4785   3.083   5.225  10.662 -0.3103  1.1985  1.2623
   36POPC  H15C 4786   3.247   5.254  10.643  0.0196  0.1245 -0.6136
   36POPC   C11 4787   3.205   5.685  10.674  0.3365  0.2092 -0.7838
   36POPC  H11A 4788   3.269   5.751  10.610  2.1189 -0.2255  0.4618
   36POPC  H11B 4789   3.245   5.683  10.778  0.2848  2.2699 -0.6733
   36POPC     P 4790   3.036   5.851  10.793 -0.2283 -0.6633 -0.3717
   36POPC   O13 4791   3.107   5.977  10.769  0.2812  0.9732 -0.1065
   36POPC   O14 4792   3.038   5.789  10.921 -0.3410  0.0885 -0.5442
   36POPC   O12 4793   3.077   5.746  10.682  0.3753  0.7733  0.1173
   36POPC   O11 4794   2.885   5.881  10.752 -0.4485 -0.3709 -0.1292
   36POPC    C1 4795   2.802   5.790  10.687 -0.3738 -0.0452 -0.6581
   36POPC    HA 4796   2.698   5.813  10.719 -0.0573  0.6789 -0.1009
   36POPC    HB 4797   2.831   5.686  10.715  2.0121  0.5563 -0.6431
   36POPC    C2 4798   2.809   5.810  10.532 -0.2166  0.5015  0.3251
   36POPC    HS 4799   2.903   5.765  10.495 -1.5451 -1.1133 -1.2333
   36POPC   O21 4800   2.797   5.949  10.504 -0.6498  0.1168 -0.2328
   36POPC   C21 4801   2.870   5.988  10.398  0.5493 -0.0842  0.6009
   36POPC   O22 4802   2.948   5.921  10.333 -0.1071 -0.7208  1.0139
   36POPC   C22 4803   2.824   6.126  10.349 -0.5979  0.0535  0.6675
   36POPC   H2R 4804   2.811   6.187  10.440 -3.6417 -0.9068  0.9809
   36POPC   H2S 4805   2.726   6.111  10.298  0.2360  1.9123 -1.6162
   36POPC    C3 4806   2.687   5.733  10.458 -0.5833  0.2820 -0.0272
   36POPC    HX 4807   2.590   5.771  10.496 -0.8449  3.1332 -3.0587
   36POPC    HY 4808   2.694   5.622  10.463  0.1411  0.3559  0.9278
   36POPC   O31 4809   2.675   5.777  10.319  0.0789  0.6298 -0.4367
   36POPC   C31 4810   2.752   5.715  10.234  0.1883 -0.8313 -0.1755
   36POPC   O32 4811   2.825   5.622  10.266 -0.0324  0.3503  0.1074
   36POPC   C32 4812   2.740   5.774  10.095 -0.6769 -0.0143 -0.4123
   36POPC   H2X 4813   2.828   5.841  10.083 -0.2523 -0.4317  0.2765
   36POPC   H2Y 4814   2.650   5.837  10.081 -1.3146 -0.3798  1.6539
   36POPC   C23 4815   2.933   6.188  10.253  0.1863  0.1428 -0.5338
   36POPC   H3R 4816   3.034   6.169  10.295 -0.6810 -1.3289  0.9860
   36POPC   H3S 4817   2.921   6.298  10.257 -0.5270  0.0229  1.5338
   36POPC   C24 4818   2.919   6.143  10.097  0.2406 -0.3779 -0.8170
   36POPC   H4R 4819   2.941   6.035  10.096  1.4566 -0.2214  1.6950
   36POPC   H4S 4820   3.006   6.197  10.053 -0.6465 -0.0230 -2.1963
   36POPC   C25 4821   2.795   6.188  10.028 -0.5021  0.2975 -0.7623
   36POPC   H5R 4822   2.787   6.299  10.024  0.0903  0.5005  1.8415
   36POPC   H5S 4823   2.710   6.159  10.093 -1.2665  0.9482 -1.4424
   36POPC   C26 4824   2.779   6.128   9.889  0.5474  0.3664 -0.0716
   36POPC   H6R 4825   2.673   6.142   9.862  0.5953  0.9492  0.0264
   36POPC   H6S 4826   2.803   6.019   9.900 -2.9082 -0.3133  2.5848
   36POPC   C27 4827   2.868   6.203   9.785  0.4725 -0.3580 -0.0787
   36POPC   H7R 4828   2.951   6.243   9.847 -2.4256  0.3732  3.7365
   36POPC   H7S 4829   2.818   6.291   9.740  0.1908 -1.1153 -1.3091
   36POPC   C28 4830   2.923   6.118   9.669  1.1545  0.4785 -0.0784
   36POPC   H8R 4831   2.976   6.033   9.717 -1.6462 -1.4069 -0.0274
   36POPC   H8S 4832   2.987   6.174   9.598  2.8378 -1.6598 -0.3589
   36POPC   C29 4833   2.796   6.071   9.596 -0.7615 -0.2868  0.8265
   36POPC   H91 4834   2.704   6.049   9.651 -0.2047 -1.0624  1.4844
   36POPC  C210 4835   2.794   6.044   9.460  0.7433 -0.4921 -1.0330
   36POPC  H101 4836   2.699   6.017   9.412  0.3736  0.0417 -0.6113
   36POPC  C211 4837   2.910   6.063   9.370  0.0787 -0.3884  0.9734
   36POPC  H11R 4838   2.927   5.985   9.292 -2.4795  0.5238 -0.6299
   36POPC  H11S 4839   3.006   6.060   9.425 -0.0968 -0.5871  1.2694
   36POPC  C212 4840   2.902   6.204   9.300  0.0475  0.3268  0.6140
   36POPC  H12R 4841   3.002   6.217   9.253 -0.5832 -0.4932 -1.0392
   36POPC  H12S 4842   2.893   6.278   9.382  2.0069 -0.4958  1.6357
   36POPC  C213 4843   2.786   6.216   9.196  0.0817 -0.3836  0.1086
   36POPC  H13R 4844   2.776   6.318   9.153  2.4672 -1.3075 -2.9258
   36POPC  H13S 4845   2.691   6.201   9.253 -0.1871 -3.7433 -0.9949
   36POPC  C214 4846   2.801   6.120   9.075  0.9177 -0.3367  0.4180
   36POPC  H14R 4847   2.705   6.120   9.019  1.9550  1.0505 -1.4550
   36POPC  H14S 4848   2.816   6.014   9.106 -0.5760 -1.4120 -2.2411
   36POPC  C215 4849   2.906   6.148   8.971 -0.2568  0.5211  0.3460
   36POPC  H15R 4850   2.998   6.117   9.023  1.2355  0.2998 -2.2340
   36POPC  H15S 4851   2.903   6.256   8.944  0.4515  0.0507 -1.8300
   36POPC  C216 4852   2.891   6.067   8.840 -0.1776 -0.5366  0.0677
   36POPC  H16R 4853   2.801   6.096   8.781  1.4361  0.8509 -1.8673
   36POPC  H16S 4854   2.903   5.960   8.866 -3.3219 -0.4382  2.4078
   36POPC  C217 4855   3.013   6.100   8.752 -0.5582 -0.2132 -0.0942
   36POPC  H17R 4856   3.109   6.070   8.798  1.1068 -0.1517 -3.2584
   36POPC  H17S 4857   3.004   6.211   8.746 -4.5594 -0.2902  1.4845
   36POPC  C218 4858   3.004   6.029   8.620  0.3669 -0.9652  0.2953
   36POPC  H18R 4859   2.912   6.052   8.563 -0.0968 -2.5667  0.3432
   36POPC  H18S 4860   3.013   5.919   8.636  3.2822 -0.5673  2.3182
   36POPC  H18T 4861   3.085   6.049   8.546 -1.0529  0.5485 -0.9180
   36POPC   C33 4862   2.749   5.655   9.997  0.6256 -0.2467  0.4290
   36POPC   H3X 4863   2.664   5.587  10.017  2.1708 -2.1067  1.0367
   36POPC   H3Y 4864   2.844   5.598  10.001 -0.1323 -1.5162  0.8761
   36POPC   C34 4865   2.747   5.716   9.853  0.4236  0.1949 -0.0660
   36POPC   H4X 4866   2.798   5.815   9.853  0.7487  0.0271 -0.2370
   36POPC   H4Y 4867   2.639   5.731   9.832  0.3543  0.4872  0.4720
   36POPC   C35 4868   2.820   5.629   9.755 -0.2732 -0.5716 -0.0817
   36POPC   H5X 4869   2.746   5.549   9.732 -1.2636 -0.4962  2.4989
   36POPC   H5Y 4870   2.914   5.586   9.797 -0.7675  0.0783  1.7982
   36POPC   C36 4871   2.841   5.709   9.623 -0.2885  0.1321 -0.1683
   36POPC   H6X 4872   2.916   5.791   9.622 -0.3637  0.2070  0.2151
   36POPC   H6Y 4873   2.747   5.766   9.603 -1.4577 -0.6258  2.6784
   36POPC   C37 4874   2.875   5.624   9.502  0.2607 -0.0402 -0.2919
   36POPC   H7X 4875   2.795   5.548   9.492 -2.0868  2.3775 -1.1874
   36POPC   H7Y 4876   2.973   5.573   9.516  0.3073  0.3650  0.9548
   36POPC   C38 4877   2.878   5.712   9.376 -0.4255  0.3929  0.8030
   36POPC   H8X 4878   2.943   5.801   9.393 -2.6402  2.1609  0.4916
   36POPC   H8Y 4879   2.777   5.754   9.355 -0.3599  0.5694  0.8383
   36POPC   C39 4880   2.914   5.624   9.258  0.6813 -0.9535  0.7595
   36POPC   H9X 4881   2.841   5.541   9.247  1.4615 -1.5420 -0.0683
   36POPC   H9Y 4882   3.003   5.561   9.278  2.6528  1.3209 -0.3773
   36POPC  C310 4883   2.936   5.687   9.124 -0.2319 -1.2114  0.4012
   36POPC  H10X 4884   3.011   5.765   9.149  1.0516 -1.4639 -2.3529
   36POPC  H10Y 4885   2.844   5.739   9.090 -1.6736 -1.9977  2.8246
   36POPC  C311 4886   3.005   5.581   9.032  0.6068 -0.0993 -0.4933
   36POPC  H11X 4887   2.932   5.498   9.036  0.8520 -0.2833  0.3996
   36POPC  H11Y 4888   3.105   5.555   9.071  1.4309  2.3202 -0.8020
   36POPC  C312 4889   3.011   5.624   8.885  0.7946 -0.4389  0.1620
   36POPC  H12X 4890   3.093   5.574   8.828  0.9468  0.6083 -0.5775
   36POPC  H12Y 4891   3.040   5.731   8.873 -5.0523  1.6397  1.4360
   36POPC  C313 4892   2.879   5.617   8.809 -0.2470 -0.1432 -0.4565
   36POPC  H13X 4893   2.819   5.692   8.865  0.8300  0.7932 -0.5217
   36POPC  H13Y 4894   2.835   5.515   8.808 -0.9663  0.1631 -0.3847
   36POPC  C314 4895   2.889   5.665   8.667 -0.3071  0.0528 -0.5780
   36POPC  H14X 4896   2.962   5.745   8.644  0.6147 -0.3494  0.7764
   36POPC  H14Y 4897   2.792   5.710   8.638  0.0546  0.4579 -1.1863
   36POPC  C315 4898   2.925   5.549   8.572 -0.3410  0.2794  0.1924
   36POPC  H15X 4899   2.846   5.471   8.583 -2.2316  2.0044 -0.6407
   36POPC  H15Y 4900   3.020   5.494   8.590 -0.4501 -0.2775 -0.8153
   36POPC  C316 4901   2.929   5.603   8.429 -0.3610 -0.1405 -0.0135
   36POPC  H16X 4902   2.988   5.697   8.422 -0.4811 -0.1436 -5.5722
   36POPC  H16Y 4903   2.831   5.641   8.393 -0.2955  0.7780  0.7552
   36POPC  H16Z 4904   2.957   5.529   8.351 -1.2863  1.4613 -1.9710
   37POPC     N 4905   1.501   6.621   6.245 -0.1435  0.1814 -0.2580
   37POPC   C12 4906   1.524   6.651   6.401 -0.0578 -0.8906  1.0266
   37POPC  H12A 4907   1.535   6.758   6.403  2.6166 -1.1002  1.2575
   37POPC  H12B 4908   1.623   6.616   6.425  0.1615 -1.1014 -0.1299
   37POPC   C13 4909   1.366   6.663   6.187  0.0268 -0.5486  0.3735
   37POPC  H13A 4910   1.364   6.771   6.192 -0.3906 -0.5138 -0.4891
   37POPC  H13B 4911   1.341   6.623   6.090 -0.8576  0.1694  0.2921
   37POPC  H13C 4912   1.279   6.652   6.250 -3.1084  2.0329 -3.0734
   37POPC   C14 4913   1.603   6.689   6.167  0.5781  0.4587 -0.1202
   37POPC  H14A 4914   1.593   6.796   6.181 -1.1545  0.0253  2.7251
   37POPC  H14B 4915   1.706   6.666   6.191  0.9405  0.8545 -1.2144
   37POPC  H14C 4916   1.585   6.672   6.062 -1.2029 -1.5782  0.4555
   37POPC   C15 4917   1.511   6.468   6.226 -0.2905 -0.2965 -0.2371
   37POPC  H15A 4918   1.598   6.429   6.278  0.2710  2.6337  1.3076
   37POPC  H15B 4919   1.503   6.445   6.121 -0.9093 -0.6832 -0.1043
   37POPC  H15C 4920   1.424   6.423   6.271  0.7398 -2.0462  0.0758
   37POPC   C11 4921   1.420   6.589   6.499 -0.3416  0.3614  0.1618
   37POPC  H11A 4922   1.461   6.617   6.599  1.1714  1.2611 -0.6742
   37POPC  H11B 4923   1.421   6.478   6.495  0.2567  0.3966 -1.1079
   37POPC     P 4924   1.231   6.773   6.517  0.3628  0.5163  0.2231
   37POPC   O13 4925   1.092   6.754   6.560  0.2160  0.0117  0.3793
   37POPC   O14 4926   1.260   6.873   6.417  0.0339 -0.3171  0.3217
   37POPC   O12 4927   1.286   6.635   6.469 -0.7864  0.3657 -0.7103
   37POPC   O11 4928   1.330   6.804   6.641 -0.4650  0.0291 -0.2903
   37POPC    C1 4929   1.284   6.798   6.775  0.4481  0.0517  0.0422
   37POPC    HA 4930   1.283   6.694   6.815 -2.2444  0.0235  0.0703
   37POPC    HB 4931   1.177   6.828   6.783  1.3075  3.2609  1.0127
   37POPC    C2 4932   1.365   6.894   6.870 -0.1949  0.6537 -0.6478
   37POPC    HS 4933   1.467   6.852   6.866 -1.2959 -2.5076  1.0643
   37POPC   O21 4934   1.309   6.886   7.004  0.0688 -0.5755  0.4187
   37POPC   C21 4935   1.337   6.778   7.073  0.1964  0.4979  0.5187
   37POPC   O22 4936   1.409   6.688   7.033 -0.0786  0.1293  0.2577
   37POPC   C22 4937   1.262   6.791   7.207 -0.3064  0.0364 -0.1935
   37POPC   H2R 4938   1.154   6.775   7.186 -0.5802 -0.6235  1.6295
   37POPC   H2S 4939   1.290   6.893   7.243  1.3083  0.5120 -2.5592
   37POPC    C3 4940   1.361   7.042   6.825 -0.1597 -0.2743 -0.1786
   37POPC    HX 4941   1.258   7.072   6.854  0.1615 -1.2822  2.1667
   37POPC    HY 4942   1.376   7.053   6.715  0.7514  1.8233  0.1092
   37POPC   O31 4943   1.459   7.113   6.900  0.1904 -0.3605 -0.1464
   37POPC   C31 4944   1.424   7.237   6.929  0.5370 -0.6383  1.3452
   37POPC   O32 4945   1.317   7.294   6.904 -0.6234  0.4534 -0.1906
   37POPC   C32 4946   1.550   7.317   6.977 -0.4610  0.0510 -0.4727
   37POPC   H2X 4947   1.515   7.420   6.997  1.2495  0.7239 -0.8210
   37POPC   H2Y 4948   1.622   7.324   6.892 -2.3246  2.8171 -1.9821
   37POPC   C23 4949   1.314   6.675   7.299  0.2155 -0.2717 -0.3177
   37POPC   H3R 4950   1.419   6.641   7.286  0.2570 -0.0729 -0.5136
   37POPC   H3S 4951   1.254   6.586   7.270  0.2801 -0.3791 -0.1175
   37POPC   C24 4952   1.294   6.703   7.449 -0.1969  0.3941  0.7630
   37POPC   H4R 4953   1.367   6.785   7.466  0.2855  0.3731 -0.9865
   37POPC   H4S 4954   1.340   6.624   7.512  3.6067 -0.1544 -2.3055
   37POPC   C25 4955   1.162   6.749   7.487  0.2115  0.0596  0.7997
   37POPC   H5R 4956   1.088   6.668   7.467  0.8949 -0.0963 -1.3101
   37POPC   H5S 4957   1.140   6.841   7.429  1.5829 -0.1544 -0.1126
   37POPC   C26 4958   1.146   6.778   7.639  0.6371 -0.6762  0.2519
   37POPC   H6R 4959   1.044   6.820   7.655  1.0429  0.4186  0.0348
   37POPC   H6S 4960   1.209   6.868   7.651  2.0937 -1.5690 -0.4932
   37POPC   C27 4961   1.182   6.659   7.724 -0.6832 -0.1163 -0.3256
   37POPC   H7R 4962   1.292   6.644   7.733 -0.8752 -0.9713  0.7322
   37POPC   H7S 4963   1.150   6.562   7.681  0.2111 -1.1913  1.3220
   37POPC   C28 4964   1.114   6.670   7.866 -0.4243 -0.1926 -0.8461
   37POPC   H8R 4965   1.124   6.573   7.919  2.0968  0.3331 -0.2206
   37POPC   H8S 4966   1.006   6.687   7.847 -1.1504 -1.1624  1.8823
   37POPC   C29 4967   1.168   6.795   7.930  0.1624  0.2732 -0.5219
   37POPC   H91 4968   1.176   6.886   7.869 -2.5390  0.1189 -1.2171
   37POPC  C210 4969   1.191   6.810   8.063  0.6198  0.5691 -0.2714
   37POPC  H101 4970   1.213   6.911   8.099  1.1667  1.1278 -2.0836
   37POPC  C211 4971   1.173   6.704   8.170  0.1787  0.6166  0.7607
   37POPC  H11R 4972   1.265   6.677   8.226  0.1564  0.2639  0.6287
   37POPC  H11S 4973   1.147   6.611   8.116  0.3849  1.8725 -1.6145
   37POPC  C212 4974   1.048   6.739   8.254 -0.4833 -0.0772  0.3242
   37POPC  H12R 4975   1.004   6.643   8.287  1.3086 -0.2716  2.3409
   37POPC  H12S 4976   0.977   6.798   8.193  1.2389  1.9564  0.1766
   37POPC  C213 4977   1.099   6.814   8.375 -0.4173 -0.6519 -0.7748
   37POPC  H13R 4978   1.039   6.906   8.392  0.5545  0.1945 -1.7909
   37POPC  H13S 4979   1.203   6.848   8.360 -0.2261 -0.4505  0.7676
   37POPC  C214 4980   1.083   6.725   8.505 -0.2085 -0.2935  1.0245
   37POPC  H14R 4981   1.141   6.632   8.490  0.3886  0.2981 -0.4930
   37POPC  H14S 4982   0.976   6.701   8.522 -0.7307  0.3133 -1.1506
   37POPC  C215 4983   1.130   6.807   8.631  0.3343  0.0571  0.0566
   37POPC  H15R 4984   1.241   6.808   8.632  0.3420 -0.6379  0.2405
   37POPC  H15S 4985   1.108   6.748   8.723 -0.5025 -0.8035 -0.6798
   37POPC  C216 4986   1.065   6.941   8.644 -0.5617  0.0313  0.4925
   37POPC  H16R 4987   0.960   6.924   8.614  0.1735 -1.2451 -1.5653
   37POPC  H16S 4988   1.107   7.003   8.562  1.4046 -2.7749 -0.7786
   37POPC  C217 4989   1.085   7.006   8.774 -0.0107 -0.3085  0.2665
   37POPC  H17R 4990   1.192   7.016   8.802  0.0448  2.1557 -0.5607
   37POPC  H17S 4991   1.028   6.935   8.838  0.3042 -0.5696  0.2563
   37POPC  C218 4992   1.003   7.141   8.774  0.0264  0.3281 -0.2559
   37POPC  H18R 4993   1.032   7.194   8.868  0.8915  0.7209 -0.7369
   37POPC  H18S 4994   0.895   7.132   8.748  0.1440  3.5307 -2.4703
   37POPC  H18T 4995   1.042   7.206   8.692 -0.5281  0.1366 -0.6768
   37POPC   C33 4996   1.605   7.238   7.100 -0.7369 -0.4170  0.1649
   37POPC   H3X 4997   1.695   7.299   7.124 -1.6543  1.4754 -0.9941
   37POPC   H3Y 4998   1.638   7.134   7.077 -1.2444 -0.5488  0.0169
   37POPC   C34 4999   1.512   7.231   7.217 -0.2803 -0.5397  0.3993
   37POPC   H4X 5000   1.416   7.180   7.195 -1.6795  1.8707  0.6713
   37POPC   H4Y 5001   1.483   7.336   7.237  2.7068  0.4074  0.3016
   37POPC   C35 5002   1.582   7.190   7.345  0.6781 -0.2518 -0.3939
   37POPC   H5X 5003   1.649   7.269   7.386  0.4608 -0.2184 -0.1018
   37POPC   H5Y 5004   1.654   7.115   7.306  0.9549 -0.2079  0.0382
   37POPC   C36 5005   1.484   7.142   7.455 -0.0947  0.5689  0.1061
   37POPC   H6X 5006   1.439   7.047   7.419 -0.4342  0.7819 -0.0347
   37POPC   H6Y 5007   1.407   7.221   7.466  0.5678  1.6601 -2.5540
   37POPC   C37 5008   1.553   7.116   7.583 -0.4572  0.0847 -0.5981
   37POPC   H7X 5009   1.638   7.187   7.591  0.3407 -0.5856 -2.5636
   37POPC   H7Y 5010   1.592   7.012   7.595  0.5623  0.3781 -1.2754
   37POPC   C38 5011   1.455   7.143   7.704  0.1056  0.0804 -0.0910
   37POPC   H8X 5012   1.365   7.079   7.689 -0.9323  0.6764  2.9152
   37POPC   H8Y 5013   1.428   7.250   7.703 -0.8304 -0.1555 -0.4655
   37POPC   C39 5014   1.517   7.106   7.846  0.4802  0.0820  0.1312
   37POPC   H9X 5015   1.618   7.151   7.843 -0.3675  2.0231 -0.7394
   37POPC   H9Y 5016   1.524   6.995   7.845 -1.2138 -0.0614 -0.2390
   37POPC  C310 5017   1.436   7.156   7.959 -0.1739 -0.3436 -0.1856
   37POPC  H10X 5018   1.327   7.135   7.957 -0.3005  0.0523  1.2887
   37POPC  H10Y 5019   1.444   7.267   7.968  1.7049 -0.5933  1.9962
   37POPC  C311 5020   1.492   7.100   8.095  0.3478 -0.1314 -0.0942
   37POPC  H11X 5021   1.603   7.102   8.103  0.2881 -1.1718  1.3845
   37POPC  H11Y 5022   1.462   6.993   8.106  0.4499  0.0553  2.5840
   37POPC  C312 5023   1.438   7.169   8.211 -0.0928 -0.4057 -0.7165
   37POPC  H12X 5024   1.329   7.188   8.217 -0.5138 -2.4827 -1.0884
   37POPC  H12Y 5025   1.487   7.268   8.223 -1.6176  0.3190 -0.2927
   37POPC  C313 5026   1.454   7.086   8.336 -0.1009 -0.5735  0.0528
   37POPC  H13X 5027   1.562   7.067   8.357  0.9913  0.9795 -3.3972
   37POPC  H13Y 5028   1.401   6.989   8.324  0.8916 -1.0856 -0.3645
   37POPC  C314 5029   1.406   7.164   8.462  0.2830 -0.7457 -0.3734
   37POPC  H14X 5030   1.297   7.182   8.465  0.6083  1.7233 -1.1856
   37POPC  H14Y 5031   1.460   7.260   8.474  0.1247 -0.9406  2.4661
   37POPC  C315 5032   1.425   7.085   8.598  0.2199  0.5158  0.1598
   37POPC  H15X 5033   1.524   7.035   8.590 -0.3908 -0.5636 -1.1722
   37POPC  H15Y 5034   1.346   7.007   8.602  0.0940  0.6687  0.6749
   37POPC  C316 5035   1.436   7.177   8.714 -0.0184  0.5558  0.6586
   37POPC  H16X 5036   1.520   7.249   8.703  1.9183 -1.7337 -0.5026
   37POPC  H16Y 5037   1.451   7.125   8.812 -0.7716 -1.5498 -0.2747
   37POPC  H16Z 5038   1.343   7.237   8.726 -0.6031 -0.1181 -0.3765
   38POPC     N 5039   2.496   5.908   6.268 -0.2391 -0.0676  0.1016
   38POPC   C12 5040   2.506   6.042   6.345  0.8791  0.3571 -0.0853
   38POPC  H12A 5041   2.594   6.032   6.407  0.5609 -0.0935  0.3003
   38POPC  H12B 5042   2.421   6.059   6.410  0.9737  0.0964  0.1090
   38POPC   C13 5043   2.432   5.926   6.135 -0.3036  0.6194 -0.2160
   38POPC  H13A 5044   2.482   6.000   6.075 -3.0252  1.2352 -1.9196
   38POPC  H13B 5045   2.427   5.842   6.066  1.0904  0.7123 -0.4530
   38POPC  H13C 5046   2.330   5.961   6.140 -0.4829  0.1158 -0.2000
   38POPC   C14 5047   2.631   5.858   6.251  0.5711 -0.1439 -0.2267
   38POPC  H14A 5048   2.676   5.838   6.347 -0.0439 -0.6369 -0.0274
   38POPC  H14B 5049   2.632   5.761   6.204 -1.2589 -0.8416  1.0530
   38POPC  H14C 5050   2.699   5.923   6.198  1.1882  0.6605  1.4945
   38POPC   C15 5051   2.410   5.803   6.339 -0.6985 -0.5065 -0.2087
   38POPC  H15A 5052   2.316   5.845   6.372  0.3882  0.3839  1.9042
   38POPC  H15B 5053   2.467   5.769   6.424  0.3100 -2.2888 -1.5297
   38POPC  H15C 5054   2.395   5.718   6.275 -0.4418 -0.7776  0.0895
   38POPC   C11 5055   2.520   6.180   6.273  0.0721  0.6495  0.2128
   38POPC  H11A 5056   2.520   6.268   6.341 -1.3727  1.2225 -0.4894
   38POPC  H11B 5057   2.428   6.189   6.211  0.2747 -0.8260 -0.3332
   38POPC     P 5058   2.783   6.180   6.235 -0.1411  0.6270 -0.1138
   38POPC   O13 5059   2.847   6.313   6.243 -0.1948 -0.1396  0.7086
   38POPC   O14 5060   2.862   6.066   6.179 -0.3291  0.1239  0.9162
   38POPC   O12 5061   2.635   6.184   6.187 -0.0661 -0.0601  0.1702
   38POPC   O11 5062   2.757   6.143   6.390 -0.0659 -0.4144 -0.6262
   38POPC    C1 5063   2.836   6.073   6.480  0.0020 -0.7977 -1.0789
   38POPC    HA 5064   2.934   6.125   6.484  0.0634 -0.9786  0.7238
   38POPC    HB 5065   2.856   5.968   6.452 -0.7532 -1.1565 -0.3446
   38POPC    C2 5066   2.767   6.075   6.621  0.1948  0.0910 -0.0709
   38POPC    HS 5067   2.846   6.070   6.699  0.6983  1.2093 -0.4775
   38POPC   O21 5068   2.664   5.978   6.628 -0.0398  0.1138 -0.0664
   38POPC   C21 5069   2.710   5.852   6.647  0.0439  0.6201  0.5518
   38POPC   O22 5070   2.824   5.819   6.670 -0.0719 -0.2130  0.1239
   38POPC   C22 5071   2.592   5.756   6.657  0.2089  0.3999 -0.2744
   38POPC   H2R 5072   2.552   5.749   6.554 -0.8561 -0.9928  0.1974
   38POPC   H2S 5073   2.514   5.808   6.717 -0.5803  0.1671 -1.0703
   38POPC    C3 5074   2.690   6.211   6.648 -0.0836  0.1341 -0.0775
   38POPC    HX 5075   2.600   6.216   6.583 -1.1342 -1.2482  1.2103
   38POPC    HY 5076   2.761   6.292   6.620 -1.0221  0.6176 -1.1251
   38POPC   O31 5077   2.651   6.235   6.784  0.0721  0.1479 -0.3976
   38POPC   C31 5078   2.537   6.182   6.835  0.6000 -0.1590  0.3388
   38POPC   O32 5079   2.449   6.127   6.775  0.4936  0.4737  0.0806
   38POPC   C32 5080   2.535   6.201   6.994  0.3249  0.4876  0.6423
   38POPC   H2X 5081   2.527   6.309   7.020  0.9699  0.6380  0.2343
   38POPC   H2Y 5082   2.626   6.153   7.037  1.3664  1.4310 -0.4335
   38POPC   C23 5083   2.625   5.611   6.707  0.6376  0.2194 -0.0030
   38POPC   H3R 5084   2.618   5.615   6.818  0.9071  0.1207  0.0178
   38POPC   H3S 5085   2.726   5.586   6.669  0.8950  1.4347 -0.1590
   38POPC   C24 5086   2.522   5.511   6.661 -0.8156  0.4376  0.6756
   38POPC   H4R 5087   2.514   5.517   6.550 -0.2417 -1.9179  0.4609
   38POPC   H4S 5088   2.424   5.543   6.704 -1.0065 -0.1866  0.7198
   38POPC   C25 5089   2.542   5.367   6.700 -0.5301 -0.3954 -0.4546
   38POPC   H5R 5090   2.540   5.347   6.809  0.1755  1.0822 -0.1513
   38POPC   H5S 5091   2.642   5.331   6.667  0.4145  0.7891  0.9749
   38POPC   C26 5092   2.432   5.272   6.653 -0.0040  0.0987 -0.6834
   38POPC   H6R 5093   2.416   5.281   6.544 -3.3160 -2.9661 -0.6709
   38POPC   H6S 5094   2.334   5.297   6.700 -0.3363 -2.5999  0.2797
   38POPC   C27 5095   2.458   5.119   6.676  0.0427  0.2876 -0.6057
   38POPC   H7R 5096   2.542   5.086   6.612 -0.7905 -2.0662 -0.5943
   38POPC   H7S 5097   2.372   5.063   6.633  0.4746 -0.5843 -0.3480
   38POPC   C28 5098   2.475   5.086   6.835  0.3547  0.5996 -0.2972
   38POPC   H8R 5099   2.388   5.126   6.893 -1.1317  0.3433 -2.2658
   38POPC   H8S 5100   2.565   5.140   6.872  1.3727  0.4047 -2.3732
   38POPC   C29 5101   2.485   4.937   6.871 -1.2930 -0.2994 -0.1175
   38POPC   H91 5102   2.440   4.874   6.793 -2.0009  2.3021 -1.9593
   38POPC  C210 5103   2.521   4.892   6.995  0.6600 -0.4192 -0.4567
   38POPC  H101 5104   2.531   4.786   7.020  2.2562 -0.2703 -0.3911
   38POPC  C211 5105   2.566   4.980   7.113 -0.0829  0.0549 -0.1403
   38POPC  H11R 5106   2.538   5.087   7.104 -0.4768  0.0230  0.6384
   38POPC  H11S 5107   2.674   4.957   7.121 -0.0093  0.9147  1.9065
   38POPC  C212 5108   2.504   4.919   7.242 -0.4579  0.0477 -0.8860
   38POPC  H12R 5109   2.531   4.811   7.247  0.1413  0.1135 -2.1969
   38POPC  H12S 5110   2.394   4.923   7.230 -0.6549 -1.1911  0.2350
   38POPC  C213 5111   2.549   4.990   7.370  0.5988  0.2928 -0.2642
   38POPC  H13R 5112   2.538   5.100   7.354 -0.3767  0.1489 -0.6466
   38POPC  H13S 5113   2.655   4.961   7.387 -0.1258 -1.6934  1.1883
   38POPC  C214 5114   2.459   4.958   7.494 -0.8944 -1.0289 -0.1357
   38POPC  H14R 5115   2.354   4.985   7.473 -0.3318  0.3785 -1.2910
   38POPC  H14S 5116   2.497   5.014   7.582  0.7315  0.5250 -1.7326
   38POPC  C215 5117   2.452   4.809   7.534 -0.0811  0.1143 -0.6546
   38POPC  H15R 5118   2.556   4.772   7.549  0.1921  1.0418 -0.1677
   38POPC  H15S 5119   2.402   4.746   7.457  0.2166 -1.6163  0.5051
   38POPC  C216 5120   2.385   4.776   7.670 -0.5677 -0.6027  0.2262
   38POPC  H16R 5121   2.277   4.797   7.677 -0.8500 -1.5289 -1.0657
   38POPC  H16S 5122   2.439   4.846   7.738 -0.0154 -0.4726 -0.3308
   38POPC  C217 5123   2.411   4.635   7.715 -0.2647  0.2006 -0.0351
   38POPC  H17R 5124   2.519   4.607   7.718 -0.2990 -0.5192 -2.6538
   38POPC  H17S 5125   2.368   4.565   7.641 -1.4744  0.3777  0.4770
   38POPC  C218 5126   2.332   4.592   7.843  0.7955 -0.3250 -0.5998
   38POPC  H18R 5127   2.223   4.594   7.823  0.6988  1.0134 -0.0493
   38POPC  H18S 5128   2.333   4.668   7.924  1.0208 -2.3902  1.4306
   38POPC  H18T 5129   2.366   4.491   7.874  2.8408  0.4972  0.0391
   38POPC   C33 5130   2.408   6.120   7.043  0.1672  0.3460  0.2008
   38POPC   H3X 5131   2.428   6.014   7.017  1.5217  1.1422 -2.2977
   38POPC   H3Y 5132   2.325   6.151   6.975  0.5574 -0.6636 -0.7583
   38POPC   C34 5133   2.372   6.143   7.189  0.1808 -0.0931  0.0204
   38POPC   H4X 5134   2.267   6.108   7.201 -0.7214  1.7518 -1.8376
   38POPC   H4Y 5135   2.357   6.250   7.212 -0.7377 -0.4516  1.2230
   38POPC   C35 5136   2.484   6.093   7.274  0.0789  0.1890 -0.1752
   38POPC   H5X 5137   2.564   6.171   7.276 -0.0143  0.3476  2.9781
   38POPC   H5Y 5138   2.515   5.993   7.238 -0.6591  0.3924 -1.4439
   38POPC   C36 5139   2.441   6.083   7.424  0.4507  0.2814 -0.3435
   38POPC   H6X 5140   2.530   6.053   7.484  0.1596  0.6776  0.2837
   38POPC   H6Y 5141   2.355   6.013   7.432  1.1453 -0.3933  2.0857
   38POPC   C37 5142   2.403   6.221   7.468 -1.1833 -0.5457 -0.2306
   38POPC   H7X 5143   2.310   6.264   7.426 -1.9582 -1.7914  0.1446
   38POPC   H7Y 5144   2.485   6.290   7.439 -1.0826 -0.5606  0.0169
   38POPC   C38 5145   2.380   6.235   7.621 -0.1766  0.3744 -0.5906
   38POPC   H8X 5146   2.298   6.166   7.650  0.3805  0.0069  0.1302
   38POPC   H8Y 5147   2.357   6.337   7.659 -1.9107  0.5007 -1.8473
   38POPC   C39 5148   2.498   6.187   7.705  0.0832  0.4307 -0.7882
   38POPC   H9X 5149   2.596   6.227   7.670  1.2572 -1.2879  0.3420
   38POPC   H9Y 5150   2.506   6.077   7.689 -0.4347 -0.1527  2.2550
   38POPC  C310 5151   2.483   6.205   7.857  0.4884  0.1074  0.1590
   38POPC  H10X 5152   2.386   6.162   7.889  0.8286 -0.0322  1.0553
   38POPC  H10Y 5153   2.492   6.314   7.876 -1.1452 -0.0308  2.1167
   38POPC  C311 5154   2.606   6.150   7.932  0.3767 -0.1978 -0.5638
   38POPC  H11X 5155   2.692   6.219   7.925 -0.0576  0.5776  1.1898
   38POPC  H11Y 5156   2.629   6.046   7.899  1.1222 -0.6635  1.2703
   38POPC  C312 5157   2.572   6.138   8.083  0.2579 -0.3766 -0.2123
   38POPC  H12X 5158   2.487   6.073   8.115  1.3738 -0.8737  1.9271
   38POPC  H12Y 5159   2.543   6.243   8.105 -0.0053 -0.0908 -1.7897
   38POPC  C313 5160   2.702   6.092   8.158 -0.2976  0.4739  0.5142
   38POPC  H13X 5161   2.790   6.144   8.115  0.2091 -1.4011 -0.8463
   38POPC  H13Y 5162   2.717   5.983   8.144  1.1890  0.6088  0.8685
   38POPC  C314 5163   2.712   6.120   8.312  0.5338  0.2981  0.4943
   38POPC  H14X 5164   2.711   6.228   8.337  0.9576  0.0717  1.5532
   38POPC  H14Y 5165   2.807   6.084   8.357  1.4318  0.1367 -1.4539
   38POPC  C315 5166   2.589   6.067   8.392  0.0165 -0.3308  0.5704
   38POPC  H15X 5167   2.554   5.972   8.346 -0.3043  0.4403 -0.8186
   38POPC  H15Y 5168   2.505   6.138   8.382 -1.2511 -1.6714  1.2902
   38POPC  C316 5169   2.614   6.065   8.541  0.3919  0.2959  0.0604
   38POPC  H16X 5170   2.644   6.165   8.579  2.0807 -0.1110 -0.1051
   38POPC  H16Y 5171   2.704   6.003   8.560  0.6855  0.2144 -1.4187
   38POPC  H16Z 5172   2.531   6.040   8.610  1.0550  0.1356  0.8052
   39POPC     N 5173   6.421   5.545   5.973 -0.0224  0.4914 -0.5219
   39POPC   C12 5174   6.370   5.449   6.079 -0.0917 -0.0463  0.5717
   39POPC  H12A 5175   6.426   5.441   6.170  0.4261  0.8810  0.3473
   39POPC  H12B 5176   6.368   5.354   6.027  0.8222  1.2146 -1.9693
   39POPC   C13 5177   6.555   5.509   5.922  0.0533  0.2930 -0.4339
   39POPC  H13A 5178   6.550   5.422   5.859  0.0127  0.3815 -0.5522
   39POPC  H13B 5179   6.599   5.582   5.857  0.9017 -0.0925 -0.3019
   39POPC  H13C 5180   6.618   5.493   6.009  0.0448 -0.0146 -0.4819
   39POPC   C14 5181   6.331   5.542   5.848 -0.0744 -0.4836  0.5520
   39POPC  H14A 5182   6.332   5.637   5.797 -1.0730 -1.1106 -0.6940
   39POPC  H14B 5183   6.357   5.468   5.775  0.5772  2.0324 -1.9406
   39POPC  H14C 5184   6.229   5.527   5.881 -0.5340  2.3076  0.6567
   39POPC   C15 5185   6.437   5.688   6.017 -0.3823  0.5326 -0.0367
   39POPC  H15A 5186   6.347   5.710   6.073 -0.9135 -5.1605  2.0569
   39POPC  H15B 5187   6.454   5.752   5.931  1.4853  2.0626  1.3957
   39POPC  H15C 5188   6.514   5.708   6.089 -1.6691  0.8287  1.3156
   39POPC   C11 5189   6.222   5.457   6.119 -0.3977  0.1147 -0.3484
   39POPC  H11A 5190   6.209   5.565   6.142  2.8812  1.0182 -2.2514
   39POPC  H11B 5191   6.220   5.394   6.211  0.9389 -0.4151 -0.6581
   39POPC     P 5192   6.090   5.260   6.014  0.2354  0.2207 -0.3421
   39POPC   O13 5193   6.214   5.184   5.986 -0.9424  0.1432 -0.2391
   39POPC   O14 5194   5.974   5.250   5.923 -0.1818  0.6543 -0.4659
   39POPC   O12 5195   6.128   5.415   6.026 -0.2674 -0.2378  0.2685
   39POPC   O11 5196   6.040   5.231   6.161  0.1753  0.3930 -0.0138
   39POPC    C1 5197   5.916   5.288   6.203  0.4483 -0.8465 -0.3468
   39POPC    HA 5198   5.856   5.198   6.226  2.3011 -2.2082 -0.6610
   39POPC    HB 5199   5.857   5.343   6.126  0.8022  1.1434  0.7292
   39POPC    C2 5200   5.936   5.378   6.325  0.4448 -0.2593  0.1176
   39POPC    HS 5201   6.027   5.442   6.319 -0.6701  1.2917 -3.2075
   39POPC   O21 5202   5.945   5.295   6.447  0.7855  0.8231 -0.0696
   39POPC   C21 5203   6.019   5.353   6.542  0.0998 -0.1197 -0.2212
   39POPC   O22 5204   6.091   5.450   6.532 -0.0934  0.2679  0.1740
   39POPC   C22 5205   5.995   5.273   6.677 -0.4747  0.3552  0.0536
   39POPC   H2R 5206   6.074   5.195   6.670  1.2731  2.1052 -0.5503
   39POPC   H2S 5207   5.894   5.225   6.668  0.9234 -2.4793 -2.3827
   39POPC    C3 5208   5.807   5.471   6.327  0.0818  0.0970  0.0917
   39POPC    HX 5209   5.720   5.405   6.308  0.3496 -1.0619  2.5523
   39POPC    HY 5210   5.824   5.548   6.249  1.4952 -2.2570 -2.1001
   39POPC   O31 5211   5.782   5.524   6.461  0.5278 -0.0770 -0.2818
   39POPC   C31 5212   5.845   5.632   6.500 -0.0646  0.4208 -0.0739
   39POPC   O32 5213   5.931   5.690   6.431 -0.4814 -0.2668 -0.3144
   39POPC   C32 5214   5.817   5.676   6.651  0.4527  0.1492  0.1176
   39POPC   H2X 5215   5.746   5.761   6.662 -0.3851 -0.4429 -0.6153
   39POPC   H2Y 5216   5.777   5.595   6.714  0.5030  0.2574  0.2888
   39POPC   C23 5217   6.008   5.350   6.813 -0.0819  0.8769 -0.0787
   39POPC   H3R 5218   5.930   5.430   6.812 -0.1482  0.8048 -0.4876
   39POPC   H3S 5219   6.105   5.404   6.817 -0.3689  1.3476  0.9201
   39POPC   C24 5220   5.996   5.261   6.947 -0.0374 -0.3645 -0.0192
   39POPC   H4R 5221   6.090   5.201   6.949 -0.0818 -0.4181  0.7561
   39POPC   H4S 5222   5.905   5.200   6.930 -0.9873  0.9034  0.3989
   39POPC   C25 5223   5.985   5.353   7.071  0.0830  0.8691  0.3683
   39POPC   H5R 5224   5.898   5.421   7.065 -0.1841  0.5787  0.9240
   39POPC   H5S 5225   6.069   5.425   7.079  0.0699  0.7561  1.5844
   39POPC   C26 5226   5.987   5.257   7.193 -0.0679  0.0439 -0.2466
   39POPC   H6R 5227   6.085   5.206   7.206  0.0926  0.6731  1.1823
   39POPC   H6S 5228   5.909   5.179   7.188  0.5404 -0.5135 -1.2799
   39POPC   C27 5229   5.959   5.327   7.338  0.3731 -0.3682  0.2521
   39POPC   H7R 5230   5.855   5.366   7.340 -0.2788 -1.9363 -0.5795
   39POPC   H7S 5231   6.032   5.409   7.346  2.1373 -1.9319  0.9133
   39POPC   C28 5232   5.987   5.231   7.456 -0.7528 -0.0458  0.6579
   39POPC   H8R 5233   6.090   5.195   7.440 -0.1395  0.6580  2.7367
   39POPC   H8S 5234   5.919   5.146   7.434 -0.2959  0.2395 -2.3685
   39POPC   C29 5235   5.965   5.283   7.591  0.0129 -0.1952  0.3856
   39POPC   H91 5236   6.008   5.382   7.613 -1.6324  0.7668 -0.5360
   39POPC  C210 5237   5.874   5.227   7.681  0.2054  0.2881 -0.4299
   39POPC  H101 5238   5.853   5.274   7.778  0.8567 -0.5944  0.1510
   39POPC  C211 5239   5.782   5.108   7.665 -0.0608  0.0625  0.6433
   39POPC  H11R 5240   5.852   5.027   7.635 -0.4501  0.1836 -0.7008
   39POPC  H11S 5241   5.704   5.115   7.585  0.3906 -2.7095 -0.1567
   39POPC  C212 5242   5.712   5.066   7.789  0.6261  1.3095  0.3863
   39POPC  H12R 5243   5.652   5.150   7.831  1.9850  1.9271  1.1479
   39POPC  H12S 5244   5.778   5.027   7.869  2.7884  1.3261 -1.3042
   39POPC  C213 5245   5.619   4.951   7.754 -0.1012  1.0586 -0.2332
   39POPC  H13R 5246   5.677   4.871   7.702 -1.7266 -0.4052  0.1322
   39POPC  H13S 5247   5.555   4.985   7.670  0.1327  2.7651  0.2487
   39POPC  C214 5248   5.525   4.905   7.872 -0.6247  0.2642 -0.3181
   39POPC  H14R 5249   5.478   4.809   7.841 -0.4827  0.0065  0.2457
   39POPC  H14S 5250   5.443   4.976   7.895 -1.3718 -0.4018 -0.8562
   39POPC  C215 5251   5.588   4.874   8.007  0.7106  0.4634 -0.9233
   39POPC  H15R 5252   5.626   4.968   8.054  0.4219  0.1119  0.0402
   39POPC  H15S 5253   5.673   4.806   7.990 -1.4821 -3.0581  0.9500
   39POPC  C216 5254   5.484   4.821   8.108  0.3387 -0.0253  0.1409
   39POPC  H16R 5255   5.400   4.889   8.137 -1.1758 -1.5423 -0.5418
   39POPC  H16S 5256   5.548   4.817   8.199  3.3863  0.4584 -1.8632
   39POPC  C217 5257   5.427   4.688   8.067 -0.0258 -0.6583  0.5285
   39POPC  H17R 5258   5.513   4.619   8.074  1.3911  0.8408 -1.0247
   39POPC  H17S 5259   5.398   4.682   7.960 -1.5495  4.1707  0.4087
   39POPC  C218 5260   5.313   4.652   8.171  0.3647 -0.0465  0.1499
   39POPC  H18R 5261   5.239   4.735   8.171 -0.1070 -0.4036  2.2744
   39POPC  H18S 5262   5.352   4.658   8.274  1.0501 -2.2383  0.0531
   39POPC  H18T 5263   5.265   4.555   8.147  0.3392 -0.3443  1.3710
   39POPC   C33 5264   5.944   5.717   6.722  0.6019  1.3054 -0.2730
   39POPC   H3X 5265   6.005   5.775   6.649  1.2281  0.7677 -0.1897
   39POPC   H3Y 5266   5.995   5.625   6.758  2.8604  2.1585 -1.1273
   39POPC   C34 5267   5.919   5.804   6.847 -0.2343  0.4985  0.0775
   39POPC   H4X 5268   5.857   5.886   6.806  0.0799 -0.6563 -2.9821
   39POPC   H4Y 5269   6.016   5.848   6.878 -0.1709  0.5080 -0.1350
   39POPC   C35 5270   5.867   5.714   6.964  0.3025 -0.0069 -0.4357
   39POPC   H5X 5271   5.928   5.621   6.971  1.2046  0.5643 -0.5104
   39POPC   H5Y 5272   5.762   5.689   6.938 -0.2645  0.2531  1.4249
   39POPC   C36 5273   5.871   5.784   7.099  0.0737  1.0379 -0.0889
   39POPC   H6X 5274   5.789   5.858   7.104 -0.1385  0.9390 -1.4881
   39POPC   H6Y 5275   5.966   5.836   7.123  0.0172  1.7891 -1.3627
   39POPC   C37 5276   5.862   5.676   7.221  0.6066 -0.2438  0.1308
   39POPC   H7X 5277   5.940   5.598   7.205 -0.3775 -1.5438  1.4197
   39POPC   H7Y 5278   5.766   5.621   7.214  0.4392 -0.2590  1.9650
   39POPC   C38 5279   5.883   5.740   7.356 -0.5299  0.0260  0.3965
   39POPC   H8X 5280   5.809   5.822   7.350 -1.3635 -0.7675 -0.8644
   39POPC   H8Y 5281   5.985   5.778   7.377 -0.2731  0.8549 -2.0591
   39POPC   C39 5282   5.857   5.645   7.471  0.6136 -0.1785  0.1857
   39POPC   H9X 5283   5.935   5.565   7.468  2.4017  1.5085 -0.9020
   39POPC   H9Y 5284   5.760   5.608   7.433  1.2625 -1.8874  0.0635
   39POPC  C310 5285   5.870   5.718   7.604 -0.1839 -0.3553  0.9114
   39POPC  H10X 5286   5.809   5.809   7.590  0.0227 -0.0721  1.8226
   39POPC  H10Y 5287   5.976   5.734   7.632  1.0013  0.4734 -3.2669
   39POPC  C311 5288   5.792   5.636   7.710  0.0980 -0.5318  0.0137
   39POPC  H11X 5289   5.829   5.531   7.715 -0.8893 -0.8871  0.2571
   39POPC  H11Y 5290   5.684   5.642   7.684 -0.5729 -0.7726  2.4142
   39POPC  C312 5291   5.826   5.693   7.847  0.2307  0.1470 -0.5261
   39POPC  H12X 5292   5.813   5.803   7.837 -0.2460  0.2263  0.7597
   39POPC  H12Y 5293   5.932   5.666   7.867 -0.0025  0.8441  2.1177
   39POPC  C313 5294   5.753   5.620   7.965  0.3578  0.1064 -0.1383
   39POPC  H13X 5295   5.648   5.647   7.941 -0.0962 -0.2420  1.3451
   39POPC  H13Y 5296   5.779   5.667   8.063 -0.1523 -1.0790  0.5961
   39POPC  C314 5297   5.773   5.466   7.983 -0.4671  0.0048  0.1856
   39POPC  H14X 5298   5.882   5.452   8.003 -0.1849  2.5793  0.8167
   39POPC  H14Y 5299   5.738   5.406   7.896  0.6634  1.4361 -1.3043
   39POPC  C315 5300   5.693   5.422   8.113  0.0176 -0.4077  0.2105
   39POPC  H15X 5301   5.595   5.472   8.096 -0.1295 -0.2121  1.5250
   39POPC  H15Y 5302   5.743   5.451   8.209 -1.0035 -0.4760  0.7788
   39POPC  C316 5303   5.682   5.265   8.127  0.3840  0.0165 -0.2502
   39POPC  H16X 5304   5.776   5.217   8.162  0.5178  0.1537 -0.4186
   39POPC  H16Y 5305   5.659   5.219   8.028  1.0199 -1.0726  0.0929
   39POPC  H16Z 5306   5.598   5.235   8.193 -0.0051 -0.3683 -0.9016
   40POPC     N 5307   3.980   5.896   5.732  0.0581  0.1677 -0.1867
   40POPC   C12 5308   3.959   5.858   5.876  0.4033 -0.1245 -0.2496
   40POPC  H12A 5309   4.028   5.782   5.910 -0.5486 -1.3142 -0.9139
   40POPC  H12B 5310   3.858   5.822   5.871 -0.6175  2.0850  2.3769
   40POPC   C13 5311   3.888   6.000   5.691 -0.3881 -0.4495  0.0835
   40POPC  H13A 5312   3.883   6.074   5.770  1.5995 -2.2883  2.0711
   40POPC  H13B 5313   3.904   6.032   5.589  0.9625 -0.7511  0.1815
   40POPC  H13C 5314   3.788   5.960   5.680 -0.1376 -1.3827  1.0184
   40POPC   C14 5315   4.123   5.936   5.723 -0.1305  0.4608 -0.0628
   40POPC  H14A 5316   4.146   5.983   5.629  0.1687 -2.1574 -1.3767
   40POPC  H14B 5317   4.149   6.007   5.800  0.7463  0.3770 -0.2644
   40POPC  H14C 5318   4.192   5.853   5.728  0.1027  0.5065 -1.9897
   40POPC   C15 5319   3.953   5.791   5.630  0.7869  0.0903 -0.7430
   40POPC  H15A 5320   3.854   5.747   5.625  1.5923 -1.8663 -0.3780
   40POPC  H15B 5321   4.020   5.706   5.642 -0.4649 -0.9331 -0.7487
   40POPC  H15C 5322   3.980   5.828   5.532 -0.2816  1.0176 -0.7026
   40POPC   C11 5323   3.970   5.978   5.977  0.5909  0.2259 -0.2479
   40POPC  H11A 5324   3.943   5.943   6.078  1.4274  1.7612  0.5463
   40POPC  H11B 5325   3.896   6.061   5.969 -0.3010 -0.3241  1.6487
   40POPC     P 5326   4.222   5.985   6.066  0.1161 -0.2675 -0.5756
   40POPC   O13 5327   4.341   6.048   6.008  0.0592 -0.3053  0.1963
   40POPC   O14 5328   4.221   5.841   6.076  0.4199  0.6805 -0.4335
   40POPC   O12 5329   4.100   6.033   5.981 -0.1559  0.5735  0.5999
   40POPC   O11 5330   4.192   6.052   6.207 -0.7213 -0.7165  0.3959
   40POPC    C1 5331   4.146   6.188   6.205  0.0925  0.7101 -0.2950
   40POPC    HA 5332   4.039   6.187   6.174  0.4810 -0.2822 -1.7263
   40POPC    HB 5333   4.201   6.243   6.125 -2.6905  0.8363 -2.3100
   40POPC    C2 5334   4.148   6.250   6.345  0.8951 -0.6019 -0.6385
   40POPC    HS 5335   4.254   6.262   6.377  0.4893  3.0511 -0.2376
   40POPC   O21 5336   4.068   6.169   6.434  0.6483  0.0949 -0.6881
   40POPC   C21 5337   4.125   6.131   6.542 -0.2304  0.5170 -0.1375
   40POPC   O22 5338   4.234   6.175   6.581  0.0452  0.5975 -0.2127
   40POPC   C22 5339   4.036   6.043   6.617  0.1560 -0.2304  0.5288
   40POPC   H2R 5340   4.003   5.961   6.549  2.0901 -1.2016  0.6800
   40POPC   H2S 5341   3.947   6.099   6.654  0.4734  0.5090  0.1994
   40POPC    C3 5342   4.073   6.392   6.352  0.1343 -0.0898 -0.6036
   40POPC    HX 5343   3.963   6.384   6.348 -0.1161  2.5493 -1.1567
   40POPC    HY 5344   4.108   6.437   6.256 -0.4696 -1.2043 -1.3689
   40POPC   O31 5345   4.131   6.467   6.457 -0.0623 -0.1240  0.6202
   40POPC   C31 5346   4.063   6.472   6.571 -0.1953 -0.2896 -0.1597
   40POPC   O32 5347   3.947   6.442   6.589  0.0962 -0.0345  0.3810
   40POPC   C32 5348   4.158   6.510   6.689 -0.3795  0.4173  0.2783
   40POPC   H2X 5349   4.227   6.587   6.651 -0.1307  0.1842  0.2578
   40POPC   H2Y 5350   4.206   6.414   6.718  0.5568 -0.2689 -3.1397
   40POPC   C23 5351   4.102   5.984   6.745  0.0899 -0.5241 -0.1970
   40POPC   H3R 5352   4.192   5.928   6.714 -0.0322 -1.2583  0.7060
   40POPC   H3S 5353   4.033   5.907   6.787  0.6336 -1.6117 -1.2394
   40POPC   C24 5354   4.126   6.082   6.865 -0.8761  0.3670  0.1821
   40POPC   H4R 5355   4.032   6.137   6.889 -2.2121 -1.2117 -1.1193
   40POPC   H4S 5356   4.201   6.156   6.830 -1.2220  1.1549  1.0532
   40POPC   C25 5357   4.182   6.023   6.995  0.2408  0.5315 -0.0563
   40POPC   H5R 5358   4.280   5.974   6.982  0.5688  1.8578 -3.7144
   40POPC   H5S 5359   4.116   5.953   7.050  0.9239  1.0714  1.5067
   40POPC   C26 5360   4.202   6.138   7.092 -0.6557  0.5922 -0.2044
   40POPC   H6R 5361   4.111   6.194   7.122  0.4264  1.4473  1.6807
   40POPC   H6S 5362   4.275   6.207   7.045  0.0152 -0.1031 -0.1977
   40POPC   C27 5363   4.276   6.095   7.219 -0.1391  0.0416  0.7020
   40POPC   H7R 5364   4.324   6.185   7.265  0.4367 -0.0013  0.1943
   40POPC   H7S 5365   4.357   6.027   7.185  1.2939  1.7083  0.6071
   40POPC   C28 5366   4.181   6.041   7.329 -0.3556  0.2691  0.3971
   40POPC   H8R 5367   4.119   5.961   7.282 -1.6374  1.9745 -0.9040
   40POPC   H8S 5368   4.101   6.116   7.348 -1.9958 -1.0283 -0.9923
   40POPC   C29 5369   4.267   5.985   7.436 -0.1556  0.0333 -1.1827
   40POPC   H91 5370   4.349   5.918   7.406  0.8828  0.1361  1.2110
   40POPC  C210 5371   4.253   6.017   7.565 -0.6887  0.6998  0.0713
   40POPC  H101 5372   4.321   5.970   7.637 -0.3533 -0.5453 -1.0111
   40POPC  C211 5373   4.152   6.120   7.625 -0.0310 -0.3382  0.5141
   40POPC  H11R 5374   4.082   6.153   7.546 -1.4239 -2.7705  0.6247
   40POPC  H11S 5375   4.215   6.206   7.656 -0.9052  0.9075 -1.0340
   40POPC  C212 5376   4.091   6.076   7.758  0.0935 -0.0731 -0.7422
   40POPC  H12R 5377   4.047   6.161   7.813  0.6851  0.1289 -0.5793
   40POPC  H12S 5378   4.178   6.037   7.815 -0.4431  0.5681  0.5626
   40POPC  C213 5379   3.995   5.962   7.729 -0.7264 -0.4643 -0.4516
   40POPC  H13R 5380   4.054   5.872   7.701  1.8139  1.5125 -1.9392
   40POPC  H13S 5381   3.929   5.989   7.643 -0.9491 -1.0061 -0.4505
   40POPC  C214 5382   3.910   5.926   7.856  0.1760  0.5506 -0.8276
   40POPC  H14R 5383   3.849   6.015   7.882  0.1614 -0.1833  1.9942
   40POPC  H14S 5384   3.981   5.912   7.940 -0.7755  0.2380 -0.0668
   40POPC  C215 5385   3.830   5.797   7.825 -0.2775 -0.3327 -0.2455
   40POPC  H15R 5386   3.783   5.799   7.725  1.1068  0.0603 -0.9240
   40POPC  H15S 5387   3.748   5.808   7.899  1.5789 -1.8707  2.2397
   40POPC  C216 5388   3.903   5.661   7.846 -0.1785 -0.4209 -0.2103
   40POPC  H16R 5389   3.990   5.660   7.776  1.4375 -3.5161  1.6216
   40POPC  H16S 5390   3.831   5.579   7.826  0.2911 -0.8986  0.0232
   40POPC  C217 5391   3.967   5.654   7.986  0.2767  1.0194  0.1051
   40POPC  H17R 5392   3.894   5.677   8.066  1.8508 -0.1811  1.9698
   40POPC  H17S 5393   4.058   5.717   7.992  2.2003 -1.6076  0.3558
   40POPC  C218 5394   4.027   5.516   8.025 -0.7729  0.3725 -0.0636
   40POPC  H18R 5395   4.114   5.497   7.959 -0.7289  1.0483 -0.2127
   40POPC  H18S 5396   3.958   5.431   8.008  1.5505 -1.4833 -0.7193
   40POPC  H18T 5397   4.059   5.504   8.131 -0.9193 -1.1389 -0.1643
   40POPC   C33 5398   4.083   6.562   6.813 -0.1343  0.4442 -0.3578
   40POPC   H3X 5399   3.978   6.533   6.831 -0.2357  2.0190  2.0676
   40POPC   H3Y 5400   4.101   6.672   6.823  0.9379  0.1303  1.5614
   40POPC   C34 5401   4.161   6.505   6.941 -0.5237 -0.4215  0.8706
   40POPC   H4X 5402   4.272   6.505   6.936 -0.4281 -0.7703  2.4104
   40POPC   H4Y 5403   4.129   6.402   6.966 -0.4371 -0.1828  2.0603
   40POPC   C35 5404   4.128   6.585   7.070  0.3559 -0.0941  0.5052
   40POPC   H5X 5405   4.019   6.607   7.074  0.0058 -1.8524  1.5823
   40POPC   H5Y 5406   4.186   6.680   7.066  2.2117 -1.1629  0.6897
   40POPC   C36 5407   4.160   6.506   7.196 -0.2557 -0.3285  0.3027
   40POPC   H6X 5408   4.259   6.458   7.187 -0.2892 -0.9036  2.4027
   40POPC   H6Y 5409   4.085   6.423   7.194  0.0443 -0.6479 -3.1142
   40POPC   C37 5410   4.143   6.581   7.328  0.3027  0.3486  0.2528
   40POPC   H7X 5411   4.052   6.645   7.323  0.7638  1.1028  1.1339
   40POPC   H7Y 5412   4.219   6.660   7.346 -2.0856  3.0447 -0.7202
   40POPC   C38 5413   4.133   6.492   7.454  0.8559 -0.1896 -0.0227
   40POPC   H8X 5414   4.224   6.429   7.446  0.9253  0.0125 -1.0343
   40POPC   H8Y 5415   4.034   6.442   7.458  0.4998  0.5184  0.2445
   40POPC   C39 5416   4.125   6.580   7.578  0.1041  0.7352 -0.0786
   40POPC   H9X 5417   4.056   6.667   7.577 -1.0052 -0.1189 -1.0160
   40POPC   H9Y 5418   4.229   6.612   7.599 -0.2384  0.4496  2.3445
   40POPC  C310 5419   4.095   6.493   7.707  0.8508  0.1897  0.5781
   40POPC  H10X 5420   4.163   6.405   7.710  2.1269  1.1365  0.5200
   40POPC  H10Y 5421   3.992   6.451   7.702  1.3442 -1.1416  0.9997
   40POPC  C311 5422   4.116   6.564   7.833  0.6192  0.5059  0.2340
   40POPC  H11X 5423   4.066   6.663   7.824  1.1525  0.7367 -0.2419
   40POPC  H11Y 5424   4.224   6.582   7.849  0.9111  0.1380 -1.2259
   40POPC  C312 5425   4.057   6.511   7.964 -0.5304  0.2398 -0.3745
   40POPC  H12X 5426   4.130   6.435   7.998 -0.0612  0.4351 -0.9425
   40POPC  H12Y 5427   3.954   6.473   7.947 -0.8815  1.6926 -1.6319
   40POPC  C313 5428   4.056   6.616   8.069 -0.0047  0.2641 -0.8794
   40POPC  H13X 5429   3.995   6.705   8.040 -0.4922  0.3890  0.4360
   40POPC  H13Y 5430   4.155   6.655   8.101 -0.5247  0.2978  0.8207
   40POPC  C314 5431   3.998   6.562   8.203  0.2586 -0.6502  0.0857
   40POPC  H14X 5432   4.075   6.500   8.253 -0.7014 -1.8112  0.1827
   40POPC  H14Y 5433   3.908   6.503   8.174 -0.0931  1.1146 -2.7933
   40POPC  C315 5434   3.957   6.673   8.304  0.4281 -0.2286  0.1253
   40POPC  H15X 5435   3.885   6.744   8.257  2.0237  1.4070  0.0664
   40POPC  H15Y 5436   4.055   6.722   8.317  1.2295 -0.4257 -3.8857
   40POPC  C316 5437   3.899   6.624   8.441 -0.5306  0.4815 -0.2137
   40POPC  H16X 5438   3.889   6.699   8.522 -0.2572  1.6510 -1.2188
   40POPC  H16Y 5439   3.972   6.556   8.489  2.2796  1.6293 -2.5314
   40POPC  H16Z 5440   3.801   6.572   8.434 -0.0594 -0.5127  0.4474
   41CHL1    C3 5441   6.231   4.634  10.382 -0.1833 -0.2231 -0.1561
   41CHL1    H3 5442   6.318   4.702  10.371 -1.4219  1.5229  0.2398
   41CHL1    O3 5443   6.211   4.618  10.522  0.4360 -0.3501 -0.7009
   41CHL1   H3' 5444   6.139   4.559  10.545  0.6013 -0.5265 -0.6359
   41CHL1    C4 5445   6.117   4.720  10.322  0.9697  0.8087 -0.2295
   41CHL1   H4A 5446   6.033   4.650  10.341  1.5123 -0.1772 -1.3658
   41CHL1   H4B 5447   6.096   4.815  10.376  2.5537  0.1235  1.7254
   41CHL1    C5 5448   6.136   4.737  10.177 -0.3064 -0.1723  0.0581
   41CHL1    C6 5449   6.133   4.857  10.124 -0.0137  0.7932  0.1783
   41CHL1    H6 5450   6.111   4.940  10.193  0.9990  1.3857 -0.1919
   41CHL1    C7 5451   6.156   4.892   9.980 -0.3304 -0.7539 -0.5451
   41CHL1   H7A 5452   6.069   4.953   9.945 -0.2146  0.8829  1.7845
   41CHL1   H7B 5453   6.249   4.950   9.961 -1.1895  1.0352  0.4374
   41CHL1    C8 5454   6.163   4.761   9.888 -0.2347  0.2928 -0.2334
   41CHL1    H8 5455   6.058   4.734   9.865 -0.2080  0.9378 -1.1452
   41CHL1   C14 5456   6.228   4.788   9.757 -0.5341  0.1495  0.1508
   41CHL1   H14 5457   6.337   4.795   9.778 -0.8221  3.3350  1.2870
   41CHL1   C15 5458   6.179   4.916   9.691 -0.0437  0.0572  0.0246
   41CHL1  H15A 5459   6.071   4.934   9.709  0.0124  0.4665 -0.0510
   41CHL1  H15B 5460   6.233   5.005   9.728  1.7199 -0.6006 -0.8342
   41CHL1   C16 5461   6.209   4.884   9.539  0.0508  0.2335 -0.4452
   41CHL1  H16A 5462   6.113   4.885   9.483 -1.1512  0.6587  1.5503
   41CHL1  H16B 5463   6.277   4.954   9.485  0.5953  2.6634  3.1096
   41CHL1   C17 5464   6.267   4.742   9.525  0.4801  0.4509  0.4705
   41CHL1   H17 5465   6.377   4.753   9.536  0.9925 -2.7676 -0.1689
   41CHL1   C13 5466   6.214   4.675   9.656 -0.6104  0.1551 -0.1502
   41CHL1   C18 5467   6.065   4.643   9.626 -0.3027  0.0790 -0.5581
   41CHL1  H18A 5468   6.067   4.555   9.559 -1.3656 -0.6851  0.3749
   41CHL1  H18B 5469   6.005   4.603   9.711  0.3577 -0.5356 -0.3759
   41CHL1  H18C 5470   6.029   4.728   9.564  2.4099 -0.3895 -2.9497
   41CHL1   C12 5471   6.286   4.553   9.717  0.1915  0.5848  0.0268
   41CHL1  H12A 5472   6.284   4.458   9.659 -1.5991  0.5252  0.1565
   41CHL1  H12B 5473   6.395   4.575   9.723  0.0871  1.5187 -1.1012
   41CHL1   C11 5474   6.234   4.520   9.861 -0.1529  0.2233  0.4371
   41CHL1  H11A 5475   6.132   4.476   9.858 -0.6208  1.1466  1.7456
   41CHL1  H11B 5476   6.288   4.432   9.901 -1.6931 -1.3286 -0.7438
   41CHL1    C9 5477   6.235   4.642   9.963 -0.5713  0.0260  0.0856
   41CHL1    H9 5478   6.341   4.675   9.974 -0.4505  0.3906 -1.7756
   41CHL1   C10 5479   6.182   4.609  10.103  0.4503 -0.2868  0.7309
   41CHL1   C19 5480   6.052   4.533  10.096  1.1840 -0.0510 -0.2048
   41CHL1  H19A 5481   6.003   4.496  10.189 -0.8989 -0.7477 -1.5173
   41CHL1  H19B 5482   5.981   4.596  10.037  3.8403  2.5319 -0.9075
   41CHL1  H19C 5483   6.065   4.437  10.042 -1.4915 -0.3684 -0.4411
   41CHL1    C1 5484   6.279   4.521  10.176 -0.7567  0.3484  0.3072
   41CHL1   H1A 5485   6.295   4.427  10.119 -2.2814  0.2921 -0.0749
   41CHL1   H1B 5486   6.378   4.572  10.169 -0.3432 -0.1890  1.8709
   41CHL1    C2 5487   6.248   4.490  10.320 -0.3123  0.6237 -0.2955
   41CHL1   H2A 5488   6.332   4.433  10.364  1.5942  3.6379  0.2545
   41CHL1   H2B 5489   6.154   4.432  10.337 -0.4410  1.2581  1.3351
   41CHL1   C20 5490   6.242   4.679   9.385 -0.3416 -0.3340  0.2412
   41CHL1   H20 5491   6.134   4.668   9.361  0.2729 -0.8417 -2.7209
   41CHL1   C21 5492   6.296   4.541   9.389  0.0899 -0.8730  0.1772
   41CHL1  H21A 5493   6.235   4.475   9.454 -0.2529 -2.6551 -1.8407
   41CHL1  H21B 5494   6.405   4.540   9.414  0.0842  0.7053  0.3846
   41CHL1  H21C 5495   6.282   4.494   9.289  0.7435  2.5477 -1.6820
   41CHL1   C22 5496   6.306   4.770   9.275  0.0635 -0.6540 -0.0005
   41CHL1  H22A 5497   6.247   4.864   9.284  2.3463  0.9568 -0.8665
   41CHL1  H22B 5498   6.410   4.793   9.306 -0.6878  2.2351  0.6733
   41CHL1   C23 5499   6.315   4.717   9.131 -0.5209  0.1591  0.9835
   41CHL1  H23A 5500   6.360   4.615   9.136 -0.5231  0.1384  0.6441
   41CHL1  H23B 5501   6.210   4.706   9.096 -0.6344  1.3171  0.9098
   41CHL1   C24 5502   6.384   4.814   9.035 -0.6883 -0.0027 -0.0298
   41CHL1  H24A 5503   6.325   4.908   9.037 -1.8447 -0.7084  2.0019
   41CHL1  H24B 5504   6.486   4.838   9.072 -0.8576 -1.6201  1.6052
   41CHL1   C25 5505   6.412   4.756   8.895 -0.2977  0.6427  0.4519
   41CHL1   H25 5506   6.466   4.660   8.907 -1.9444 -0.5595 -1.1980
   41CHL1   C26 5507   6.283   4.722   8.816  0.0550  0.5336 -0.6984
   41CHL1  H26A 5508   6.222   4.814   8.811 -0.1912  0.3542 -0.9999
   41CHL1  H26B 5509   6.312   4.698   8.711 -1.1204  0.0518 -0.9304
   41CHL1  H26C 5510   6.235   4.640   8.873  1.8226 -0.3904 -0.4568
   41CHL1   C27 5511   6.504   4.847   8.822  0.6814  0.7704 -0.3207
   41CHL1  H27A 5512   6.590   4.880   8.884  2.1305  0.3224 -2.0225
   41CHL1  H27B 5513   6.550   4.798   8.734  2.1622  0.9825  0.3138
   41CHL1  H27C 5514   6.446   4.933   8.781 -0.1693  0.4881  0.2505
   42CHL1    C3 5515   5.068   4.951  10.153 -0.1036  0.0916 -0.2759
   42CHL1    H3 5516   4.969   4.999  10.135 -0.4449  0.6125  2.4706
   42CHL1    O3 5517   5.080   4.948  10.300 -0.0757  0.3184  0.5964
   42CHL1   H3' 5518   5.164   4.906  10.319 -0.0573 -1.1439 -2.1767
   42CHL1    C4 5519   5.073   4.810  10.101 -0.2488  0.5869  0.1182
   42CHL1   H4A 5520   5.172   4.773  10.135  0.2093  1.0664 -0.6581
   42CHL1   H4B 5521   4.981   4.759  10.139  0.0131  0.6804  0.8798
   42CHL1    C5 5522   5.053   4.811   9.949 -0.3151 -0.0258 -0.0287
   42CHL1    C6 5523   4.943   4.765   9.882  0.3265 -0.0520 -0.1775
   42CHL1    H6 5524   4.863   4.718   9.941 -0.2842 -1.4641 -2.0165
   42CHL1    C7 5525   4.931   4.763   9.733 -0.3580  1.3554  0.1962
   42CHL1   H7A 5526   4.878   4.669   9.708  1.2497 -0.5276  3.2733
   42CHL1   H7B 5527   4.858   4.836   9.692 -0.2405  0.9843 -0.7144
   42CHL1    C8 5528   5.064   4.784   9.661 -0.0394 -0.0896  0.3369
   42CHL1    H8 5529   5.133   4.698   9.679  0.5142  0.0206 -1.0639
   42CHL1   C14 5530   5.044   4.810   9.515  0.1542  0.4429 -0.6655
   42CHL1   H14 5531   4.986   4.905   9.513 -0.3507  0.1486 -0.3916
   42CHL1   C15 5532   4.948   4.721   9.426 -0.2854 -0.3434  0.0711
   42CHL1  H15A 5533   4.980   4.617   9.451 -2.1930 -0.6435  1.4161
   42CHL1  H15B 5534   4.844   4.734   9.462  0.2370  1.3470  1.0534
   42CHL1   C16 5535   4.995   4.754   9.283 -0.2563 -0.2307  0.0184
   42CHL1  H16A 5536   5.044   4.662   9.245  0.6796  0.7947 -1.3445
   42CHL1  H16B 5537   4.911   4.784   9.217 -0.7111  1.5151  1.2964
   42CHL1   C17 5538   5.102   4.861   9.296 -0.1756 -0.0562  0.0741
   42CHL1   H17 5539   5.048   4.958   9.297  0.5490  0.4707 -2.7024
   42CHL1   C13 5540   5.167   4.840   9.434 -0.0428  0.3597 -0.8697
   42CHL1   C18 5541   5.268   4.720   9.434 -0.2448 -0.3830 -0.1277
   42CHL1  H18A 5542   5.354   4.758   9.374  0.6385  1.1715  1.9958
   42CHL1  H18B 5543   5.310   4.680   9.529  1.3727  0.0222 -0.6258
   42CHL1  H18C 5544   5.216   4.633   9.388 -0.7753  0.5823 -1.3955
   42CHL1   C12 5545   5.236   4.963   9.495  0.3159  0.0012 -0.4388
   42CHL1  H12A 5546   5.326   4.991   9.436  0.6185 -0.3146 -0.1388
   42CHL1  H12B 5547   5.155   5.039   9.495 -0.9458 -1.2774  0.8297
   42CHL1   C11 5548   5.266   4.949   9.643 -0.5430  0.3073 -0.4413
   42CHL1  H11A 5549   5.350   4.876   9.640  0.2137  1.1920 -2.1868
   42CHL1  H11B 5550   5.304   5.043   9.686 -1.1832  1.0124 -1.3684
   42CHL1    C9 5551   5.138   4.904   9.718  0.8796 -0.6987  0.1463
   42CHL1    H9 5552   5.067   4.990   9.718  2.2830  0.5035  0.7744
   42CHL1   C10 5553   5.165   4.887   9.876  0.3747 -0.3653  0.3332
   42CHL1   C19 5554   5.304   4.813   9.896  0.1718 -0.5270 -0.3469
   42CHL1  H19A 5555   5.296   4.712   9.849 -0.9516 -0.5331 -0.1663
   42CHL1  H19B 5556   5.386   4.875   9.855  0.1046 -0.3740 -0.2493
   42CHL1  H19C 5557   5.326   4.791  10.002  0.9383  0.8662 -0.2088
   42CHL1    C1 5558   5.173   5.030   9.931 -0.0946  1.1368 -1.2573
   42CHL1   H1A 5559   5.263   5.087   9.900  0.1276  2.5862  1.6855
   42CHL1   H1B 5560   5.084   5.093   9.910 -0.7931  1.8815  3.0107
   42CHL1    C2 5561   5.184   5.023  10.094  0.2788 -0.3083  0.3256
   42CHL1   H2A 5562   5.193   5.129  10.127 -1.3225 -0.7328  2.2926
   42CHL1   H2B 5563   5.281   4.976  10.118 -0.2105 -0.9489  1.0828
   42CHL1   C20 5564   5.187   4.864   9.165  0.8163 -0.4094 -0.5939
   42CHL1   H20 5565   5.225   4.763   9.139 -0.4300 -0.9592 -0.3480
   42CHL1   C21 5566   5.314   4.952   9.159 -0.6886  0.6913  0.5091
   42CHL1  H21A 5567   5.358   4.931   9.059  0.1600 -1.4720  1.2650
   42CHL1  H21B 5568   5.383   4.924   9.241 -0.8191  0.0744  0.4169
   42CHL1  H21C 5569   5.284   5.059   9.157 -0.7461  0.7635  2.7507
   42CHL1   C22 5570   5.093   4.908   9.050  0.9192 -0.2666 -0.7785
   42CHL1  H22A 5571   5.000   4.848   9.053  0.8261 -0.0871  0.3746
   42CHL1  H22B 5572   5.074   5.018   9.051 -0.1137 -0.3391  3.1436
   42CHL1   C23 5573   5.143   4.875   8.911  0.5904  0.8777  0.5980
   42CHL1  H23A 5574   5.233   4.938   8.894  0.5405  1.0240  0.8762
   42CHL1  H23B 5575   5.165   4.766   8.911 -0.1128  0.7233  0.2051
   42CHL1   C24 5576   5.035   4.905   8.810  0.0669 -0.2495 -0.9099
   42CHL1  H24A 5577   4.934   4.918   8.856  0.1415 -1.3448 -0.4115
   42CHL1  H24B 5578   5.056   5.004   8.763 -1.0367 -1.2747 -3.7730
   42CHL1   C25 5579   5.022   4.800   8.692  0.6012 -0.3252  0.3978
   42CHL1   H25 5580   5.027   4.699   8.738  1.9139  1.1236  3.6955
   42CHL1   C26 5581   4.884   4.808   8.622  0.9375  1.0700 -0.6450
   42CHL1  H26A 5582   4.847   4.911   8.603 -2.1976 -0.3777 -3.3515
   42CHL1  H26B 5583   4.886   4.755   8.524  2.7200  1.2626 -0.7429
   42CHL1  H26C 5584   4.803   4.760   8.681  0.3544  2.1260 -0.5412
   42CHL1   C27 5585   5.133   4.814   8.587  0.2273 -0.2977  0.1314
   42CHL1  H27A 5586   5.232   4.799   8.635  0.1273  0.4929  0.6004
   42CHL1  H27B 5587   5.136   4.740   8.504  1.9065  0.2587 -0.3526
   42CHL1  H27C 5588   5.120   4.910   8.532  1.1963 -0.7180 -0.8818
   43CHL1    C3 5589   3.781   3.328  10.160 -0.0815  0.1785 -0.3512
   43CHL1    H3 5590   3.728   3.232  10.142  1.6978 -0.6582 -1.2889
   43CHL1    O3 5591   3.762   3.371  10.299 -0.0848  0.7546  0.4817
   43CHL1   H3' 5592   3.790   3.463  10.305  1.2177  0.3713  0.6342
   43CHL1    C4 5593   3.927   3.302  10.122  0.3865  0.1399  0.4821
   43CHL1   H4A 5594   3.983   3.396  10.141  0.3116 -0.0801  1.8901
   43CHL1   H4B 5595   3.961   3.217  10.185 -1.4493 -0.1880  1.0827
   43CHL1    C5 5596   3.945   3.280   9.969 -0.5808 -0.5313 -0.3131
   43CHL1    C6 5597   4.019   3.177   9.917  0.6895 -0.4920 -0.7671
   43CHL1    H6 5598   4.060   3.103   9.988 -0.7424 -0.0357  0.5758
   43CHL1    C7 5599   4.044   3.163   9.769 -0.2538 -0.0125  0.3506
   43CHL1   H7A 5600   4.144   3.122   9.742 -0.6982  1.8549 -5.4909
   43CHL1   H7B 5601   3.985   3.077   9.731  2.7350 -2.1600  0.2467
   43CHL1    C8 5602   4.002   3.285   9.679 -0.4926  0.2245 -0.2205
   43CHL1    H8 5603   4.078   3.365   9.693  0.7740 -1.2789  2.0082
   43CHL1   C14 5604   4.001   3.250   9.529  0.2601  0.6140  0.3118
   43CHL1   H14 5605   3.919   3.177   9.519 -0.4896  1.6572 -1.9579
   43CHL1   C15 5606   4.124   3.184   9.458 -0.3907  0.5546 -0.1415
   43CHL1  H15A 5607   4.224   3.221   9.490  0.7612 -2.0858 -0.4070
   43CHL1  H15B 5608   4.119   3.074   9.470  2.1469  0.2177 -1.4490
   43CHL1   C16 5609   4.100   3.226   9.310  0.5235 -0.2615 -0.1204
   43CHL1  H16A 5610   4.184   3.294   9.283 -0.7921  1.0260 -1.1143
   43CHL1  H16B 5611   4.111   3.145   9.234  0.4596 -1.0575  0.6989
   43CHL1   C17 5612   3.970   3.310   9.294  0.5649 -0.6886  0.2868
   43CHL1   H17 5613   3.877   3.251   9.281 -0.8201  1.5834 -0.8476
   43CHL1   C13 5614   3.956   3.373   9.438  0.5364  0.5073  0.9212
   43CHL1   C18 5615   4.041   3.492   9.460 -0.2574 -1.1454 -0.4125
   43CHL1  H18A 5616   4.028   3.572   9.383  1.7718  0.3190  0.6909
   43CHL1  H18B 5617   4.031   3.528   9.565 -0.3032 -1.1702 -0.4084
   43CHL1  H18C 5618   4.146   3.457   9.453  0.0584 -0.6713  1.3369
   43CHL1   C12 5619   3.812   3.406   9.485  0.0593 -0.6352  0.3121
   43CHL1  H12A 5620   3.781   3.496   9.427  1.6124 -0.3878 -0.2021
   43CHL1  H12B 5621   3.748   3.318   9.465  1.0956 -1.2461 -0.4462
   43CHL1   C11 5622   3.804   3.445   9.631 -0.5338  0.2370  0.2707
   43CHL1  H11A 5623   3.858   3.541   9.647  1.1459 -0.6611  0.2376
   43CHL1  H11B 5624   3.700   3.457   9.669 -1.0712 -1.1495 -0.6822
   43CHL1    C9 5625   3.864   3.339   9.727 -0.1701  0.3991  0.3264
   43CHL1    H9 5626   3.799   3.250   9.724 -1.1381  1.0861  0.3131
   43CHL1   C10 5627   3.864   3.384   9.877 -0.5797 -0.2257 -0.8541
   43CHL1   C19 5628   3.939   3.516   9.886  0.5479  0.6620  0.0470
   43CHL1  H19A 5629   4.031   3.509   9.824 -0.2336  0.5152 -1.1329
   43CHL1  H19B 5630   3.879   3.599   9.844  0.4431  0.3965 -0.3287
   43CHL1  H19C 5631   3.972   3.548   9.987  0.9565  0.4924 -0.0309
   43CHL1    C1 5632   3.722   3.405   9.922  0.2399  0.4391 -0.6336
   43CHL1   H1A 5633   3.683   3.495   9.869  0.4462  1.1484  0.3907
   43CHL1   H1B 5634   3.658   3.325   9.880 -2.3047  2.9494 -1.8961
   43CHL1    C2 5635   3.711   3.431  10.069  0.2852  0.5025 -0.5318
   43CHL1   H2A 5636   3.605   3.443  10.099  0.0620 -0.6535 -0.8486
   43CHL1   H2B 5637   3.761   3.527  10.094  0.2599  0.9353 -2.0349
   43CHL1   C20 5638   3.976   3.404   9.172  0.0088  0.0088  0.4863
   43CHL1   H20 5639   4.036   3.494   9.197  0.8287  0.9208 -3.9927
   43CHL1   C21 5640   3.832   3.438   9.130  0.0917  1.1621  0.7988
   43CHL1  H21A 5641   3.777   3.470   9.221 -1.9551 -2.0161  0.8105
   43CHL1  H21B 5642   3.771   3.353   9.093  2.4182  0.2907 -1.3564
   43CHL1  H21C 5643   3.826   3.517   9.052  0.2944  1.9628  1.5843
   43CHL1   C22 5644   4.042   3.345   9.049  0.7784 -0.3742 -0.3252
   43CHL1  H22A 5645   4.144   3.310   9.074  0.6791  0.5789  1.5492
   43CHL1  H22B 5646   3.977   3.261   9.015  0.2484  0.1977 -0.7473
   43CHL1   C23 5647   4.064   3.429   8.921  0.3415 -0.7774  0.6121
   43CHL1  H23A 5648   4.134   3.383   8.847 -0.3855 -1.6786  0.4657
   43CHL1  H23B 5649   3.967   3.432   8.867  1.5248 -2.4805 -1.8237
   43CHL1   C24 5650   4.118   3.569   8.943  0.1288  0.0155 -0.5202
   43CHL1  H24A 5651   4.036   3.627   8.990 -0.8432 -0.3409 -1.7370
   43CHL1  H24B 5652   4.209   3.565   9.006  1.9629 -2.9899 -3.0552
   43CHL1   C25 5653   4.145   3.662   8.817  0.4988  0.0752 -0.4104
   43CHL1   H25 5654   4.198   3.599   8.743 -1.9679 -3.3123  0.4700
   43CHL1   C26 5655   4.014   3.692   8.750 -0.1252  0.2906 -0.2322
   43CHL1  H26A 5656   3.942   3.609   8.731 -0.2400  0.9359 -2.9978
   43CHL1  H26B 5657   3.961   3.770   8.809  1.0056 -0.0895  1.3365
   43CHL1  H26C 5658   4.032   3.738   8.650 -2.4902 -2.4661 -2.1028
   43CHL1   C27 5659   4.229   3.786   8.849 -0.4483 -0.7325 -0.0346
   43CHL1  H27A 5660   4.184   3.852   8.927  0.7261  0.9075 -0.6866
   43CHL1  H27B 5661   4.333   3.760   8.877 -0.9958 -1.6604  1.2373
   43CHL1  H27C 5662   4.237   3.845   8.755 -2.3652  2.3221  1.5401
   44CHL1    C3 5663   5.075   3.756  10.239  0.0435  0.2178  0.3002
   44CHL1    H3 5664   5.168   3.697  10.229  0.2810  0.6112  0.1477
   44CHL1    O3 5665   5.050   3.772  10.378  0.3187 -0.3394  0.3237
   44CHL1   H3' 5666   5.142   3.776  10.405  0.4539 -0.4110 -0.1253
   44CHL1    C4 5667   5.086   3.893  10.166 -0.5364 -0.8084  0.5435
   44CHL1   H4A 5668   4.996   3.953  10.189  0.2782  0.8745 -0.4650
   44CHL1   H4B 5669   5.159   3.954  10.223  0.2966  0.3106 -1.5912
   44CHL1    C5 5670   5.116   3.895  10.021  0.2877 -0.1891 -0.1392
   44CHL1    C6 5671   5.224   3.967   9.973 -0.0590 -0.4495  0.8934
   44CHL1    H6 5672   5.287   4.029  10.038 -0.1748 -1.3767  1.9237
   44CHL1    C7 5673   5.244   3.966   9.822  0.8518 -0.3333 -0.3987
   44CHL1   H7A 5674   5.249   4.064   9.771  3.1515  0.2860  0.8800
   44CHL1   H7B 5675   5.326   3.900   9.788  0.8335 -0.9041  0.6150
   44CHL1    C8 5676   5.120   3.905   9.734 -0.9312  0.1664  0.0952
   44CHL1    H8 5677   5.044   3.986   9.730 -1.8950 -0.6699  0.7680
   44CHL1   C14 5678   5.169   3.862   9.596  0.0056  0.0308  0.0869
   44CHL1   H14 5679   5.234   3.773   9.611 -2.7852 -2.8201 -2.9897
   44CHL1   C15 5680   5.257   3.966   9.522 -0.3060  0.5478 -0.2122
   44CHL1  H15A 5681   5.224   4.072   9.530  2.0880  1.2237  1.7410
   44CHL1  H15B 5682   5.361   3.969   9.558 -1.1981 -1.0144  2.8111
   44CHL1   C16 5683   5.241   3.922   9.371  0.7626  0.9063  0.0637
   44CHL1  H16A 5684   5.187   4.003   9.317 -1.6621 -1.8873 -1.9911
   44CHL1  H16B 5685   5.337   3.906   9.318  0.7910  2.4510 -0.4093
   44CHL1   C17 5686   5.132   3.810   9.364  0.3352  0.4003 -0.2816
   44CHL1   H17 5687   5.183   3.711   9.366  1.2259  0.8496  1.1721
   44CHL1   C13 5688   5.060   3.807   9.503 -0.1376  0.6479  0.0083
   44CHL1   C18 5689   4.934   3.907   9.502 -0.1291  0.4306  0.6013
   44CHL1  H18A 5690   4.972   4.011   9.503 -1.9042  1.1235  0.1298
   44CHL1  H18B 5691   4.862   3.887   9.420  0.3896 -0.9461  0.4541
   44CHL1  H18C 5692   4.881   3.887   9.597  0.4651 -1.3420  0.6063
   44CHL1   C12 5693   5.023   3.667   9.557 -0.1235 -0.3556  0.3257
   44CHL1  H12A 5694   4.931   3.640   9.502  0.8497 -1.1471 -0.9723
   44CHL1  H12B 5695   5.102   3.590   9.540  0.4371  0.9095 -4.4028
   44CHL1   C11 5696   4.988   3.666   9.712  0.0249 -0.4744 -1.0807
   44CHL1  H11A 5697   4.883   3.695   9.730  0.5380  1.7770 -1.2827
   44CHL1  H11B 5698   4.993   3.563   9.752 -0.8665  0.0308  0.4061
   44CHL1    C9 5699   5.064   3.776   9.805  0.3827  0.1439 -0.1656
   44CHL1    H9 5700   5.158   3.720   9.824 -0.1369 -1.1254 -1.2004
   44CHL1   C10 5701   5.014   3.805   9.947  0.0471  0.4404  0.4225
   44CHL1   C19 5702   4.883   3.879   9.938 -0.4296 -0.4339  0.2440
   44CHL1  H19A 5703   4.897   3.984   9.905 -0.9762  0.2313  2.0523
   44CHL1  H19B 5704   4.813   3.828   9.868 -0.2620  0.7116 -0.7909
   44CHL1  H19C 5705   4.833   3.887  10.037  0.2525  1.0461  0.4831
   44CHL1    C1 5706   4.985   3.671  10.026 -0.3899  0.4629 -0.1197
   44CHL1   H1A 5707   4.906   3.611   9.976  0.6937 -0.1667 -1.1178
   44CHL1   H1B 5708   5.081   3.614  10.023  0.0179  1.1802 -1.1320
   44CHL1    C2 5709   4.960   3.688  10.177 -0.2597  0.0211 -0.2443
   44CHL1   H2A 5710   4.954   3.589  10.228 -0.2339  0.7581  1.2476
   44CHL1   H2B 5711   4.865   3.739  10.203 -0.8002 -1.4796  0.9077
   44CHL1   C20 5712   5.052   3.811   9.229 -0.1703  0.0492  0.3399
   44CHL1   H20 5713   4.999   3.909   9.237  0.6768  0.5077  0.4408
   44CHL1   C21 5714   4.943   3.697   9.217 -0.0453  0.1289  0.4749
   44CHL1  H21A 5715   4.999   3.601   9.220 -2.6933 -1.5828 -0.5378
   44CHL1  H21B 5716   4.896   3.702   9.117  1.5521 -0.4868 -0.3417
   44CHL1  H21C 5717   4.857   3.708   9.287  0.9596  1.0883  1.5879
   44CHL1   C22 5718   5.139   3.812   9.098 -0.1336 -0.4460  0.3219
   44CHL1  H22A 5719   5.239   3.859   9.112 -0.4382  0.9103 -1.6071
   44CHL1  H22B 5720   5.160   3.707   9.068  0.0564  0.2111 -2.0677
   44CHL1   C23 5721   5.092   3.879   8.967  0.5930 -0.3249  0.5042
   44CHL1  H23A 5722   5.001   3.830   8.926 -0.3820  1.6708  0.1629
   44CHL1  H23B 5723   5.071   3.985   8.993  0.3898  0.2667 -1.8282
   44CHL1   C24 5724   5.198   3.873   8.854  0.2049 -0.0838  0.7237
   44CHL1  H24A 5725   5.285   3.934   8.886  0.8430 -0.1555 -0.7822
   44CHL1  H24B 5726   5.236   3.769   8.842  0.7905  0.0294  1.5452
   44CHL1   C25 5727   5.167   3.935   8.717 -0.4857  0.6091  0.9118
   44CHL1   H25 5728   5.065   3.905   8.686  0.5413 -2.3191 -0.0097
   44CHL1   C26 5729   5.184   4.091   8.710 -0.0719  0.0508  0.1951
   44CHL1  H26A 5730   5.139   4.130   8.617 -0.3312  0.4654  0.4905
   44CHL1  H26B 5731   5.131   4.127   8.801  1.2511 -0.8821  1.3939
   44CHL1  H26C 5732   5.293   4.113   8.720 -0.0666  0.0515  0.1384
   44CHL1   C27 5733   5.248   3.875   8.601  0.2509  0.4029 -0.7149
   44CHL1  H27A 5734   5.228   3.913   8.499 -0.9223  0.0581 -0.6326
   44CHL1  H27B 5735   5.358   3.873   8.613  0.3800  0.0748 -1.8623
   44CHL1  H27C 5736   5.224   3.766   8.599 -0.0412  0.4556 -0.3662
   45CHL1    C3 5737   0.121   1.392  10.215  0.9557  0.2577 -0.4045
   45CHL1    H3 5738   0.185   1.482  10.199  1.4346 -0.0306 -0.1099
   45CHL1    O3 5739   0.089   1.394  10.353 -0.3785 -0.1008 -0.1021
   45CHL1   H3' 5740   0.024   1.324  10.361 -1.4716  0.6058 -2.0051
   45CHL1    C4 5741  -0.009   1.420  10.140 -0.2307  0.9687 -0.5763
   45CHL1   H4A 5742  -0.085   1.343  10.166  2.0357 -1.0383  0.3720
   45CHL1   H4B 5743  -0.044   1.521  10.171  1.2002  0.7492  1.9991
   45CHL1    C5 5744   0.030   1.418   9.990 -0.8369 -0.4700  0.6750
   45CHL1    C6 5745   0.008   1.525   9.907  0.4241 -0.2726  0.3492
   45CHL1    H6 5746  -0.039   1.607   9.962 -2.3703 -2.5800  1.6387
   45CHL1    C7 5747   0.030   1.536   9.756  0.2039 -0.4028  0.0407
   45CHL1   H7A 5748  -0.061   1.588   9.719 -0.2746 -0.5587  0.9710
   45CHL1   H7B 5749   0.118   1.600   9.731 -1.1961  1.0589 -1.3912
   45CHL1    C8 5750   0.060   1.398   9.691 -0.2461  0.3169 -0.0818
   45CHL1    H8 5751   0.140   1.415   9.616  2.0447 -0.1946  2.1376
   45CHL1   C14 5752  -0.058   1.324   9.626  0.3578  1.1032  0.4632
   45CHL1   H14 5753  -0.137   1.311   9.703 -0.0078 -1.1203 -0.2222
   45CHL1   C15 5754  -0.124   1.408   9.518 -0.1723 -0.5844 -0.4678
   45CHL1  H15A 5755  -0.235   1.410   9.524 -0.0924  1.0709  1.7209
   45CHL1  H15B 5756  -0.085   1.511   9.526  0.1352 -0.4669 -2.7847
   45CHL1   C16 5757  -0.080   1.347   9.383 -0.2008  0.6673  0.1553
   45CHL1  H16A 5758  -0.170   1.303   9.334 -0.6124 -0.6610  2.0079
   45CHL1  H16B 5759  -0.043   1.426   9.313  0.1279  0.1007 -0.3200
   45CHL1   C17 5760   0.020   1.230   9.424 -0.6133  0.2483  0.5014
   45CHL1   H17 5761   0.116   1.284   9.435  0.9516 -1.2288 -3.9435
   45CHL1   C13 5762  -0.026   1.187   9.562  0.1157  1.0679  0.4345
   45CHL1   C18 5763  -0.161   1.115   9.556  0.0640  0.4918  0.4403
   45CHL1  H18A 5764  -0.229   1.168   9.486 -0.0238 -1.7182 -1.2240
   45CHL1  H18B 5765  -0.140   1.018   9.507 -2.0263  0.4673 -0.5245
   45CHL1  H18C 5766  -0.198   1.089   9.658  1.1805 -1.9271  0.2798
   45CHL1   C12 5767   0.072   1.095   9.638  0.2316  0.4589 -0.2172
   45CHL1  H12A 5768   0.007   1.043   9.712  0.8024 -0.7425 -0.5325
   45CHL1  H12B 5769   0.112   1.015   9.572 -0.4402  0.8503 -1.1126
   45CHL1   C11 5770   0.182   1.172   9.711 -0.5277 -0.2156 -0.2038
   45CHL1  H11A 5771   0.231   1.110   9.789 -0.4537  0.2853  0.1505
   45CHL1  H11B 5772   0.251   1.184   9.625 -0.6128 -3.1856 -0.7837
   45CHL1    C9 5773   0.142   1.301   9.785  0.0223  1.0324  0.0385
   45CHL1    H9 5774   0.234   1.359   9.806  1.0703 -0.2104 -0.9771
   45CHL1   C10 5775   0.097   1.289   9.932 -0.3653 -0.3657  0.5938
   45CHL1   C19 5776   0.000   1.179   9.964 -0.3657 -0.2653 -0.1732
   45CHL1  H19A 5777  -0.082   1.185   9.890  1.2832 -0.3726 -2.1016
   45CHL1  H19B 5778   0.049   1.081   9.945  1.8598  1.0583 -1.7699
   45CHL1  H19C 5779  -0.052   1.193  10.061 -2.8503  0.9596 -1.5831
   45CHL1    C1 5780   0.222   1.269  10.019 -0.2451  0.2577 -0.2400
   45CHL1   H1A 5781   0.274   1.172  10.002 -0.7165  0.0542 -0.5432
   45CHL1   H1B 5782   0.307   1.341  10.017  0.8539 -0.8987  1.5589
   45CHL1    C2 5783   0.187   1.264  10.167  1.5806  0.0248  0.1233
   45CHL1   H2A 5784   0.282   1.256  10.224  2.0340 -1.0668 -0.7384
   45CHL1   H2B 5785   0.129   1.176  10.203  0.7665  0.6386  0.3292
   45CHL1   C20 5786   0.023   1.121   9.317 -0.3198 -0.2422  0.1446
   45CHL1   H20 5787   0.054   1.023   9.359  0.2567  0.2141  0.8212
   45CHL1   C21 5788   0.120   1.180   9.212 -0.0072  0.1984 -0.2898
   45CHL1  H21A 5789   0.126   1.134   9.111  3.7312  2.3108 -1.1757
   45CHL1  H21B 5790   0.227   1.193   9.238  0.4484  0.7397 -2.2879
   45CHL1  H21C 5791   0.090   1.282   9.182 -1.8085 -0.5185 -1.0732
   45CHL1   C22 5792  -0.103   1.084   9.246  0.4449  0.5248 -0.3074
   45CHL1  H22A 5793  -0.191   1.072   9.313  0.3431 -1.0235 -0.6845
   45CHL1  H22B 5794  -0.137   1.153   9.166 -1.4674 -1.3630 -1.2453
   45CHL1   C23 5795  -0.093   0.945   9.169 -0.2698 -0.6453 -0.3122
   45CHL1  H23A 5796  -0.018   0.969   9.091 -0.4216  2.7418  0.4437
   45CHL1  H23B 5797  -0.057   0.866   9.239  2.4985  0.1804 -0.6837
   45CHL1   C24 5798  -0.225   0.909   9.090  0.1276 -0.6509 -0.3784
   45CHL1  H24A 5799  -0.305   0.893   9.165  0.0715  0.5821 -0.1510
   45CHL1  H24B 5800  -0.253   1.003   9.039  1.8129 -0.7657 -1.5926
   45CHL1   C25 5801  -0.212   0.782   9.002 -0.1444 -0.2894  0.3746
   45CHL1   H25 5802  -0.175   0.697   9.064 -1.0171 -1.0182 -0.0879
   45CHL1   C26 5803  -0.355   0.748   8.932  0.3020  0.2643 -0.3023
   45CHL1  H26A 5804  -0.415   0.720   9.021 -0.9043 -1.7878 -1.6735
   45CHL1  H26B 5805  -0.403   0.839   8.892 -1.4441 -0.4748  0.0222
   45CHL1  H26C 5806  -0.352   0.671   8.852  0.7764  1.5916 -1.6108
   45CHL1   C27 5807  -0.119   0.817   8.887 -0.9686  0.1680  0.3978
   45CHL1  H27A 5808  -0.129   0.725   8.827  0.8727  0.8156 -1.0151
   45CHL1  H27B 5809  -0.157   0.899   8.822  1.1691 -0.7721 -2.2137
   45CHL1  H27C 5810  -0.016   0.832   8.927 -0.5782  0.3795 -0.6672
   46CHL1    C3 5811   3.149   5.766  10.171 -0.5596  0.0352  0.0581
   46CHL1    H3 5812   3.041   5.763  10.144 -0.0397 -2.8815 -2.2102
   46CHL1    O3 5813   3.163   5.764  10.309 -0.3485 -0.5114 -0.1627
   46CHL1   H3' 5814   3.084   5.804  10.348  0.0869 -0.9389  1.2306
   46CHL1    C4 5815   3.231   5.648  10.108  0.4873 -0.1259  0.2772
   46CHL1   H4A 5816   3.331   5.657  10.154  2.5042  1.1555 -3.8573
   46CHL1   H4B 5817   3.191   5.557  10.158 -0.3649 -0.0671 -0.2655
   46CHL1    C5 5818   3.258   5.646   9.961  0.1990  0.8957 -0.5975
   46CHL1    C6 5819   3.223   5.540   9.891 -0.4906  0.4260 -0.4691
   46CHL1    H6 5820   3.199   5.443   9.935 -1.5440  0.2962 -1.2983
   46CHL1    C7 5821   3.230   5.532   9.742  0.2914  0.3580 -0.5283
   46CHL1   H7A 5822   3.279   5.437   9.711 -0.0400 -0.1005  0.3287
   46CHL1   H7B 5823   3.130   5.526   9.694  0.0618 -1.5495  0.1438
   46CHL1    C8 5824   3.303   5.655   9.676 -0.1811 -0.1521  0.5876
   46CHL1    H8 5825   3.408   5.641   9.709 -0.9832  1.5341  4.3558
   46CHL1   C14 5826   3.286   5.651   9.530 -0.3051 -0.5914 -0.5226
   46CHL1   H14 5827   3.175   5.654   9.520 -0.1489  2.2717 -2.6694
   46CHL1   C15 5828   3.328   5.518   9.460  0.6925 -0.3811  0.1444
   46CHL1  H15A 5829   3.434   5.498   9.487  0.6559 -1.4531 -0.4525
   46CHL1  H15B 5830   3.254   5.436   9.475 -0.1760  0.2578 -0.5142
   46CHL1   C16 5831   3.310   5.566   9.316  0.1204  0.3706  0.2974
   46CHL1  H16A 5832   3.395   5.522   9.259  0.3239  0.5957  0.4248
   46CHL1  H16B 5833   3.221   5.521   9.266 -2.1667  1.8970  2.7122
   46CHL1   C17 5834   3.300   5.719   9.315  0.2694 -0.1513  0.2061
   46CHL1   H17 5835   3.192   5.742   9.302 -0.4284 -2.6172  1.0422
   46CHL1   C13 5836   3.338   5.766   9.449  0.2951  0.2169 -0.9553
   46CHL1   C18 5837   3.494   5.763   9.458 -0.3988 -0.2967  0.2800
   46CHL1  H18A 5838   3.536   5.683   9.393 -2.9976 -1.5497  0.0416
   46CHL1  H18B 5839   3.538   5.860   9.426  1.5532 -1.2577 -0.1518
   46CHL1  H18C 5840   3.527   5.757   9.564 -0.0342  1.2535  0.2828
   46CHL1   C12 5841   3.279   5.895   9.517  0.9648  0.1476  0.0553
   46CHL1  H12A 5842   3.323   5.983   9.464 -1.1405  1.5283  0.5011
   46CHL1  H12B 5843   3.170   5.892   9.497  0.9876  1.1643 -0.3419
   46CHL1   C11 5844   3.301   5.919   9.667 -0.7662 -0.0038  0.3242
   46CHL1  H11A 5845   3.411   5.932   9.677 -0.7612 -0.1202  0.4251
   46CHL1  H11B 5846   3.245   6.008   9.704  0.3735  0.7082  0.3644
   46CHL1    C9 5847   3.255   5.785   9.738 -0.4475 -0.0912 -0.3197
   46CHL1    H9 5848   3.144   5.790   9.733 -0.4595 -0.1534 -0.1248
   46CHL1   C10 5849   3.289   5.781   9.895 -0.6534 -0.1724  0.1001
   46CHL1   C19 5850   3.440   5.800   9.925  0.2292  0.7877 -0.3762
   46CHL1  H19A 5851   3.507   5.730   9.872 -1.3749 -1.4271  0.3567
   46CHL1  H19B 5852   3.463   5.907   9.907  0.5893  1.3480  2.7314
   46CHL1  H19C 5853   3.470   5.791  10.032 -0.5740 -3.5493 -0.3462
   46CHL1    C1 5854   3.210   5.892   9.970  0.5061 -0.1751  0.2256
   46CHL1   H1A 5855   3.241   5.992   9.933 -0.1118  0.4521  1.3400
   46CHL1   H1B 5856   3.105   5.884   9.934 -0.2558  1.7398  1.8011
   46CHL1    C2 5857   3.214   5.897  10.127 -0.5298 -0.0610 -0.2435
   46CHL1   H2A 5858   3.151   5.976  10.172 -0.1393 -1.1104  2.2789
   46CHL1   H2B 5859   3.317   5.915  10.165 -1.2582  2.5594  0.6587
   46CHL1   C20 5860   3.365   5.788   9.190  0.1792 -0.2350 -0.3079
   46CHL1   H20 5861   3.474   5.805   9.201  0.0377  0.1864  0.5514
   46CHL1   C21 5862   3.317   5.937   9.187  0.5439  0.3584  0.4438
   46CHL1  H21A 5863   3.356   5.990   9.277 -2.5833 -0.9851  2.8093
   46CHL1  H21B 5864   3.207   5.953   9.192  0.4896  0.1897 -0.1094
   46CHL1  H21C 5865   3.346   5.994   9.096  0.6555 -2.2571 -1.2674
   46CHL1   C22 5866   3.333   5.722   9.052 -0.3189  0.0482  1.2054
   46CHL1  H22A 5867   3.342   5.611   9.057 -0.6229 -0.1728 -1.6187
   46CHL1  H22B 5868   3.235   5.760   9.017  0.6782  0.5535 -1.2229
   46CHL1   C23 5869   3.426   5.768   8.935  0.0668  0.1117 -0.8265
   46CHL1  H23A 5870   3.440   5.878   8.942 -0.1351  0.1031 -0.2544
   46CHL1  H23B 5871   3.530   5.729   8.943  0.1374  0.2707 -0.9645
   46CHL1   C24 5872   3.369   5.719   8.801  0.0495  0.2731 -0.1880
   46CHL1  H24A 5873   3.361   5.608   8.798 -0.5121  0.3242 -2.9560
   46CHL1  H24B 5874   3.261   5.739   8.785  0.3795  1.7870 -0.6501
   46CHL1   C25 5875   3.441   5.774   8.674  0.1102 -0.4891  0.8721
   46CHL1   H25 5876   3.550   5.756   8.676 -0.1672 -2.3871  3.3659
   46CHL1   C26 5877   3.397   5.711   8.541  1.5890 -0.2504  0.7100
   46CHL1  H26A 5878   3.287   5.723   8.530  1.8165  0.2953 -1.5755
   46CHL1  H26B 5879   3.433   5.774   8.457 -1.6501 -0.1424 -0.7552
   46CHL1  H26C 5880   3.431   5.607   8.518  0.7041  0.0898 -2.7474
   46CHL1   C27 5881   3.426   5.929   8.671  0.1875  0.3100  0.4906
   46CHL1  H27A 5882   3.317   5.941   8.652  0.3161 -0.8157 -1.1897
   46CHL1  H27B 5883   3.459   5.981   8.763 -1.5926  0.7658  0.9146
   46CHL1  H27C 5884   3.475   5.979   8.584 -3.1411 -0.3784 -1.9765
   47CHL1    C3 5885   2.428   2.869  10.071  0.3831 -0.9823  0.4916
   47CHL1    H3 5886   2.402   2.765  10.041 -0.8411 -0.4241 -0.4580
   47CHL1    O3 5887   2.442   2.863  10.211 -0.0603 -0.6172  0.5463
   47CHL1   H3' 5888   2.405   2.942  10.251 -0.5098 -1.1701  1.2664
   47CHL1    C4 5889   2.554   2.909   9.990 -0.0841 -0.4206  0.2052
   47CHL1   H4A 5890   2.588   3.013  10.010  0.2890 -0.5382  0.1704
   47CHL1   H4B 5891   2.633   2.834  10.010  1.1633  0.5001 -1.0603
   47CHL1    C5 5892   2.516   2.905   9.841  0.4560  0.3809 -0.3442
   47CHL1    C6 5893   2.591   2.836   9.755  0.8545  0.5030  0.1068
   47CHL1    H6 5894   2.668   2.765   9.790  0.9391  0.5959  0.1100
   47CHL1    C7 5895   2.558   2.824   9.603 -0.3123 -0.5893 -0.5984
   47CHL1   H7A 5896   2.655   2.827   9.549 -0.6415 -0.1588 -1.1801
   47CHL1   H7B 5897   2.507   2.731   9.571 -1.2221  0.3225 -1.9127
   47CHL1    C8 5898   2.474   2.947   9.561 -0.7339  0.3170 -0.3656
   47CHL1    H8 5899   2.542   3.035   9.565 -1.3914  0.8123  0.2118
   47CHL1   C14 5900   2.436   2.938   9.414  0.2740 -0.4333  0.0131
   47CHL1   H14 5901   2.368   2.850   9.412 -0.5045  0.1602 -1.8797
   47CHL1   C15 5902   2.544   2.913   9.310  0.7372 -0.3856 -0.1744
   47CHL1  H15A 5903   2.625   2.985   9.336  1.8512 -1.1300 -1.4266
   47CHL1  H15B 5904   2.587   2.810   9.310 -1.1624 -1.2209 -0.8169
   47CHL1   C16 5905   2.477   2.943   9.175 -0.8026 -0.6683  0.1646
   47CHL1  H16A 5906   2.536   3.018   9.118 -1.7311  0.2237  0.3415
   47CHL1  H16B 5907   2.447   2.857   9.111 -1.2299 -0.5712  0.2317
   47CHL1   C17 5908   2.341   3.019   9.210 -0.3009 -0.8422 -0.1582
   47CHL1   H17 5909   2.261   2.942   9.199  0.8932 -2.4601  1.8094
   47CHL1   C13 5910   2.358   3.063   9.364  0.3976  1.0322  0.0829
   47CHL1   C18 5911   2.440   3.191   9.373  0.2212  0.9342 -0.4383
   47CHL1  H18A 5912   2.473   3.210   9.477  0.0315 -1.9565  0.2336
   47CHL1  H18B 5913   2.531   3.182   9.310 -0.2233  0.2604 -0.9955
   47CHL1  H18C 5914   2.390   3.281   9.332 -0.4489 -0.1164 -2.0523
   47CHL1   C12 5915   2.232   3.070   9.447 -0.0813 -0.5526 -0.1621
   47CHL1  H12A 5916   2.184   3.168   9.427  0.1735 -0.6249 -1.2367
   47CHL1  H12B 5917   2.177   2.977   9.423  0.4727 -1.1162  0.6830
   47CHL1   C11 5918   2.253   3.084   9.589 -0.4380  0.5422 -0.3417
   47CHL1  H11A 5919   2.301   3.182   9.606  2.9504 -1.0786  0.4750
   47CHL1  H11B 5920   2.162   3.084   9.652  0.6605  0.8000  1.3195
   47CHL1    C9 5921   2.348   2.967   9.645  0.4097 -0.7260 -0.1140
   47CHL1    H9 5922   2.286   2.875   9.650  0.5149 -0.8815 -1.3107
   47CHL1   C10 5923   2.395   2.990   9.793 -0.0038  0.5087 -0.5953
   47CHL1   C19 5924   2.445   3.132   9.803  0.1474 -0.1686 -0.4011
   47CHL1  H19A 5925   2.526   3.168   9.735 -0.0840  2.7792  0.7265
   47CHL1  H19B 5926   2.358   3.199   9.787 -1.2678 -1.4257  1.5719
   47CHL1  H19C 5927   2.464   3.152   9.911  1.3028  0.0882 -0.6428
   47CHL1    C1 5928   2.271   2.958   9.889  0.2093 -0.2233 -0.2741
   47CHL1   H1A 5929   2.197   3.037   9.867  0.5336  0.1860  0.0991
   47CHL1   H1B 5930   2.236   2.858   9.854  0.9918  0.0661 -2.0150
   47CHL1    C2 5931   2.308   2.958  10.040 -0.2012  0.3006 -0.4294
   47CHL1   H2A 5932   2.214   2.928  10.091  0.0495 -0.8448 -0.6131
   47CHL1   H2B 5933   2.321   3.062  10.078  2.1516 -0.5052  1.1739
   47CHL1   C20 5934   2.306   3.129   9.109 -0.0333 -0.1783 -0.4296
   47CHL1   H20 5935   2.373   3.214   9.132 -0.7074  0.0721  0.6787
   47CHL1   C21 5936   2.164   3.172   9.144  0.5842 -0.4155 -0.3953
   47CHL1  H21A 5937   2.168   3.244   9.228  3.1448  0.0318 -0.8071
   47CHL1  H21B 5938   2.092   3.093   9.176  1.4168 -0.0039  2.8857
   47CHL1  H21C 5939   2.113   3.231   9.065  1.2832 -0.1921 -0.6920
   47CHL1   C22 5940   2.316   3.083   8.962  0.0304 -0.0664  0.2185
   47CHL1  H22A 5941   2.317   2.973   8.950 -0.9442  0.1077 -1.7756
   47CHL1  H22B 5942   2.223   3.115   8.911 -0.8986 -2.5018  0.2377
   47CHL1   C23 5943   2.442   3.142   8.898  0.2881 -0.7353  0.8177
   47CHL1  H23A 5944   2.415   3.246   8.870  1.3077 -0.2272  1.6584
   47CHL1  H23B 5945   2.529   3.162   8.964  1.9042 -3.5321 -0.2455
   47CHL1   C24 5946   2.477   3.079   8.763 -0.6312  0.9637 -0.0276
   47CHL1  H24A 5947   2.389   3.091   8.697 -0.6145  0.2279 -0.1960
   47CHL1  H24B 5948   2.552   3.150   8.723  1.9919  0.6672  3.7821
   47CHL1   C25 5949   2.547   2.945   8.766  0.8797  0.0264  0.1746
   47CHL1   H25 5950   2.476   2.877   8.816  0.3391  1.3245  1.2359
   47CHL1   C26 5951   2.573   2.892   8.632 -0.8634  0.1388  1.0542
   47CHL1  H26A 5952   2.609   2.787   8.626 -1.3813  0.0352 -1.5544
   47CHL1  H26B 5953   2.651   2.942   8.570  1.3103 -0.4196  3.1737
   47CHL1  H26C 5954   2.482   2.898   8.568  1.2351 -1.2604 -2.3810
   47CHL1   C27 5955   2.671   2.943   8.858 -1.1016  0.1718 -0.3479
   47CHL1  H27A 5956   2.736   2.853   8.853  0.6117  1.3105  0.5089
   47CHL1  H27B 5957   2.739   3.018   8.812  1.1934 -1.7534 -0.2410
   47CHL1  H27C 5958   2.652   2.947   8.967  1.4408 -0.1570  0.1625
   48CHL1    C3 5959   6.129   4.147  10.158  0.7009  0.6390 -0.3726
   48CHL1    H3 5960   6.140   4.257  10.148  0.6264  0.6690 -0.1254
   48CHL1    O3 5961   6.129   4.125  10.300 -0.4117  0.0673  0.1067
   48CHL1   H3' 5962   6.054   4.178  10.328 -1.3718  0.1963 -2.4147
   48CHL1    C4 5963   5.995   4.097  10.086  0.4273  0.0396 -0.2665
   48CHL1   H4A 5964   5.990   3.986  10.089  1.6782 -0.0843 -1.4396
   48CHL1   H4B 5965   5.911   4.138  10.146 -1.4646 -0.8962 -2.1232
   48CHL1    C5 5966   5.997   4.140   9.939  0.2023  0.2109  0.6726
   48CHL1    C6 5967   5.899   4.217   9.885 -0.6072 -0.0966 -0.4289
   48CHL1    H6 5968   5.817   4.248   9.952 -0.1344 -1.6534  0.9241
   48CHL1    C7 5969   5.903   4.266   9.749 -0.5081  0.3471 -0.1943
   48CHL1   H7A 5970   5.799   4.280   9.712  0.1803  0.7510 -2.1257
   48CHL1   H7B 5971   5.939   4.371   9.748 -1.1913  0.5874 -0.0240
   48CHL1    C8 5972   5.980   4.176   9.658 -0.1419  0.5907 -0.6268
   48CHL1    H8 5973   5.933   4.075   9.660  0.1387  0.4640  0.9937
   48CHL1   C14 5974   5.985   4.232   9.524 -0.3158  0.2686  0.2074
   48CHL1   H14 5975   6.038   4.328   9.540  0.9725 -0.6965  1.9801
   48CHL1   C15 5976   5.867   4.276   9.442  0.1255  0.0744  0.0458
   48CHL1  H15A 5977   5.788   4.197   9.444  1.4312 -1.2641  1.3249
   48CHL1  H15B 5978   5.825   4.374   9.472 -0.9849 -0.2478 -0.3690
   48CHL1   C16 5979   5.921   4.293   9.292  0.4829  1.3263  0.7466
   48CHL1  H16A 5980   5.872   4.213   9.232 -1.1857  1.7798  1.4346
   48CHL1  H16B 5981   5.897   4.397   9.261 -0.4597  1.3692  1.5595
   48CHL1   C17 5982   6.072   4.259   9.299  0.1953  0.4660  0.2773
   48CHL1   H17 5983   6.113   4.355   9.335  0.9421 -0.4731  2.0320
   48CHL1   C13 5984   6.077   4.163   9.421  0.1023  1.1548  0.1074
   48CHL1   C18 5985   6.012   4.029   9.391 -0.3042  0.8091  0.7427
   48CHL1  H18A 5986   5.914   4.036   9.340 -0.3232  2.8490  0.9828
   48CHL1  H18B 5987   6.084   3.958   9.344 -1.4264 -0.8607  1.4541
   48CHL1  H18C 5988   5.984   3.975   9.484  1.2081 -0.2279  0.6362
   48CHL1   C12 5989   6.214   4.161   9.491 -0.4409 -0.2199  0.0608
   48CHL1  H12A 5990   6.291   4.121   9.422  0.1221  1.4574 -0.3175
   48CHL1  H12B 5991   6.242   4.267   9.507 -1.4282 -0.0430  0.6773
   48CHL1   C11 5992   6.225   4.095   9.627 -1.0153  0.3310  0.0072
   48CHL1  H11A 5993   6.207   3.986   9.625 -1.0226  0.3331 -0.0442
   48CHL1  H11B 5994   6.329   4.104   9.665 -1.2942  0.7257  0.7015
   48CHL1    C9 5995   6.124   4.155   9.722 -0.1264 -0.1115  0.3001
   48CHL1    H9 5996   6.156   4.260   9.737 -1.3750  0.1291  1.5694
   48CHL1   C10 5997   6.127   4.092   9.870 -0.5154 -0.0152  0.0618
   48CHL1   C19 5998   6.123   3.933   9.846 -0.0172  0.2388  0.4823
   48CHL1  H19A 5999   6.118   3.883   9.945 -1.6519 -0.7090 -0.0336
   48CHL1  H19B 6000   6.039   3.898   9.782  0.0814 -1.7980  1.3561
   48CHL1  H19C 6001   6.214   3.890   9.799 -0.1316  1.5297 -1.0141
   48CHL1    C1 6002   6.258   4.117   9.943 -0.8368 -0.0889  0.2590
   48CHL1   H1A 6003   6.328   4.044   9.895  1.6311  1.1878  1.6809
   48CHL1   H1B 6004   6.289   4.221   9.919 -1.2019 -0.0181  0.0953
   48CHL1    C2 6005   6.257   4.088  10.092 -0.1777 -0.1383 -0.3603
   48CHL1   H2A 6006   6.350   4.121  10.143  0.7570 -3.7357  0.4970
   48CHL1   H2B 6007   6.273   3.979  10.100 -0.0506 -0.2659 -2.0472
   48CHL1   C20 6008   6.130   4.227   9.162  0.2517 -1.0410 -0.6296
   48CHL1   H20 6009   6.238   4.213   9.184  0.6684  2.2878 -0.1352
   48CHL1   C21 6010   6.114   4.362   9.081 -0.2923 -0.5785  0.0893
   48CHL1  H21A 6011   6.014   4.368   9.032  0.2466  0.2188 -0.9656
   48CHL1  H21B 6012   6.201   4.373   9.013 -0.4113  2.2586  0.2900
   48CHL1  H21C 6013   6.124   4.453   9.143  0.9641 -0.7705  0.1859
   48CHL1   C22 6014   6.083   4.100   9.081  0.3017  0.1012 -0.5406
   48CHL1  H22A 6015   6.082   4.008   9.143 -0.6368  0.3678 -0.1366
   48CHL1  H22B 6016   5.983   4.124   9.039 -0.7683  0.9030  2.1937
   48CHL1   C23 6017   6.181   4.076   8.969  0.6129 -0.4709  0.2454
   48CHL1  H23A 6018   6.176   4.156   8.892  0.6580  0.4358  1.1699
   48CHL1  H23B 6019   6.285   4.066   9.006  1.1217 -0.5440 -1.1172
   48CHL1   C24 6020   6.136   3.943   8.906 -0.1858 -0.5571  0.7346
   48CHL1  H24A 6021   6.160   3.862   8.977  0.5424  0.2769  1.4532
   48CHL1  H24B 6022   6.025   3.947   8.904 -0.1983  1.8366  2.2513
   48CHL1   C25 6023   6.219   3.914   8.784  0.1621  0.5604  0.1850
   48CHL1   H25 6024   6.238   4.010   8.731 -2.8066  1.9259  1.3895
   48CHL1   C26 6025   6.353   3.850   8.807 -0.1773  0.0905  0.3872
   48CHL1  H26A 6026   6.419   3.847   8.718 -0.9647 -0.9739 -0.1804
   48CHL1  H26B 6027   6.400   3.902   8.893 -0.5365  1.8460 -0.4370
   48CHL1  H26C 6028   6.341   3.750   8.854  1.1287  1.1341  3.1761
   48CHL1   C27 6029   6.140   3.820   8.697  0.3867  0.0404 -0.2982
   48CHL1  H27A 6030   6.192   3.795   8.602 -1.4106 -0.4113 -1.1911
   48CHL1  H27B 6031   6.105   3.733   8.757  0.8809 -1.0745 -1.5669
   48CHL1  H27C 6032   6.047   3.871   8.664 -0.5390 -1.0662  0.5056
   49CHL1    C3 6033   4.639   5.004  10.117  1.0109  0.2622 -0.2202
   49CHL1    H3 6034   4.730   4.940  10.114  0.8757 -0.0244  1.0525
   49CHL1    O3 6035   4.607   5.008  10.257  0.6764 -0.2066  0.6206
   49CHL1   H3' 6036   4.511   5.010  10.269  0.7279  2.3150  1.2869
   49CHL1    C4 6037   4.674   5.147  10.059  0.3777  0.0932 -0.2848
   49CHL1   H4A 6038   4.577   5.197  10.079  0.0222 -0.0021 -1.6656
   49CHL1   H4B 6039   4.762   5.185  10.115  1.8744 -2.2033 -0.9421
   49CHL1    C5 6040   4.692   5.152   9.907  0.1023  0.2454  0.1046
   49CHL1    C6 6041   4.789   5.216   9.848  0.2656  0.3543 -0.5070
   49CHL1    H6 6042   4.862   5.272   9.908  0.8081 -0.6279 -0.2338
   49CHL1    C7 6043   4.801   5.233   9.704 -0.1167 -0.4165 -0.4210
   49CHL1   H7A 6044   4.798   5.343   9.688 -1.8168 -0.3447  0.1935
   49CHL1   H7B 6045   4.900   5.195   9.670  0.5721 -0.3739  1.4460
   49CHL1    C8 6046   4.689   5.183   9.607  0.3388  0.1711 -0.2107
   49CHL1    H8 6047   4.616   5.267   9.601  2.2699  1.9529 -0.2389
   49CHL1   C14 6048   4.736   5.150   9.470  0.0467 -0.7535 -0.4901
   49CHL1   H14 6049   4.818   5.076   9.472  0.1378 -0.6500 -0.4420
   49CHL1   C15 6050   4.806   5.264   9.398 -0.3602 -0.1846 -0.0876
   49CHL1  H15A 6051   4.744   5.356   9.402  0.0939  0.4513 -3.6366
   49CHL1  H15B 6052   4.907   5.293   9.434 -0.4902  0.4209 -0.2061
   49CHL1   C16 6053   4.803   5.218   9.248 -0.0905 -0.1260 -0.5100
   49CHL1  H16A 6054   4.768   5.306   9.190  1.3599  0.5680 -0.3948
   49CHL1  H16B 6055   4.903   5.186   9.211 -0.3427 -2.3535  0.6117
   49CHL1   C17 6056   4.701   5.094   9.240  0.3247 -0.1925 -0.3094
   49CHL1   H17 6057   4.765   5.003   9.242  1.8069  0.7198 -2.2221
   49CHL1   C13 6058   4.632   5.103   9.377 -0.1444  0.3682  0.2373
   49CHL1   C18 6059   4.514   5.205   9.359  0.1798  0.0493  0.2776
   49CHL1  H18A 6060   4.541   5.308   9.327  1.0801 -0.5029 -0.7953
   49CHL1  H18B 6061   4.432   5.164   9.297 -0.7938 -1.2377  2.2844
   49CHL1  H18C 6062   4.453   5.218   9.451  0.2473  1.1114  0.1916
   49CHL1   C12 6063   4.581   4.966   9.434 -0.0495 -0.6916  1.4500
   49CHL1  H12A 6064   4.518   4.912   9.360  1.0788  0.1923 -0.2349
   49CHL1  H12B 6065   4.671   4.901   9.447 -1.2096 -1.8996  4.3197
   49CHL1   C11 6066   4.527   4.987   9.577  0.3963  0.2617 -0.6406
   49CHL1  H11A 6067   4.431   5.043   9.575 -0.3614 -0.9167  0.7473
   49CHL1  H11B 6068   4.496   4.890   9.622 -1.3184  0.8633 -0.4559
   49CHL1    C9 6069   4.633   5.053   9.669 -0.3312  0.0188 -0.3500
   49CHL1    H9 6070   4.714   4.977   9.670 -0.5883 -0.2538  0.1695
   49CHL1   C10 6071   4.589   5.073   9.826  0.5455  0.5262 -0.2782
   49CHL1   C19 6072   4.460   5.157   9.816 -0.9223  0.5050  0.6147
   49CHL1  H19A 6073   4.384   5.124   9.743 -0.5061 -1.6575  1.1037
   49CHL1  H19B 6074   4.413   5.157   9.917  2.3047  2.0145  2.3001
   49CHL1  H19C 6075   4.486   5.263   9.795  0.1503  0.4960  1.7487
   49CHL1    C1 6076   4.547   4.939   9.892 -0.8243 -0.3928 -0.1334
   49CHL1   H1A 6077   4.444   4.910   9.864 -0.5205 -2.5225  0.7844
   49CHL1   H1B 6078   4.619   4.857   9.872 -0.5693 -0.5965  1.4461
   49CHL1    C2 6079   4.517   4.946  10.048 -0.3414  0.0629  0.0479
   49CHL1   H2A 6080   4.499   4.839  10.074  1.2396 -0.2787 -0.1525
   49CHL1   H2B 6081   4.428   5.012  10.060 -0.3823  0.2277 -1.0871
   49CHL1   C20 6082   4.626   5.087   9.102  0.2065  0.5692 -0.3051
   49CHL1   H20 6083   4.555   5.173   9.106 -0.2714  0.1234  1.0742
   49CHL1   C21 6084   4.539   4.958   9.091  0.1749 -0.1673 -0.2142
   49CHL1  H21A 6085   4.609   4.873   9.091 -2.0957 -2.1405 -0.2989
   49CHL1  H21B 6086   4.483   4.969   8.995  1.7755 -0.2170 -1.1808
   49CHL1  H21C 6087   4.471   4.948   9.178  1.0998  2.2862  0.8825
   49CHL1   C22 6088   4.710   5.123   8.977 -0.6320  0.2242  0.3890
   49CHL1  H22A 6089   4.792   5.197   8.993 -0.1925  0.1819 -1.4157
   49CHL1  H22B 6090   4.761   5.028   8.951  0.7867  0.7194  1.2096
   49CHL1   C23 6091   4.639   5.191   8.858  0.1993 -0.5272  0.4267
   49CHL1  H23A 6092   4.534   5.156   8.856 -0.1704  0.2489  2.8142
   49CHL1  H23B 6093   4.641   5.296   8.896 -3.6486 -0.4097  0.6935
   49CHL1   C24 6094   4.714   5.190   8.719  0.7989  0.5594 -0.4704
   49CHL1  H24A 6095   4.821   5.201   8.747  0.5562  1.0931  0.3021
   49CHL1  H24B 6096   4.694   5.096   8.664  1.0437  0.0878  0.2355
   49CHL1   C25 6097   4.671   5.309   8.631 -0.2561 -0.1756  0.3621
   49CHL1   H25 6098   4.694   5.401   8.690 -1.9812 -0.0111  0.8513
   49CHL1   C26 6099   4.752   5.315   8.502  0.0774 -0.3940 -0.1055
   49CHL1  H26A 6100   4.729   5.411   8.451  0.1602  0.1021  0.7679
   49CHL1  H26B 6101   4.860   5.335   8.520  0.3666  1.4793 -3.1360
   49CHL1  H26C 6102   4.745   5.214   8.456  1.9321 -1.6620  2.1814
   49CHL1   C27 6103   4.522   5.302   8.615  0.0707  0.1998  0.3808
   49CHL1  H27A 6104   4.459   5.324   8.704  0.6417 -0.7395  1.0354
   49CHL1  H27B 6105   4.487   5.370   8.534  1.9731 -0.3580 -0.9760
   49CHL1  H27C 6106   4.499   5.199   8.580  0.4831 -0.3811  1.7449
   50CHL1    C3 6107   0.239   5.666  10.105  1.1475 -0.5287 -0.2665
   50CHL1    H3 6108   0.340   5.622  10.100  0.9633 -0.8983 -0.7331
   50CHL1    O3 6109   0.191   5.655  10.241 -0.2485 -0.3898 -0.0330
   50CHL1   H3' 6110   0.095   5.655  10.241 -0.2627 -1.3272  0.0525
   50CHL1    C4 6111   0.247   5.816  10.073  0.0283  0.3380  0.1638
   50CHL1   H4A 6112   0.146   5.847  10.110 -1.4443 -1.7925 -1.7491
   50CHL1   H4B 6113   0.335   5.862  10.121 -0.0336 -1.0385  1.6844
   50CHL1    C5 6114   0.259   5.850   9.928 -0.4401 -0.2354 -0.1360
   50CHL1    C6 6115   0.344   5.946   9.892 -0.3757  0.5897  0.2968
   50CHL1    H6 6116   0.402   5.986   9.976 -1.6017  3.1931  0.0210
   50CHL1    C7 6117   0.369   5.994   9.749 -0.0293 -0.4247 -0.0300
   50CHL1   H7A 6118   0.374   6.105   9.747 -1.9706 -0.2893 -0.0963
   50CHL1   H7B 6119   0.469   5.961   9.715 -0.0757  0.4059 -1.0120
   50CHL1    C8 6120   0.259   5.959   9.661  0.2054  0.4327  0.3048
   50CHL1    H8 6121   0.169   6.020   9.681  1.0465  1.7296  0.2022
   50CHL1   C14 6122   0.304   5.981   9.515  0.1189 -0.0220  1.2588
   50CHL1   H14 6123   0.380   5.905   9.487 -0.1984  0.7661 -2.2198
   50CHL1   C15 6124   0.377   6.106   9.468  0.2613 -0.2401  0.0632
   50CHL1  H15A 6125   0.326   6.197   9.505  0.8326  1.6067 -3.3367
   50CHL1  H15B 6126   0.485   6.105   9.496  0.6317 -0.4285 -1.2806
   50CHL1   C16 6127   0.356   6.095   9.311 -0.0899  0.3629  0.5394
   50CHL1  H16A 6128   0.316   6.194   9.282  2.2178  1.2791  0.2063
   50CHL1  H16B 6129   0.445   6.075   9.247 -0.8056 -1.1703 -0.0221
   50CHL1   C17 6130   0.272   5.971   9.281 -0.2769 -0.3602  0.0870
   50CHL1   H17 6131   0.339   5.882   9.277  0.9100  0.5004  0.2554
   50CHL1   C13 6132   0.194   5.946   9.410  0.3472 -0.6979  0.3878
   50CHL1   C18 6133   0.085   6.048   9.421  0.0044  0.7614  0.3569
   50CHL1  H18A 6134   0.122   6.151   9.402  0.7104  0.3014 -0.9107
   50CHL1  H18B 6135   0.009   6.020   9.345  2.2839 -1.0825 -1.4219
   50CHL1  H18C 6136   0.035   6.041   9.520 -0.2957 -0.2262  0.1504
   50CHL1   C12 6137   0.150   5.801   9.427  0.3184  0.8358 -0.2285
   50CHL1  H12A 6138   0.071   5.781   9.351  0.7384  0.3118 -0.5377
   50CHL1  H12B 6139   0.231   5.729   9.404 -0.2499 -0.9756  2.8324
   50CHL1   C11 6140   0.111   5.764   9.574 -0.3439  0.3585 -0.2048
   50CHL1  H11A 6141   0.011   5.808   9.596 -0.1418 -0.3839  2.5350
   50CHL1  H11B 6142   0.096   5.654   9.576  0.4271  0.1640  4.1403
   50CHL1    C9 6143   0.210   5.816   9.684  0.0961 -0.0744 -0.1155
   50CHL1    H9 6144   0.310   5.768   9.676  0.3701  0.5337 -0.3425
   50CHL1   C10 6145   0.163   5.782   9.831  0.3027 -0.1968 -0.4433
   50CHL1   C19 6146   0.019   5.831   9.858 -0.1963 -0.0411  0.8124
   50CHL1  H19A 6147   0.023   5.938   9.828  0.2406 -0.2303  0.1720
   50CHL1  H19B 6148  -0.055   5.781   9.792 -0.7902  2.7420 -0.7843
   50CHL1  H19C 6149  -0.026   5.824   9.960 -1.6829 -0.7314  0.1380
   50CHL1    C1 6150   0.163   5.626   9.854  0.4309  0.0008  0.0118
   50CHL1   H1A 6151   0.074   5.578   9.807 -0.5699 -1.1167  2.8328
   50CHL1   H1B 6152   0.264   5.598   9.818  0.5428 -0.1827  0.4627
   50CHL1    C2 6153   0.144   5.589  10.006  0.2807 -0.8362 -0.0098
   50CHL1   H2A 6154   0.161   5.479  10.017  2.4510 -0.6961 -1.4134
   50CHL1   H2B 6155   0.044   5.625  10.040  0.3920 -1.5930  1.2046
   50CHL1   C20 6156   0.189   5.970   9.155 -0.0160 -0.5007 -0.2154
   50CHL1   H20 6157   0.101   5.903   9.161  1.3003 -2.2758  0.1583
   50CHL1   C21 6158   0.272   5.908   9.036  1.0810 -0.4303 -0.4958
   50CHL1  H21A 6159   0.215   5.916   8.941 -0.2808 -0.9876  0.2440
   50CHL1  H21B 6160   0.295   5.801   9.056 -0.2080 -0.5324  0.5509
   50CHL1  H21C 6161   0.368   5.963   9.022  0.7607  0.4632  0.6372
   50CHL1   C22 6162   0.125   6.112   9.111 -0.0066 -0.5081 -0.5393
   50CHL1  H22A 6163   0.083   6.165   9.199  1.7579  0.6821 -0.3598
   50CHL1  H22B 6164   0.198   6.179   9.061 -0.4283 -0.3037 -0.8851
   50CHL1   C23 6165   0.014   6.110   9.003  0.4601 -0.1028  0.0528
   50CHL1  H23A 6166  -0.022   6.211   8.971 -1.9872 -1.7105 -2.7289
   50CHL1  H23B 6167   0.056   6.062   8.913  2.0081  1.2059  0.0189
   50CHL1   C24 6168  -0.111   6.036   9.059 -0.4205  0.1214  0.4892
   50CHL1  H24A 6169  -0.106   5.925   9.063  0.1612  0.1350  0.2479
   50CHL1  H24B 6170  -0.124   6.068   9.164 -1.5569 -1.5769  0.9220
   50CHL1   C25 6171  -0.243   6.076   8.992 -0.1144  0.3971 -0.0566
   50CHL1   H25 6172  -0.260   6.185   8.993 -0.5187  0.3318  0.5189
   50CHL1   C26 6173  -0.241   6.021   8.852  0.3541  0.7133  0.2916
   50CHL1  H26A 6174  -0.146   6.058   8.806  0.8125  0.8598  1.3154
   50CHL1  H26B 6175  -0.231   5.910   8.855  0.6794  0.7169 -0.3068
   50CHL1  H26C 6176  -0.327   6.048   8.787  1.8632  3.1885 -0.8294
   50CHL1   C27 6177  -0.359   6.018   9.068 -0.8858 -0.4391  0.5677
   50CHL1  H27A 6178  -0.348   5.908   9.067  0.5940 -0.3123  0.4153
   50CHL1  H27B 6179  -0.344   6.043   9.175 -2.0158 -2.1084  1.1479
   50CHL1  H27C 6180  -0.454   6.057   9.024  0.8119  1.2527 -1.8322
   51CHL1    C3 6181   0.683   1.985  10.133 -0.0240  0.0606 -0.0319
   51CHL1    H3 6182   0.642   1.886  10.104 -1.6819  0.9410 -0.8207
   51CHL1    O3 6183   0.683   1.982  10.273  0.1152 -0.1403 -0.5066
   51CHL1   H3' 6184   0.715   1.892  10.287  1.2165 -0.1905 -2.7363
   51CHL1    C4 6185   0.825   1.990  10.072 -0.3199 -0.2633 -0.1374
   51CHL1   H4A 6186   0.865   2.078  10.127 -0.5134  0.5484 -1.2456
   51CHL1   H4B 6187   0.863   1.892  10.107 -1.6787 -0.6425  0.3488
   51CHL1    C5 6188   0.817   2.004   9.916  0.0591  0.0358  0.0443
   51CHL1    C6 6189   0.889   1.920   9.838 -0.1361  0.1104  0.7408
   51CHL1    H6 6190   0.953   1.844   9.886  0.1730 -0.7064 -0.9145
   51CHL1    C7 6191   0.885   1.924   9.686  0.3617 -0.1629  0.4751
   51CHL1   H7A 6192   0.990   1.927   9.650  2.1243 -1.2434  4.9190
   51CHL1   H7B 6193   0.820   1.843   9.648 -1.0416  0.4316  1.5108
   51CHL1    C8 6194   0.813   2.053   9.635  0.2678  0.6142  0.9450
   51CHL1    H8 6195   0.885   2.136   9.648 -1.5548  2.1948  1.5721
   51CHL1   C14 6196   0.783   2.030   9.489 -0.5287  0.0236  0.1433
   51CHL1   H14 6197   0.717   1.941   9.485  1.4926 -1.5707  0.7313
   51CHL1   C15 6198   0.901   1.990   9.394  0.7025 -0.1966 -0.2636
   51CHL1  H15A 6199   0.995   2.047   9.409  0.4203  0.7084 -1.6761
   51CHL1  H15B 6200   0.926   1.883   9.410 -0.1194 -0.1302  1.7048
   51CHL1   C16 6201   0.840   2.030   9.264 -0.0856  0.2164 -0.1188
   51CHL1  H16A 6202   0.895   2.114   9.215 -0.7138  1.4575  1.2329
   51CHL1  H16B 6203   0.842   1.945   9.192  1.8901 -0.1399  0.2863
   51CHL1   C17 6204   0.694   2.075   9.282 -0.2786  0.2836 -0.0469
   51CHL1   H17 6205   0.626   1.986   9.283 -2.3528  1.7663 -1.2053
   51CHL1   C13 6206   0.697   2.136   9.425 -0.4200  0.1998  0.2447
   51CHL1   C18 6207   0.776   2.271   9.426 -0.0122 -0.1051  0.1882
   51CHL1  H18A 6208   0.743   2.343   9.347  0.9300 -0.2173 -0.3240
   51CHL1  H18B 6209   0.775   2.331   9.519 -2.6397  1.0629 -0.4649
   51CHL1  H18C 6210   0.879   2.252   9.390 -0.4097  1.1483 -1.7938
   51CHL1   C12 6211   0.568   2.150   9.498  0.2044 -0.3507  0.5579
   51CHL1  H12A 6212   0.523   2.238   9.448 -0.4978 -0.4697  0.9542
   51CHL1  H12B 6213   0.500   2.066   9.471  0.6203  0.1965 -2.5091
   51CHL1   C11 6214   0.584   2.170   9.647  0.0441  1.0482 -0.8865
   51CHL1  H11A 6215   0.610   2.274   9.674  2.5201  0.1531  0.5054
   51CHL1  H11B 6216   0.487   2.141   9.691  0.9105  0.1098  0.4784
   51CHL1    C9 6217   0.685   2.071   9.712 -0.4157 -0.4003 -0.8493
   51CHL1    H9 6218   0.641   1.970   9.709  1.2533 -1.1752 -0.1252
   51CHL1   C10 6219   0.724   2.104   9.856  0.6274 -0.2389  0.2240
   51CHL1   C19 6220   0.782   2.249   9.878  0.1381  0.0137  0.3803
   51CHL1  H19A 6221   0.700   2.323   9.865 -0.0661 -0.2998 -0.1721
   51CHL1  H19B 6222   0.830   2.257   9.978  0.4026  1.6974  0.1519
   51CHL1  H19C 6223   0.848   2.275   9.792 -1.1022 -0.0554 -0.6163
   51CHL1    C1 6224   0.586   2.097   9.933  0.1795  0.2614 -0.1941
   51CHL1   H1A 6225   0.532   2.193   9.917 -0.5778 -0.2754 -0.9412
   51CHL1   H1B 6226   0.526   2.012   9.893  1.3185  0.3178 -2.1913
   51CHL1    C2 6227   0.590   2.097  10.087  0.3979 -0.0575 -0.3247
   51CHL1   H2A 6228   0.490   2.073  10.128  0.3110 -0.7955 -0.9409
   51CHL1   H2B 6229   0.629   2.194  10.127 -2.3084  0.8265  0.3716
   51CHL1   C20 6230   0.640   2.156   9.159 -0.4404 -0.2040 -0.1181
   51CHL1   H20 6231   0.683   2.259   9.161  0.8149 -0.7132  2.2840
   51CHL1   C21 6232   0.486   2.155   9.164 -0.5080 -0.3010  0.5900
   51CHL1  H21A 6233   0.437   2.207   9.079  4.0015  1.6669 -1.1241
   51CHL1  H21B 6234   0.448   2.213   9.251 -1.2363  0.2197 -0.0687
   51CHL1  H21C 6235   0.452   2.049   9.157  0.4205 -0.5036 -1.4373
   51CHL1   C22 6236   0.698   2.094   9.020 -0.2359 -1.3201 -0.4220
   51CHL1  H22A 6237   0.807   2.113   9.015 -0.3141 -0.1324  1.2918
   51CHL1  H22B 6238   0.684   1.984   9.031 -0.6284 -1.0334  3.0578
   51CHL1   C23 6239   0.630   2.138   8.895  0.2465 -0.0975  0.2367
   51CHL1  H23A 6240   0.528   2.095   8.881  0.9430 -1.5657 -0.6108
   51CHL1  H23B 6241   0.624   2.248   8.906 -1.3564  0.1484 -2.2504
   51CHL1   C24 6242   0.722   2.110   8.769  0.5541 -0.2478 -0.3660
   51CHL1  H24A 6243   0.813   2.175   8.775  1.5212 -1.5786 -0.1480
   51CHL1  H24B 6244   0.759   2.006   8.775 -2.2356 -1.2255  2.1281
   51CHL1   C25 6245   0.647   2.125   8.635 -0.6116  0.0838  1.1328
   51CHL1   H25 6246   0.560   2.057   8.644 -1.0023  0.5973  1.2589
   51CHL1   C26 6247   0.585   2.266   8.610  1.0028  0.0243 -0.7777
   51CHL1  H26A 6248   0.667   2.336   8.584 -0.0343  1.1601 -1.0627
   51CHL1  H26B 6249   0.516   2.272   8.523 -0.5856  0.7958  0.4717
   51CHL1  H26C 6250   0.528   2.307   8.696 -0.2829 -2.1108 -0.5080
   51CHL1   C27 6251   0.732   2.093   8.510 -0.3498 -0.7463  0.3729
   51CHL1  H27A 6252   0.667   2.071   8.423 -3.3251  0.5658  2.0856
   51CHL1  H27B 6253   0.794   2.179   8.477 -1.8556  0.6237  0.9896
   51CHL1  H27C 6254   0.792   2.002   8.531  1.0601 -0.1351 -0.8512
   52CHL1    C3 6255   5.603   2.208   9.910  0.2563 -0.2082  0.0704
   52CHL1    H3 6256   5.699   2.255   9.880  1.2942 -0.7381  2.3608
   52CHL1    O3 6257   5.580   2.232  10.050  0.0230 -0.4011  1.0415
   52CHL1   H3' 6258   5.578   2.144  10.088  1.2795 -0.8948  0.0515
   52CHL1    C4 6259   5.487   2.286   9.837 -0.5233  0.3683 -0.5791
   52CHL1   H4A 6260   5.395   2.237   9.874 -0.1135  1.4202  2.0926
   52CHL1   H4B 6261   5.497   2.389   9.879 -0.7832 -0.3744  1.3558
   52CHL1    C5 6262   5.505   2.266   9.680  0.3004 -0.2615 -0.1499
   52CHL1    C6 6263   5.530   2.366   9.597 -0.4686 -0.2012 -0.0671
   52CHL1    H6 6264   5.537   2.470   9.632  0.8124 -0.0010 -0.8563
   52CHL1    C7 6265   5.542   2.350   9.447 -0.2235  0.1917  0.2958
   52CHL1   H7A 6266   5.496   2.435   9.393 -0.1484 -0.4337 -0.7917
   52CHL1   H7B 6267   5.646   2.361   9.410  0.2040 -2.6412  0.4026
   52CHL1    C8 6268   5.488   2.215   9.398  0.3097  0.2367 -0.3995
   52CHL1    H8 6269   5.379   2.219   9.419  0.2882 -1.8132  0.1070
   52CHL1   C14 6270   5.529   2.190   9.254  0.8920  0.2036  0.0972
   52CHL1   H14 6271   5.639   2.182   9.261  1.0251  2.5388  2.1828
   52CHL1   C15 6272   5.485   2.291   9.143 -0.3148 -0.2691  0.6551
   52CHL1  H15A 6273   5.391   2.327   9.191 -0.4755  1.8895 -1.1082
   52CHL1  H15B 6274   5.546   2.384   9.150  0.0093 -0.4900  0.7630
   52CHL1   C16 6275   5.479   2.232   9.006  0.1878  0.0659  0.4064
   52CHL1  H16A 6276   5.382   2.248   8.956 -0.1482  0.1473  1.0723
   52CHL1  H16B 6277   5.563   2.279   8.950  0.3847 -0.6302  0.1026
   52CHL1   C17 6278   5.510   2.083   9.047 -0.2976  0.4254 -0.0490
   52CHL1   H17 6279   5.620   2.065   9.046 -0.5021 -1.0812  1.4314
   52CHL1   C13 6280   5.474   2.059   9.198  0.7398 -0.1946 -0.1235
   52CHL1   C18 6281   5.312   2.047   9.207 -0.3313  0.1696  0.1306
   52CHL1  H18A 6282   5.257   2.114   9.136  2.1082  1.4661 -0.6362
   52CHL1  H18B 6283   5.284   1.941   9.188 -2.9370  0.5992  1.0935
   52CHL1  H18C 6284   5.278   2.058   9.312  0.6632 -2.9155  0.8822
   52CHL1   C12 6285   5.546   1.951   9.278 -0.0740 -0.1997 -0.3323
   52CHL1  H12A 6286   5.506   1.852   9.246  2.7841 -1.9041  0.9414
   52CHL1  H12B 6287   5.656   1.962   9.268  0.2029 -2.2905 -0.2054
   52CHL1   C11 6288   5.514   1.963   9.434  0.4112 -0.8745  0.3288
   52CHL1  H11A 6289   5.404   1.948   9.440  0.2318  0.1976  0.0236
   52CHL1  H11B 6290   5.565   1.885   9.494 -2.6401 -1.3797  2.4562
   52CHL1    C9 6291   5.549   2.104   9.488 -0.1450  0.0752  0.0770
   52CHL1    H9 6292   5.658   2.123   9.479 -0.2350  0.7116  0.3359
   52CHL1   C10 6293   5.506   2.119   9.636  0.1108 -0.0384 -1.0452
   52CHL1   C19 6294   5.366   2.059   9.665  0.4051 -0.4683  0.3278
   52CHL1  H19A 6295   5.326   2.093   9.763  1.6356 -0.2589  0.7719
   52CHL1  H19B 6296   5.291   2.087   9.588 -0.1925 -0.6245  0.8448
   52CHL1  H19C 6297   5.379   1.950   9.681  1.0344 -0.2498  1.4258
   52CHL1    C1 6298   5.609   2.038   9.727  0.1497 -1.2719  0.1042
   52CHL1   H1A 6299   5.601   1.932   9.694 -0.5751 -0.6469 -1.8217
   52CHL1   H1B 6300   5.711   2.072   9.701  0.2677  0.7724  2.7732
   52CHL1    C2 6301   5.597   2.063   9.881 -0.2068  0.5106  0.2735
   52CHL1   H2A 6302   5.669   1.994   9.931 -1.4363 -2.1849 -1.4822
   52CHL1   H2B 6303   5.497   2.023   9.909  0.9447 -1.8574  1.2948
   52CHL1   C20 6304   5.452   1.984   8.945 -0.4765 -0.1539  0.3907
   52CHL1   H20 6305   5.345   2.010   8.962 -0.0804  0.5906  1.9099
   52CHL1   C21 6306   5.480   1.832   8.972 -0.6626 -0.1302  0.0898
   52CHL1  H21A 6307   5.590   1.814   8.978 -0.4047  0.8238 -1.2991
   52CHL1  H21B 6308   5.446   1.762   8.892 -0.2078 -1.0519  0.6851
   52CHL1  H21C 6309   5.437   1.808   9.071  0.6547 -0.1276  0.6930
   52CHL1   C22 6310   5.501   2.014   8.799 -0.8181 -0.0567 -0.2772
   52CHL1  H22A 6311   5.513   2.121   8.773 -1.6829  0.2618  0.6150
   52CHL1  H22B 6312   5.605   1.974   8.791 -0.2390  1.4425 -0.6689
   52CHL1   C23 6313   5.419   1.947   8.690  0.4206 -0.3571  0.1192
   52CHL1  H23A 6314   5.412   1.837   8.704  0.5108 -0.2472  1.0804
   52CHL1  H23B 6315   5.320   1.995   8.699 -0.7502 -1.8047 -3.1745
   52CHL1   C24 6316   5.479   1.984   8.560  0.1307  0.7845  0.6297
   52CHL1  H24A 6317   5.487   2.095   8.548 -0.5497  0.8951  1.1338
   52CHL1  H24B 6318   5.581   1.943   8.543 -0.5519 -0.3405 -0.9639
   52CHL1   C25 6319   5.393   1.934   8.438 -0.5738  0.2402  1.3477
   52CHL1   H25 6320   5.291   1.945   8.479 -0.9356  0.3651  0.4385
   52CHL1   C26 6321   5.403   2.031   8.316  0.0482  0.5774 -0.0326
   52CHL1  H26A 6322   5.500   2.015   8.265  1.0335  1.0621  1.6116
   52CHL1  H26B 6323   5.323   2.008   8.243  0.4210 -0.1438 -0.2268
   52CHL1  H26C 6324   5.393   2.132   8.361  2.7635  0.9961 -0.2273
   52CHL1   C27 6325   5.412   1.785   8.395 -0.9301 -0.3902  0.5665
   52CHL1  H27A 6326   5.516   1.760   8.364 -1.1313 -2.2359  1.2260
   52CHL1  H27B 6327   5.403   1.723   8.487 -0.4107  0.5649  1.2743
   52CHL1  H27C 6328   5.341   1.759   8.314  1.3263 -3.3134 -0.6869
   53CHL1    C3 6329   4.361   3.367  10.141  0.0847  1.1195 -0.7569
   53CHL1    H3 6330   4.289   3.301  10.089  1.8973 -0.3545 -1.4972
   53CHL1    O3 6331   4.348   3.343  10.283  0.3891 -0.4393 -0.5385
   53CHL1   H3' 6332   4.417   3.402  10.316  1.1934 -2.0237  0.7263
   53CHL1    C4 6333   4.488   3.305  10.089 -0.3428  0.2262 -0.6368
   53CHL1   H4A 6334   4.574   3.368  10.119 -1.1434  0.4840  1.2997
   53CHL1   H4B 6335   4.509   3.208  10.139 -0.8233  0.2762 -0.3258
   53CHL1    C5 6336   4.496   3.305   9.939  0.0383  0.4779  0.4547
   53CHL1    C6 6337   4.510   3.197   9.865  0.5637 -0.4429  0.5081
   53CHL1    H6 6338   4.511   3.094   9.904 -1.6268 -0.0305  1.7414
   53CHL1    C7 6339   4.525   3.205   9.716 -0.1648  0.6605  0.1189
   53CHL1   H7A 6340   4.600   3.129   9.683 -1.7201 -0.9351  0.1435
   53CHL1   H7B 6341   4.438   3.157   9.668  1.5575 -3.1508  0.4586
   53CHL1    C8 6342   4.550   3.339   9.662 -0.4222  0.7074 -0.9481
   53CHL1    H8 6343   4.655   3.373   9.677  0.6479 -2.4029 -0.6430
   53CHL1   C14 6344   4.532   3.347   9.511 -0.2421  0.8123  0.5926
   53CHL1   H14 6345   4.426   3.316   9.498  0.2358 -0.7987  0.2795
   53CHL1   C15 6346   4.598   3.250   9.415  0.0902 -0.4301 -0.8229
   53CHL1  H15A 6347   4.703   3.272   9.444 -0.2446  1.5129 -0.9548
   53CHL1  H15B 6348   4.567   3.143   9.421  0.5170 -0.5024  0.3045
   53CHL1   C16 6349   4.567   3.300   9.275 -0.4730 -0.7541  0.2420
   53CHL1  H16A 6350   4.660   3.322   9.217  0.1469 -1.4144  0.9628
   53CHL1  H16B 6351   4.497   3.236   9.218 -0.7247 -2.0446  1.9442
   53CHL1   C17 6352   4.502   3.440   9.301 -0.2063 -0.3335  0.3585
   53CHL1   H17 6353   4.393   3.418   9.293 -0.9021  2.5134  0.9100
   53CHL1   C13 6354   4.530   3.483   9.444 -0.2804 -0.4318 -0.2215
   53CHL1   C18 6355   4.672   3.544   9.449 -0.5366 -0.3598  0.3569
   53CHL1  H18A 6356   4.675   3.653   9.432 -0.5986  0.0215  2.4706
   53CHL1  H18B 6357   4.712   3.541   9.553 -1.2884  1.8022  0.7595
   53CHL1  H18C 6358   4.742   3.497   9.377 -0.0088 -1.4153  1.5109
   53CHL1   C12 6359   4.421   3.577   9.507 -0.3690  0.4439  0.2197
   53CHL1  H12A 6360   4.417   3.682   9.471 -0.5917  1.0271  1.8754
   53CHL1  H12B 6361   4.326   3.520   9.497  0.1155 -0.6372  1.5553
   53CHL1   C11 6362   4.452   3.576   9.656 -0.1768  0.4012  0.1178
   53CHL1  H11A 6363   4.547   3.634   9.664  1.7009 -2.6915  2.7276
   53CHL1  H11B 6364   4.368   3.629   9.705 -0.4095  1.2102 -1.1108
   53CHL1    C9 6365   4.462   3.438   9.727  0.2720  0.2332  0.0159
   53CHL1    H9 6366   4.363   3.389   9.712 -0.4023  1.1288  1.2912
   53CHL1   C10 6367   4.481   3.451   9.885 -0.2883 -0.2182  0.0260
   53CHL1   C19 6368   4.608   3.546   9.906  0.3556  0.7161  0.0565
   53CHL1  H19A 6369   4.586   3.648   9.868  0.8553  0.1948 -1.7425
   53CHL1  H19B 6370   4.638   3.558  10.012  0.2326  0.1015  0.1634
   53CHL1  H19C 6371   4.697   3.517   9.847  0.8863  0.9246  0.7370
   53CHL1    C1 6372   4.361   3.529   9.948  0.6180 -0.3185 -0.0155
   53CHL1   H1A 6373   4.382   3.636   9.928  1.4676 -0.2142  1.3182
   53CHL1   H1B 6374   4.270   3.500   9.891  1.3719 -1.2903 -0.7538
   53CHL1    C2 6375   4.353   3.509  10.095  1.1797 -0.1984  0.0397
   53CHL1   H2A 6376   4.246   3.530  10.118  1.6767  1.2706  1.0950
   53CHL1   H2B 6377   4.420   3.578  10.150  1.9494 -0.8713 -0.0427
   53CHL1   C20 6378   4.535   3.538   9.185  0.0031  0.5259 -0.3369
   53CHL1   H20 6379   4.642   3.567   9.189  0.2295  0.0263 -1.8936
   53CHL1   C21 6380   4.438   3.658   9.192 -0.4283  0.8878 -0.1055
   53CHL1  H21A 6381   4.468   3.730   9.272 -0.3359 -1.3002  1.9528
   53CHL1  H21B 6382   4.332   3.630   9.210 -0.5319  1.5729  0.4238
   53CHL1  H21C 6383   4.430   3.706   9.092  0.0045 -1.1521 -1.1627
   53CHL1   C22 6384   4.520   3.480   9.047 -0.4186  0.5296  0.0020
   53CHL1  H22A 6385   4.584   3.389   9.045 -0.3143  0.6078 -0.2900
   53CHL1  H22B 6386   4.411   3.459   9.039 -0.8586  1.9893  1.5854
   53CHL1   C23 6387   4.564   3.568   8.931  0.1426 -0.4149 -0.4755
   53CHL1  H23A 6388   4.492   3.652   8.926 -1.1036 -1.3449  1.0688
   53CHL1  H23B 6389   4.669   3.601   8.946 -0.1611 -0.1741  1.3118
   53CHL1   C24 6390   4.561   3.488   8.804  0.2563  0.5666 -0.3585
   53CHL1  H24A 6391   4.656   3.432   8.793  0.8019  1.7416 -2.0085
   53CHL1  H24B 6392   4.470   3.424   8.812  2.0466 -1.9722  1.2337
   53CHL1   C25 6393   4.547   3.573   8.681 -0.5966  0.0216  0.7723
   53CHL1   H25 6394   4.456   3.634   8.699 -0.6577  0.1627  0.0387
   53CHL1   C26 6395   4.668   3.662   8.653 -0.6192 -0.2912  0.3375
   53CHL1  H26A 6396   4.646   3.725   8.564 -0.8886  0.6408  1.0465
   53CHL1  H26B 6397   4.697   3.733   8.733  0.7235 -0.0701 -0.3207
   53CHL1  H26C 6398   4.756   3.601   8.625 -0.1000  0.4525  0.3430
   53CHL1   C27 6399   4.516   3.491   8.550  0.3851  0.1267 -0.7502
   53CHL1  H27A 6400   4.582   3.402   8.551 -0.1375 -0.2590  0.7059
   53CHL1  H27B 6401   4.414   3.449   8.558  0.2694  0.7204  1.4999
   53CHL1  H27C 6402   4.531   3.558   8.462 -1.9659  0.7021 -0.7766
   54CHL1    C3 6403   5.584   3.768   9.993 -0.5212  0.4141  0.1775
   54CHL1    H3 6404   5.488   3.818   9.966 -0.3320 -0.2333 -1.8041
   54CHL1    O3 6405   5.582   3.762  10.141 -0.3350 -0.7596  0.1887
   54CHL1   H3' 6406   5.653   3.703  10.168  1.6281  1.5997  0.5456
   54CHL1    C4 6407   5.580   3.621   9.929  0.3746  0.0494 -0.0846
   54CHL1   H4A 6408   5.683   3.593   9.958 -0.1111 -0.3707  1.3176
   54CHL1   H4B 6409   5.500   3.561   9.977  0.1251  1.3177  1.1508
   54CHL1    C5 6410   5.562   3.631   9.780 -0.0749  0.0909 -0.2504
   54CHL1    C6 6411   5.457   3.570   9.722  0.0571 -0.6082  0.0165
   54CHL1    H6 6412   5.386   3.516   9.785 -0.0165  1.7640  2.1074
   54CHL1    C7 6413   5.439   3.573   9.574 -0.2519  0.0516 -0.0588
   54CHL1   H7A 6414   5.415   3.476   9.526  3.6471 -1.2725  0.3653
   54CHL1   H7B 6415   5.357   3.642   9.544 -0.0563  0.4421  0.3033
   54CHL1    C8 6416   5.568   3.618   9.498 -0.2331 -0.2499  0.8233
   54CHL1    H8 6417   5.643   3.537   9.512 -1.2714 -1.2120  0.9328
   54CHL1   C14 6418   5.528   3.639   9.355  1.1893  0.2306 -0.0390
   54CHL1   H14 6419   5.453   3.721   9.349  2.2354  1.1527 -0.6710
   54CHL1   C15 6420   5.453   3.521   9.282 -0.3886 -0.4031  0.4580
   54CHL1  H15A 6421   5.495   3.421   9.308 -0.0100 -0.4090 -0.1578
   54CHL1  H15B 6422   5.344   3.518   9.305 -0.2075 -0.9905  1.2710
   54CHL1   C16 6423   5.461   3.561   9.133 -1.2242 -0.2715  0.3054
   54CHL1  H16A 6424   5.520   3.485   9.078  2.3176  1.8217  0.8914
   54CHL1  H16B 6425   5.361   3.561   9.085  0.0934 -2.0100 -2.7146
   54CHL1   C17 6426   5.548   3.693   9.131 -0.1126 -0.0439 -0.1765
   54CHL1   H17 6427   5.479   3.780   9.140  0.6138  0.3617  1.8155
   54CHL1   C13 6428   5.636   3.691   9.262 -0.1553  0.9533  0.3737
   54CHL1   C18 6429   5.743   3.582   9.249 -0.2547  0.0945  0.5215
   54CHL1  H18A 6430   5.786   3.536   9.341  0.7215 -2.0864 -0.9226
   54CHL1  H18B 6431   5.706   3.493   9.193  1.2813 -0.4405  0.2996
   54CHL1  H18C 6432   5.825   3.629   9.190 -0.7886  0.4079  0.0306
   54CHL1   C12 6433   5.688   3.823   9.327  0.0889 -0.3992  0.7006
   54CHL1  H12A 6434   5.767   3.856   9.256 -1.6112  1.5582 -0.3931
   54CHL1  H12B 6435   5.613   3.904   9.335  0.8720  0.9091 -3.3093
   54CHL1   C11 6436   5.740   3.793   9.471  0.3373  0.9892  0.3376
   54CHL1  H11A 6437   5.824   3.721   9.462 -0.6940 -0.3109  0.7918
   54CHL1  H11B 6438   5.784   3.882   9.522 -3.0844  1.5833  2.6232
   54CHL1    C9 6439   5.627   3.745   9.558  0.1779 -0.1049  0.6509
   54CHL1    H9 6440   5.540   3.814   9.549 -0.0632 -0.3176  1.2812
   54CHL1   C10 6441   5.667   3.724   9.704 -0.2192  1.0079  0.3711
   54CHL1   C19 6442   5.808   3.663   9.714 -0.7181  0.6715  1.3869
   54CHL1  H19A 6443   5.892   3.733   9.694  0.3561 -0.6569  1.0880
   54CHL1  H19B 6444   5.838   3.638   9.818  0.3694  4.2857  2.0840
   54CHL1  H19C 6445   5.817   3.574   9.648  0.2176  2.9641 -1.8352
   54CHL1    C1 6446   5.675   3.861   9.780  0.0103 -1.0725  0.8286
   54CHL1   H1A 6447   5.755   3.926   9.738  1.3009 -1.5604  2.4341
   54CHL1   H1B 6448   5.582   3.919   9.759  0.0516 -0.8536  1.2347
   54CHL1    C2 6449   5.694   3.854   9.934 -0.5782 -0.4417 -0.0732
   54CHL1   H2A 6450   5.688   3.957   9.975  0.3771  0.4138 -1.9206
   54CHL1   H2B 6451   5.795   3.815   9.958 -0.0715  1.4335  1.0987
   54CHL1   C20 6452   5.621   3.697   9.005  0.0408 -0.6433  0.7719
   54CHL1   H20 6453   5.684   3.606   8.992  2.2508  0.7920  1.0033
   54CHL1   C21 6454   5.721   3.812   8.996 -0.5730  0.2113  0.7251
   54CHL1  H21A 6455   5.752   3.827   8.890  0.0273  0.4222  0.9289
   54CHL1  H21B 6456   5.821   3.802   9.042  0.0810 -2.2836 -1.0194
   54CHL1  H21C 6457   5.688   3.907   9.044 -0.3467  0.2693  0.7680
   54CHL1   C22 6458   5.522   3.710   8.881 -0.2335 -0.1166  0.1628
   54CHL1  H22A 6459   5.418   3.684   8.907 -1.3254  3.6194  0.1182
   54CHL1  H22B 6460   5.516   3.815   8.844  0.7900  0.0962  0.5483
   54CHL1   C23 6461   5.575   3.607   8.775  0.5230 -0.1623  0.3833
   54CHL1  H23A 6462   5.585   3.509   8.826  0.4092 -0.5534 -0.3370
   54CHL1  H23B 6463   5.503   3.615   8.691  2.8276 -0.2816 -1.7326
   54CHL1   C24 6464   5.708   3.635   8.707  0.0020  0.0444 -0.2258
   54CHL1  H24A 6465   5.697   3.739   8.668 -0.8900  0.1457  0.2639
   54CHL1  H24B 6466   5.782   3.638   8.790 -0.9297 -1.2037  0.6872
   54CHL1   C25 6467   5.742   3.527   8.601 -0.0485 -0.5447 -0.0092
   54CHL1   H25 6468   5.714   3.427   8.641 -0.9381 -1.3881 -2.5240
   54CHL1   C26 6469   5.678   3.566   8.460  0.3103 -0.4212  0.1152
   54CHL1  H26A 6470   5.713   3.493   8.384 -0.0569  0.1223 -0.5829
   54CHL1  H26B 6471   5.568   3.568   8.471  0.5534  0.6694  3.5280
   54CHL1  H26C 6472   5.703   3.669   8.429  0.1351 -0.5231 -0.3722
   54CHL1   C27 6473   5.890   3.518   8.583  0.1647 -0.2502  1.0078
   54CHL1  H27A 6474   5.935   3.603   8.527  2.2135 -0.3715  2.3548
   54CHL1  H27B 6475   5.936   3.510   8.684  0.5177 -1.2805  0.7785
   54CHL1  H27C 6476   5.911   3.422   8.531  0.2283 -0.5055  1.4973
   55CHL1    C3 6477   4.107   2.154   9.915  0.2114 -0.0952  0.1903
   55CHL1    H3 6478   4.213   2.163   9.881 -0.2209  0.2079 -1.1663
   55CHL1    O3 6479   4.094   2.135  10.057  0.0862  0.4070  0.8635
   55CHL1   H3' 6480   4.002   2.154  10.076 -0.0147 -1.2961  2.4426
   55CHL1    C4 6481   4.032   2.286   9.882 -0.4218  0.3463  0.6070
   55CHL1   H4A 6482   3.928   2.284   9.923 -1.1627 -0.9925 -1.2053
   55CHL1   H4B 6483   4.089   2.371   9.925  0.3359  0.3007 -0.2800
   55CHL1    C5 6484   4.028   2.304   9.728 -0.1203 -0.9393 -0.1654
   55CHL1    C6 6485   4.086   2.417   9.674 -0.5931  0.7006  0.6876
   55CHL1    H6 6486   4.143   2.481   9.743 -0.1004 -1.3266  2.2533
   55CHL1    C7 6487   4.086   2.446   9.522  0.1719  0.2780  0.2262
   55CHL1   H7A 6488   4.060   2.548   9.487  0.0154 -0.5230 -2.1721
   55CHL1   H7B 6489   4.188   2.435   9.479 -0.0028  2.0329 -0.7305
   55CHL1    C8 6490   3.979   2.354   9.453 -0.1983 -0.3599  0.4501
   55CHL1    H8 6491   3.883   2.392   9.493  0.4464  1.5202  0.3484
   55CHL1   C14 6492   3.998   2.371   9.302 -0.3810  0.3689 -0.0604
   55CHL1   H14 6493   4.101   2.335   9.282 -0.5255  0.3333 -0.7518
   55CHL1   C15 6494   3.984   2.515   9.245 -0.0398 -0.0416  0.1298
   55CHL1  H15A 6495   3.891   2.560   9.285 -1.1654 -2.1657  0.0455
   55CHL1  H15B 6496   4.067   2.580   9.282 -0.1325 -1.5851  3.3836
   55CHL1   C16 6497   3.975   2.499   9.091  0.7022  0.6117  0.2204
   55CHL1  H16A 6498   3.888   2.561   9.058  1.2811  1.3937  0.1255
   55CHL1  H16B 6499   4.071   2.536   9.048  0.6842  2.4782  1.6597
   55CHL1   C17 6500   3.951   2.341   9.074  0.1432 -0.5192 -1.1784
   55CHL1   H17 6501   4.050   2.299   9.048  0.2396 -0.4519 -0.9178
   55CHL1   C13 6502   3.915   2.279   9.215 -0.4359 -0.7392  1.2065
   55CHL1   C18 6503   3.768   2.310   9.237 -0.3372 -0.2998  0.0407
   55CHL1  H18A 6504   3.698   2.258   9.169 -0.1903  1.5619 -1.6355
   55CHL1  H18B 6505   3.734   2.291   9.341  1.0890  1.3947  0.8658
   55CHL1  H18C 6506   3.739   2.416   9.219 -0.5130  0.0166  1.9610
   55CHL1   C12 6507   3.951   2.141   9.248 -0.2113  0.0870  0.4888
   55CHL1  H12A 6508   3.889   2.063   9.198  3.0308 -1.6757 -1.2022
   55CHL1  H12B 6509   4.059   2.121   9.228  0.3053  0.1962  2.8610
   55CHL1   C11 6510   3.920   2.111   9.399  0.0373  0.2696 -0.2865
   55CHL1  H11A 6511   3.810   2.104   9.414  0.0301  1.5190  0.3509
   55CHL1  H11B 6512   3.949   2.005   9.410 -0.2868 -0.1049 -2.4354
   55CHL1    C9 6513   3.987   2.206   9.496 -0.3551 -0.7400  0.1116
   55CHL1    H9 6514   4.096   2.191   9.476  0.0527  2.1855 -0.3486
   55CHL1   C10 6515   3.965   2.186   9.648  0.1257  0.4731  0.1613
   55CHL1   C19 6516   3.815   2.188   9.671  0.8876  0.4304 -0.2170
   55CHL1  H19A 6517   3.764   2.121   9.598  2.2406  0.1350 -0.9295
   55CHL1  H19B 6518   3.798   2.146   9.772 -1.2386 -0.4893 -0.8944
   55CHL1  H19C 6519   3.763   2.286   9.677 -1.4484 -0.7277 -0.1207
   55CHL1    C1 6520   4.033   2.051   9.690 -0.4955 -0.3042  0.3596
   55CHL1   H1A 6521   3.974   1.965   9.651  1.2823 -1.0502 -0.8096
   55CHL1   H1B 6522   4.136   2.045   9.650 -0.8452  1.2128 -0.8971
   55CHL1    C2 6523   4.041   2.033   9.840  0.4653 -0.1737  0.5890
   55CHL1   H2A 6524   4.108   1.945   9.851  1.7578  0.5706 -0.8548
   55CHL1   H2B 6525   3.944   2.017   9.891 -1.7784  0.1974 -3.1404
   55CHL1   C20 6526   3.868   2.305   8.949 -0.1906  0.2841  0.5425
   55CHL1   H20 6527   3.765   2.280   8.983  0.2219 -0.3656  1.3447
   55CHL1   C21 6528   3.925   2.176   8.887 -0.3727  0.4679 -0.0579
   55CHL1  H21A 6529   4.025   2.193   8.841 -0.5087  0.9241 -0.1974
   55CHL1  H21B 6530   3.871   2.131   8.801 -0.0618  1.3280 -0.7254
   55CHL1  H21C 6531   3.928   2.102   8.970 -3.5579  0.2360 -0.0370
   55CHL1   C22 6532   3.856   2.415   8.835 -0.2334 -0.0890 -0.2966
   55CHL1  H22A 6533   3.812   2.508   8.879 -0.9344 -0.5017 -0.0942
   55CHL1  H22B 6534   3.961   2.443   8.813 -0.0002 -0.6835  0.0246
   55CHL1   C23 6535   3.786   2.374   8.709  0.5923 -0.4496 -0.1848
   55CHL1  H23A 6536   3.771   2.459   8.639  0.4217 -0.0355  0.3505
   55CHL1  H23B 6537   3.859   2.312   8.653  0.1286  1.7961 -3.5476
   55CHL1   C24 6538   3.650   2.307   8.730 -0.5299  0.2159 -0.3293
   55CHL1  H24A 6539   3.665   2.203   8.766 -0.5248  0.5787  0.7573
   55CHL1  H24B 6540   3.610   2.354   8.823 -2.1146  3.0425 -2.2778
   55CHL1   C25 6541   3.544   2.315   8.628 -0.0277 -0.0410  0.0342
   55CHL1   H25 6542   3.537   2.424   8.610 -0.2186 -0.2550 -1.3565
   55CHL1   C26 6543   3.594   2.237   8.507  0.0338  0.4501  0.9298
   55CHL1  H26A 6544   3.608   2.132   8.541 -0.2449  0.4101  0.9264
   55CHL1  H26B 6545   3.517   2.242   8.427 -1.0101 -2.5543  1.6034
   55CHL1  H26C 6546   3.686   2.271   8.455 -0.4508  0.2716 -0.0744
   55CHL1   C27 6547   3.407   2.263   8.683 -0.6116 -0.7221 -0.2732
   55CHL1  H27A 6548   3.421   2.155   8.706  0.4559 -0.5802 -0.2390
   55CHL1  H27B 6549   3.396   2.304   8.786  1.0255  0.9589 -0.7159
   55CHL1  H27C 6550   3.318   2.283   8.619 -0.9837  2.3920  1.0217
   56CHL1    C3 6551   0.048   4.773  10.106 -0.0904  0.3402 -0.6710
   56CHL1    H3 6552   0.028   4.880  10.087 -0.8498  0.3804  0.2742
   56CHL1    O3 6553   0.041   4.738  10.248  0.0016  0.4700  0.2817
   56CHL1   H3' 6554   0.072   4.647  10.253  0.3529  0.6348  1.8545
   56CHL1    C4 6555  -0.050   4.688  10.021  0.7108 -0.3070 -0.5946
   56CHL1   H4A 6556  -0.017   4.584  10.043  2.5623  0.2468 -0.5681
   56CHL1   H4B 6557  -0.154   4.697  10.058  1.0459  1.1103  0.0688
   56CHL1    C5 6558  -0.036   4.704   9.873 -0.2232 -1.6580  0.4662
   56CHL1    C6 6559  -0.147   4.725   9.797 -0.4541  0.0805 -1.1198
   56CHL1    H6 6560  -0.240   4.743   9.853 -0.4489 -0.4541 -0.9370
   56CHL1    C7 6561  -0.156   4.740   9.651 -0.2669 -0.7390 -0.6919
   56CHL1   H7A 6562  -0.247   4.689   9.612 -1.8349  0.3720  1.3296
   56CHL1   H7B 6563  -0.175   4.847   9.627 -0.0944 -0.2377  1.1962
   56CHL1    C8 6564  -0.016   4.692   9.593 -0.1531  0.1061 -0.3751
   56CHL1    H8 6565  -0.017   4.581   9.603 -0.5742  0.1257 -0.1693
   56CHL1   C14 6566  -0.007   4.725   9.449  0.2087 -0.1524  0.2087
   56CHL1   H14 6567  -0.010   4.834   9.428 -0.9168 -0.2389 -0.1642
   56CHL1   C15 6568  -0.126   4.678   9.362 -0.5224 -0.5488 -0.6565
   56CHL1  H15A 6569  -0.146   4.572   9.387  1.3480 -0.7540  0.1960
   56CHL1  H15B 6570  -0.220   4.736   9.374  0.1058  0.5219 -0.7678
   56CHL1   C16 6571  -0.077   4.712   9.223  0.1166 -0.5017  0.7037
   56CHL1  H16A 6572  -0.121   4.631   9.161 -0.4980 -0.1106  0.6228
   56CHL1  H16B 6573  -0.116   4.814   9.205  1.1512 -0.1585  0.3180
   56CHL1   C17 6574   0.081   4.715   9.220 -0.1373 -0.6188 -0.5294
   56CHL1   H17 6575   0.103   4.824   9.215 -1.0210 -0.4420 -0.6856
   56CHL1   C13 6576   0.118   4.680   9.364  0.2480  0.0173 -0.0764
   56CHL1   C18 6577   0.134   4.529   9.369  0.6366 -0.3576  0.5226
   56CHL1  H18A 6578   0.239   4.508   9.341  0.7100  0.1593  0.4040
   56CHL1  H18B 6579   0.125   4.497   9.475  2.2416 -0.4317  0.6462
   56CHL1  H18C 6580   0.063   4.478   9.299 -0.8492  3.2466 -0.8398
   56CHL1   C12 6581   0.233   4.764   9.435  0.0735  0.6951  0.8565
   56CHL1  H12A 6582   0.326   4.733   9.383  0.1660 -1.0252  1.9379
   56CHL1  H12B 6583   0.231   4.874   9.422  1.8943  0.6331 -0.3106
   56CHL1   C11 6584   0.240   4.734   9.588 -0.1110  0.0645  0.0015
   56CHL1  H11A 6585   0.277   4.629   9.590 -0.6198 -0.1167  0.2153
   56CHL1  H11B 6586   0.320   4.791   9.640  0.6836 -1.1173  0.1282
   56CHL1    C9 6587   0.105   4.749   9.668 -0.2230 -0.0478 -0.6172
   56CHL1    H9 6588   0.080   4.857   9.677  0.7230  0.2520 -1.4715
   56CHL1   C10 6589   0.114   4.695   9.815  0.6478  0.5313  0.3956
   56CHL1   C19 6590   0.168   4.550   9.810 -0.7504 -0.0200 -0.4209
   56CHL1  H19A 6591   0.109   4.478   9.749  0.1470  1.5684 -3.3874
   56CHL1  H19B 6592   0.271   4.529   9.775 -0.0423 -0.0082  1.5329
   56CHL1  H19C 6593   0.173   4.508   9.912 -1.3361  3.3609  1.1423
   56CHL1    C1 6594   0.200   4.792   9.903  0.7681 -0.1857 -0.0725
   56CHL1   H1A 6595   0.302   4.777   9.863  0.4054  1.7002 -1.8660
   56CHL1   H1B 6596   0.169   4.898   9.889 -2.2995 -0.6919  1.8311
   56CHL1    C2 6597   0.195   4.759  10.054 -0.0589 -0.8413 -0.0994
   56CHL1   H2A 6598   0.243   4.838  10.115  1.8632 -0.6939 -1.6925
   56CHL1   H2B 6599   0.228   4.658  10.087  0.4717 -0.2852  1.1335
   56CHL1   C20 6600   0.143   4.637   9.101  0.0889  0.1007 -0.5024
   56CHL1   H20 6601   0.122   4.529   9.117 -0.2716  0.1240 -0.7941
   56CHL1   C21 6602   0.292   4.647   9.097  0.0994  0.2019  0.1009
   56CHL1  H21A 6603   0.340   4.566   9.037  0.1458 -0.7814  1.4195
   56CHL1  H21B 6604   0.335   4.629   9.198 -1.8072  0.6258  1.0449
   56CHL1  H21C 6605   0.314   4.748   9.058  2.9380  0.6284  2.4999
   56CHL1   C22 6606   0.078   4.669   8.961 -0.0453  0.7491 -0.2218
   56CHL1  H22A 6607  -0.033   4.675   8.972 -0.4815 -3.8987  0.2393
   56CHL1  H22B 6608   0.109   4.767   8.921 -0.1956  1.2414  0.8395
   56CHL1   C23 6609   0.114   4.553   8.865 -0.2465  0.7043  0.3367
   56CHL1  H23A 6610   0.220   4.565   8.834 -0.7699 -0.2786 -2.0712
   56CHL1  H23B 6611   0.104   4.450   8.907  0.7619  0.9643  1.2438
   56CHL1   C24 6612   0.042   4.579   8.731  0.1064 -0.9120  0.0123
   56CHL1  H24A 6613  -0.067   4.575   8.750  0.2860 -0.1637  1.3455
   56CHL1  H24B 6614   0.067   4.678   8.687  0.0922 -1.2839 -0.8399
   56CHL1   C25 6615   0.063   4.471   8.628 -0.4280  0.5458 -0.1477
   56CHL1   H25 6616   0.051   4.373   8.679 -1.5800  0.4925 -0.4880
   56CHL1   C26 6617  -0.045   4.462   8.517 -0.5384 -0.6216 -0.0665
   56CHL1  H26A 6618  -0.032   4.551   8.452 -0.6493  0.6452  1.5920
   56CHL1  H26B 6619  -0.037   4.367   8.459 -1.2552  0.2866 -1.7433
   56CHL1  H26C 6620  -0.149   4.463   8.555 -0.7545  0.4779 -0.6312
   56CHL1   C27 6621   0.204   4.471   8.570  0.4578 -0.0810  0.3147
   56CHL1  H27A 6622   0.208   4.389   8.495  0.1698 -0.0229  0.2338
   56CHL1  H27B 6623   0.241   4.562   8.517 -0.8605  0.4753  0.3163
   56CHL1  H27C 6624   0.277   4.451   8.651 -0.6231 -1.9019  0.8998
   57CHL1    C3 6625   5.749   1.156  10.273  0.0322 -0.7263 -0.1486
   57CHL1    H3 6626   5.641   1.185  10.278  0.5798  1.4813 -0.0467
   57CHL1    O3 6627   5.817   1.158  10.397 -0.3499 -0.1299 -0.6140
   57CHL1   H3' 6628   5.795   1.244  10.434  0.1002 -0.8099  1.3490
   57CHL1    C4 6629   5.782   1.024  10.196  0.5751 -0.0569 -0.7007
   57CHL1   H4A 6630   5.891   1.004  10.202  0.6305  0.5404  0.7820
   57CHL1   H4B 6631   5.736   0.942  10.257 -2.3772  0.4585 -2.0493
   57CHL1    C5 6632   5.754   1.018  10.053  0.6415  0.6188 -0.3079
   57CHL1    C6 6633   5.687   0.917   9.995  0.2906 -0.2382 -0.1199
   57CHL1    H6 6634   5.652   0.830  10.052  0.7816 -0.1315  0.3596
   57CHL1    C7 6635   5.656   0.920   9.849 -0.0475 -0.2135  0.2428
   57CHL1   H7A 6636   5.666   0.818   9.807  2.5019  0.2988 -0.6088
   57CHL1   H7B 6637   5.550   0.950   9.836 -0.1441 -1.3970 -2.1440
   57CHL1    C8 6638   5.732   1.028   9.765  0.4106 -0.4362  0.2315
   57CHL1    H8 6639   5.839   0.999   9.769  0.7329  0.7815  0.9959
   57CHL1   C14 6640   5.672   1.054   9.624 -0.1810  0.7104  0.2982
   57CHL1   H14 6641   5.571   1.100   9.637 -1.1359 -0.5870 -1.8856
   57CHL1   C15 6642   5.649   0.935   9.538  0.0936  0.6773  0.0995
   57CHL1  H15A 6643   5.741   0.872   9.536 -0.4283 -0.0962  0.0880
   57CHL1  H15B 6644   5.564   0.868   9.561 -0.0219  0.0942 -1.7988
   57CHL1   C16 6645   5.628   0.990   9.401 -0.0906  0.1175  0.2125
   57CHL1  H16A 6646   5.676   0.925   9.325  2.7340  0.8536  1.2306
   57CHL1  H16B 6647   5.521   1.003   9.376  0.5060  1.1250 -2.1499
   57CHL1   C17 6648   5.688   1.137   9.400  0.0048  0.2361 -0.1684
   57CHL1   H17 6649   5.612   1.218   9.402  1.0891  1.3735 -1.8681
   57CHL1   C13 6650   5.759   1.145   9.538 -0.0006 -0.4603 -0.3871
   57CHL1   C18 6651   5.899   1.091   9.519  0.3058  0.2372 -0.0788
   57CHL1  H18A 6652   5.960   1.100   9.612  0.2736  2.9365 -0.2517
   57CHL1  H18B 6653   5.907   0.986   9.483 -2.0835  0.9104 -3.0204
   57CHL1  H18C 6654   5.942   1.166   9.450 -0.0154 -1.1724 -1.8947
   57CHL1   C12 6655   5.756   1.282   9.599 -0.2353 -0.4632 -0.3523
   57CHL1  H12A 6656   5.825   1.350   9.543 -0.8240  1.1797  0.8216
   57CHL1  H12B 6657   5.652   1.321   9.600 -0.0139  0.1441  0.9641
   57CHL1   C11 6658   5.809   1.275   9.740 -0.4499  1.0316  0.3901
   57CHL1  H11A 6659   5.920   1.265   9.740 -0.4794  0.4785  1.6160
   57CHL1  H11B 6660   5.777   1.369   9.789 -0.3641  0.2296  2.0699
   57CHL1    C9 6661   5.731   1.165   9.830 -0.8396  0.8098 -0.6896
   57CHL1    H9 6662   5.624   1.192   9.829 -1.2253 -0.5935 -0.2892
   57CHL1   C10 6663   5.792   1.150   9.977 -0.8849 -0.1337 -0.4434
   57CHL1   C19 6664   5.949   1.152   9.968  0.1665 -0.0748  0.4873
   57CHL1  H19A 6665   5.984   1.071   9.901  0.4492 -1.6515  2.4203
   57CHL1  H19B 6666   5.980   1.255   9.940  0.1815 -0.2239 -0.0460
   57CHL1  H19C 6667   5.991   1.138  10.070  0.4722  0.1091  0.3892
   57CHL1    C1 6668   5.748   1.272  10.053  0.3301 -0.3742  0.7930
   57CHL1   H1A 6669   5.773   1.361   9.992  0.2259 -0.4742  0.6042
   57CHL1   H1B 6670   5.637   1.275  10.053  0.2837 -1.5686  1.7839
   57CHL1    C2 6671   5.799   1.276  10.192 -0.0227 -0.4321  0.7534
   57CHL1   H2A 6672   5.755   1.364  10.244 -1.6454 -0.3282 -0.7190
   57CHL1   H2B 6673   5.908   1.296  10.201  0.0431  0.0894 -0.7975
   57CHL1   C20 6674   5.761   1.172   9.269 -0.9265 -0.0240  0.5249
   57CHL1   H20 6675   5.860   1.122   9.268 -0.6144  0.5768 -0.8281
   57CHL1   C21 6676   5.794   1.322   9.253  0.0533  0.6702  0.0904
   57CHL1  H21A 6677   5.698   1.372   9.276  0.5346  0.8083  2.0390
   57CHL1  H21B 6678   5.829   1.341   9.150  1.7726 -0.6497  0.3843
   57CHL1  H21C 6679   5.864   1.349   9.335 -0.8468  0.2504  1.0186
   57CHL1   C22 6680   5.688   1.133   9.142 -0.2242 -0.2065 -0.6489
   57CHL1  H22A 6681   5.662   1.024   9.142  2.2837 -0.8725 -1.4428
   57CHL1  H22B 6682   5.593   1.186   9.119 -0.8526 -1.4844 -1.0985
   57CHL1   C23 6683   5.768   1.149   9.008  0.4393 -0.3592 -0.6547
   57CHL1  H23A 6684   5.705   1.103   8.929 -0.3776  0.3873 -0.4587
   57CHL1  H23B 6685   5.784   1.255   8.976  0.0739 -0.2613 -0.5224
   57CHL1   C24 6686   5.901   1.079   9.018 -0.6361  0.1730 -0.4868
   57CHL1  H24A 6687   5.977   1.130   9.080 -0.2539  0.2061 -0.9710
   57CHL1  H24B 6688   5.884   0.978   9.058  1.0431  0.2236  0.4468
   57CHL1   C25 6689   5.972   1.041   8.887 -0.2014 -0.8516  0.3315
   57CHL1   H25 6690   5.905   0.988   8.816 -2.0037  1.8781 -0.1193
   57CHL1   C26 6691   6.021   1.165   8.804  0.0743 -0.1631  0.3000
   57CHL1  H26A 6692   5.939   1.237   8.783  0.2559 -0.3459 -1.1750
   57CHL1  H26B 6693   6.100   1.214   8.864 -0.9181  1.8395  0.0420
   57CHL1  H26C 6694   6.078   1.134   8.714  0.3239  0.5939  0.1906
   57CHL1   C27 6695   6.094   0.948   8.912  0.2756 -0.2764  0.7344
   57CHL1  H27A 6696   6.139   0.945   9.014 -0.7838  0.3387  1.2361
   57CHL1  H27B 6697   6.060   0.850   8.871  2.1148 -0.8310  0.4411
   57CHL1  H27C 6698   6.182   0.967   8.848 -0.1520 -2.2069 -0.5013
   58CHL1    C3 6699   1.915   6.736  10.180  0.5959  0.8778  0.6561
   58CHL1    H3 6700   1.836   6.664  10.150  0.6084  1.1367 -0.0024
   58CHL1    O3 6701   1.881   6.780  10.310  0.5853 -0.0104 -0.2605
   58CHL1   H3' 6702   1.916   6.869  10.313  0.2218  0.3197 -3.1472
   58CHL1    C4 6703   2.040   6.648  10.183 -0.5403  0.3222  0.5180
   58CHL1   H4A 6704   2.116   6.705  10.241  0.2134 -0.5846  0.4568
   58CHL1   H4B 6705   2.025   6.560  10.250  2.1129  0.1348  0.9687
   58CHL1    C5 6706   2.096   6.606  10.046 -0.0133  0.6571 -0.8163
   58CHL1    C6 6707   2.112   6.472  10.018 -0.5288  0.4044  0.7141
   58CHL1    H6 6708   2.095   6.388  10.087 -0.4011 -1.5871 -1.5374
   58CHL1    C7 6709   2.171   6.427   9.883  0.1553  0.3308  0.3939
   58CHL1   H7A 6710   2.261   6.367   9.907 -0.0331 -0.4662 -0.8184
   58CHL1   H7B 6711   2.099   6.359   9.833  0.3560  0.9029 -0.7246
   58CHL1    C8 6712   2.221   6.539   9.800 -0.9010 -0.3773 -0.1860
   58CHL1    H8 6713   2.314   6.582   9.841 -0.3838 -2.1919  0.6474
   58CHL1   C14 6714   2.230   6.494   9.655  0.5974  0.5895  0.2347
   58CHL1   H14 6715   2.124   6.476   9.624  0.2181  0.7017  1.4073
   58CHL1   C15 6716   2.296   6.354   9.630  0.1161 -0.0228 -0.1372
   58CHL1  H15A 6717   2.386   6.340   9.694  0.5525 -2.0902 -1.1122
   58CHL1  H15B 6718   2.240   6.263   9.663  1.2067 -1.0188 -0.9569
   58CHL1   C16 6719   2.332   6.358   9.485 -0.1246 -0.3535  0.3864
   58CHL1  H16A 6720   2.437   6.328   9.471  0.2937  1.1267  0.1492
   58CHL1  H16B 6721   2.273   6.286   9.424 -3.0773  1.6594  0.6151
   58CHL1   C17 6722   2.297   6.500   9.433  0.8227  0.2332 -0.8271
   58CHL1   H17 6723   2.193   6.490   9.394  0.0819 -2.5893  1.5379
   58CHL1   C13 6724   2.291   6.588   9.560 -0.6283 -0.1848  0.0918
   58CHL1   C18 6725   2.434   6.632   9.594  0.4331 -0.4896 -0.8474
   58CHL1  H18A 6726   2.518   6.559   9.593  0.5405 -0.3763 -0.4286
   58CHL1  H18B 6727   2.459   6.729   9.548 -0.2870  0.2466  0.2518
   58CHL1  H18C 6728   2.432   6.671   9.698  0.0515  1.8688 -1.6756
   58CHL1   C12 6729   2.183   6.712   9.561 -0.5050  0.5290 -0.2679
   58CHL1  H12A 6730   2.211   6.792   9.488  0.3681 -0.8831 -1.5401
   58CHL1  H12B 6731   2.085   6.678   9.520 -1.5009  1.9386  0.8318
   58CHL1   C11 6732   2.179   6.775   9.700  0.1130 -0.2035 -0.2137
   58CHL1  H11A 6733   2.273   6.827   9.729 -1.5246  2.3675  0.7617
   58CHL1  H11B 6734   2.108   6.860   9.701 -0.6354 -0.5683  4.6964
   58CHL1    C9 6735   2.128   6.665   9.805 -0.5630 -0.3294 -0.3350
   58CHL1    H9 6736   2.027   6.628   9.776 -1.0130  0.7530 -0.1771
   58CHL1   C10 6737   2.115   6.723   9.946  0.1165 -0.2783  0.7511
   58CHL1   C19 6738   2.239   6.808   9.987 -0.6558 -0.9083 -0.4729
   58CHL1  H19A 6739   2.261   6.887   9.913 -0.2555  0.8162  1.3953
   58CHL1  H19B 6740   2.236   6.859  10.086  3.3027  0.9961 -1.1289
   58CHL1  H19C 6741   2.329   6.742   9.984  1.0296  1.2698 -0.0013
   58CHL1    C1 6742   1.982   6.810   9.946  0.4889  0.2244 -0.7158
   58CHL1   H1A 6743   1.997   6.899   9.880  1.4411 -0.8665 -2.0173
   58CHL1   H1B 6744   1.904   6.754   9.891 -1.6916  2.4558 -0.1026
   58CHL1    C2 6745   1.937   6.858  10.086  0.2653  0.2484  0.3024
   58CHL1   H2A 6746   1.844   6.915  10.065  0.7061  2.5009  3.6382
   58CHL1   H2B 6747   2.007   6.938  10.121 -1.2313  2.0172 -0.5803
   58CHL1   C20 6748   2.396   6.552   9.321 -0.1590  0.3537 -0.3458
   58CHL1   H20 6749   2.496   6.552   9.367 -0.5524 -1.4949  0.5981
   58CHL1   C21 6750   2.355   6.691   9.268 -0.0143 -0.3868 -0.6629
   58CHL1  H21A 6751   2.379   6.762   9.350 -2.5139 -1.6026  1.2914
   58CHL1  H21B 6752   2.246   6.691   9.247 -0.0991  0.9444 -0.2929
   58CHL1  H21C 6753   2.414   6.714   9.176  0.8445 -1.2488 -0.3466
   58CHL1   C22 6754   2.402   6.453   9.202 -0.3798 -0.1512 -0.5334
   58CHL1  H22A 6755   2.429   6.358   9.252 -0.7034  0.3531  0.6481
   58CHL1  H22B 6756   2.301   6.439   9.157 -0.9217 -1.0091  0.8863
   58CHL1   C23 6757   2.501   6.481   9.089  0.4635  0.6856  0.0085
   58CHL1  H23A 6758   2.463   6.567   9.029 -2.4168 -1.0329 -0.8263
   58CHL1  H23B 6759   2.602   6.501   9.131 -0.2634  0.5595  1.9099
   58CHL1   C24 6760   2.526   6.358   8.997  0.0863  0.3350  0.1881
   58CHL1  H24A 6761   2.617   6.372   8.935  2.1679  0.3440  3.0189
   58CHL1  H24B 6762   2.544   6.269   9.061  0.3770  0.4980  0.3394
   58CHL1   C25 6763   2.401   6.340   8.897  0.5066 -0.1526 -0.5297
   58CHL1   H25 6764   2.300   6.359   8.940  0.7688  0.8625 -0.3445
   58CHL1   C26 6765   2.415   6.431   8.776  0.2738  0.3122 -0.2389
   58CHL1  H26A 6766   2.393   6.537   8.800  3.6250  1.1947 -0.5368
   58CHL1  H26B 6767   2.521   6.430   8.742  0.4611  0.2102  0.3458
   58CHL1  H26C 6768   2.367   6.393   8.683  2.1155 -2.0018 -0.3413
   58CHL1   C27 6769   2.413   6.192   8.863  0.0400 -0.5238  0.4320
   58CHL1  H27A 6770   2.350   6.161   8.778 -0.2782  0.8346  0.1448
   58CHL1  H27B 6771   2.518   6.157   8.848  0.3660  1.4508 -2.8770
   58CHL1  H27C 6772   2.367   6.145   8.952  0.4077  2.1862  2.1942
   59CHL1    C3 6773   1.746   1.340  10.104 -0.0461 -0.2380 -0.1946
   59CHL1    H3 6774   1.851   1.325  10.070 -0.3031  0.0824 -1.1582
   59CHL1    O3 6775   1.744   1.359  10.242  0.3364 -0.3954  0.5187
   59CHL1   H3' 6776   1.689   1.289  10.278  1.2555 -1.2168  0.3637
   59CHL1    C4 6777   1.700   1.471  10.036  0.4103  0.9492  0.2482
   59CHL1   H4A 6778   1.600   1.502  10.075 -1.1573 -2.5430 -0.6189
   59CHL1   H4B 6779   1.765   1.555  10.069  1.1178  0.9400 -1.0670
   59CHL1    C5 6780   1.691   1.459   9.884  0.4469  0.5021  0.5845
   59CHL1    C6 6781   1.758   1.542   9.795 -0.3770  0.3654 -0.9473
   59CHL1    H6 6782   1.817   1.616   9.852 -2.6590 -0.8438  3.4727
   59CHL1    C7 6783   1.747   1.550   9.648  0.3046 -0.0762  1.0970
   59CHL1   H7A 6784   1.732   1.654   9.611  0.0689 -0.0287  1.3260
   59CHL1   H7B 6785   1.842   1.515   9.602 -0.2475 -2.4596  1.6394
   59CHL1    C8 6786   1.629   1.458   9.600  0.8760 -0.4740  0.3987
   59CHL1    H8 6787   1.534   1.514   9.612 -0.1170 -1.4967 -2.0192
   59CHL1   C14 6788   1.643   1.434   9.448  0.0123 -0.4527 -0.8558
   59CHL1   H14 6789   1.736   1.374   9.433  1.4861  1.3166  0.7416
   59CHL1   C15 6790   1.657   1.561   9.360  0.2529 -0.0061 -0.1086
   59CHL1  H15A 6791   1.581   1.633   9.396  0.3579 -0.9837  2.2049
   59CHL1  H15B 6792   1.761   1.602   9.354 -0.6260  2.6079  1.1649
   59CHL1   C16 6793   1.614   1.506   9.219  0.2808  0.4765 -1.1627
   59CHL1  H16A 6794   1.518   1.546   9.181 -1.5891 -2.3505  0.1791
   59CHL1  H16B 6795   1.692   1.504   9.139 -0.6116 -1.7496 -2.0417
   59CHL1   C17 6796   1.579   1.357   9.245  0.1265  0.1986  0.7473
   59CHL1   H17 6797   1.674   1.299   9.251  0.1127  0.1446  0.4716
   59CHL1   C13 6798   1.533   1.347   9.387 -0.8282 -0.9968  0.5799
   59CHL1   C18 6799   1.390   1.405   9.396 -0.0767  0.7861 -0.3784
   59CHL1  H18A 6800   1.369   1.501   9.344  0.0957 -0.5621 -3.1463
   59CHL1  H18B 6801   1.318   1.335   9.348 -0.6408 -0.2456  1.8584
   59CHL1  H18C 6802   1.358   1.425   9.500 -1.9387 -1.3201 -0.4637
   59CHL1   C12 6803   1.547   1.209   9.450  0.7773  1.5460 -0.3456
   59CHL1  H12A 6804   1.469   1.136   9.422  0.4119  1.2929  1.2418
   59CHL1  H12B 6805   1.649   1.171   9.429  0.6017  0.7853  0.1327
   59CHL1   C11 6806   1.538   1.221   9.606  0.2228 -0.1068  0.8065
   59CHL1  H11A 6807   1.435   1.256   9.630  0.2410  1.3610 -1.0117
   59CHL1  H11B 6808   1.541   1.118   9.646  0.5736 -0.4281 -0.0229
   59CHL1    C9 6809   1.634   1.321   9.675  0.1516  0.1282 -0.5597
   59CHL1    H9 6810   1.738   1.280   9.669  0.3150  0.3516  0.5464
   59CHL1   C10 6811   1.612   1.343   9.829  0.8907  1.0704  0.7222
   59CHL1   C19 6812   1.460   1.373   9.858 -0.8750 -0.2883  0.4395
   59CHL1  H19A 6813   1.401   1.288   9.818 -0.3565 -0.3332 -0.2567
   59CHL1  H19B 6814   1.437   1.380   9.967 -1.4225 -0.8462  0.3607
   59CHL1  H19C 6815   1.421   1.472   9.826  0.6532  0.6098  1.2290
   59CHL1    C1 6816   1.657   1.212   9.908  0.0175 -0.1826 -0.9854
   59CHL1   H1A 6817   1.582   1.132   9.892 -0.1357 -0.5988  1.3780
   59CHL1   H1B 6818   1.758   1.190   9.867  0.5672  2.8183 -1.4325
   59CHL1    C2 6819   1.662   1.221  10.063 -0.4572  0.1788  1.1823
   59CHL1   H2A 6820   1.696   1.129  10.115 -0.8106 -0.3682  0.4584
   59CHL1   H2B 6821   1.562   1.252  10.098 -0.9545  0.5617 -0.4806
   59CHL1   C20 6822   1.503   1.293   9.124 -0.4364 -0.5435 -0.5744
   59CHL1   H20 6823   1.394   1.314   9.132 -0.4848 -1.4273  1.8085
   59CHL1   C21 6824   1.519   1.142   9.138  0.3535 -0.1825 -0.1137
   59CHL1  H21A 6825   1.480   1.084   9.052 -0.4828 -0.1874  0.2627
   59CHL1  H21B 6826   1.463   1.101   9.224  0.4029 -2.2076 -0.9864
   59CHL1  H21C 6827   1.624   1.108   9.154  0.1670 -0.9488 -0.4954
   59CHL1   C22 6828   1.559   1.346   8.988 -0.4350  0.5718  0.2418
   59CHL1  H22A 6829   1.496   1.306   8.906 -1.4457  0.5852  0.9881
   59CHL1  H22B 6830   1.566   1.457   8.983 -0.1592  0.5960  1.0153
   59CHL1   C23 6831   1.703   1.295   8.958 -0.1847 -0.8918  0.3147
   59CHL1  H23A 6832   1.771   1.320   9.043  2.4990 -1.2947 -1.5844
   59CHL1  H23B 6833   1.712   1.184   8.957  3.2771 -0.7192  0.7877
   59CHL1   C24 6834   1.762   1.360   8.827 -0.0675 -0.5390 -0.7631
   59CHL1  H24A 6835   1.775   1.469   8.844 -0.5737 -0.7610  1.3055
   59CHL1  H24B 6836   1.861   1.313   8.810 -0.8559 -2.4759 -0.2681
   59CHL1   C25 6837   1.671   1.340   8.702  0.3125 -0.3519  0.1497
   59CHL1   H25 6838   1.571   1.370   8.739 -0.2112 -3.5566  1.6609
   59CHL1   C26 6839   1.727   1.407   8.573 -0.1360  0.1338  0.1589
   59CHL1  H26A 6840   1.823   1.358   8.542  0.4916  1.5287 -0.1605
   59CHL1  H26B 6841   1.653   1.392   8.492 -1.6981  1.3895  1.3122
   59CHL1  H26C 6842   1.741   1.516   8.589  0.5123  0.1670 -0.5838
   59CHL1   C27 6843   1.660   1.192   8.681 -0.2711 -0.2212 -0.2553
   59CHL1  H27A 6844   1.604   1.161   8.590 -0.7776  0.1661 -0.0848
   59CHL1  H27B 6845   1.763   1.151   8.673 -0.7016 -1.3722 -0.2146
   59CHL1  H27C 6846   1.609   1.144   8.768 -3.4142  0.1024 -1.7542
   60CHL1    C3 6847   0.567   4.175  10.359  0.1169  0.3146 -0.2996
   60CHL1    H3 6848   0.535   4.069  10.368 -1.9495  0.8875 -0.4434
   60CHL1    O3 6849   0.617   4.215  10.480 -0.3771  0.4636 -0.2533
   60CHL1   H3' 6850   0.646   4.305  10.463  0.2678  0.0702 -1.3321
   60CHL1    C4 6851   0.679   4.194  10.253 -0.0897  0.5130  0.2606
   60CHL1   H4A 6852   0.704   4.302  10.257 -0.1282  0.4959  1.1327
   60CHL1   H4B 6853   0.768   4.135  10.282 -0.9229 -1.6244 -1.2236
   60CHL1    C5 6854   0.642   4.159  10.109  0.2790  0.1496 -0.1866
   60CHL1    C6 6855   0.714   4.078  10.032  0.4870 -0.1093 -0.2033
   60CHL1    H6 6856   0.804   4.026  10.067 -0.5191 -1.6889  0.1481
   60CHL1    C7 6857   0.688   4.051   9.881  0.1073  0.7676 -0.4014
   60CHL1   H7A 6858   0.775   4.072   9.814 -1.1544  1.0997 -1.9868
   60CHL1   H7B 6859   0.670   3.943   9.860  0.1888  1.0714 -2.1898
   60CHL1    C8 6860   0.582   4.154   9.827 -0.3906  0.9789  0.6027
   60CHL1    H8 6861   0.637   4.250   9.813  1.0861 -0.0559 -1.0925
   60CHL1   C14 6862   0.532   4.113   9.691 -0.5108  0.0939 -0.5287
   60CHL1   H14 6863   0.492   4.011   9.704 -3.6556  1.3830  0.9491
   60CHL1   C15 6864   0.646   4.096   9.578  0.4045 -0.7525  0.4650
   60CHL1  H15A 6865   0.700   4.189   9.549 -0.7530 -1.0897 -3.1683
   60CHL1  H15B 6866   0.718   4.016   9.605 -0.1716 -1.0628  1.1163
   60CHL1   C16 6867   0.562   4.072   9.456  0.4028 -0.0993 -1.1040
   60CHL1  H16A 6868   0.605   4.127   9.370 -0.8362 -1.1816 -2.4561
   60CHL1  H16B 6869   0.563   3.964   9.430  1.4432 -0.7167  1.2280
   60CHL1   C17 6870   0.415   4.115   9.491  0.1666 -0.1525 -0.6781
   60CHL1   H17 6871   0.359   4.024   9.523 -2.6130  1.4511 -0.6653
   60CHL1   C13 6872   0.424   4.198   9.622 -0.2539 -0.4152 -0.0081
   60CHL1   C18 6873   0.469   4.346   9.597 -0.1511  0.3412  0.4005
   60CHL1  H18A 6874   0.380   4.411   9.588  1.0673  1.8349 -1.9746
   60CHL1  H18B 6875   0.531   4.385   9.681 -0.7406 -1.2266  1.6088
   60CHL1  H18C 6876   0.530   4.344   9.504 -0.3105 -0.0890  0.3049
   60CHL1   C12 6877   0.301   4.205   9.714  0.6421 -0.0633  0.2185
   60CHL1  H12A 6878   0.232   4.280   9.671  0.5916 -0.7727 -0.9710
   60CHL1  H12B 6879   0.240   4.113   9.716  1.1323 -0.4131  2.8696
   60CHL1   C11 6880   0.341   4.248   9.866  0.3171  0.7998  1.1592
   60CHL1  H11A 6881   0.383   4.350   9.850 -0.1788  0.9765  0.9606
   60CHL1  H11B 6882   0.253   4.257   9.933  0.8611  1.0528  1.8524
   60CHL1    C9 6883   0.461   4.175   9.926 -0.8077  0.2648 -0.1200
   60CHL1    H9 6884   0.421   4.077   9.959 -0.6802  0.2181 -0.1022
   60CHL1   C10 6885   0.514   4.234  10.067 -0.5519 -0.0658 -0.3209
   60CHL1   C19 6886   0.553   4.385  10.044  0.7108 -0.0893 -0.0565
   60CHL1  H19A 6887   0.607   4.400   9.948  0.8868  0.2068  0.0870
   60CHL1  H19B 6888   0.455   4.437  10.044  0.6930 -0.0987  1.3159
   60CHL1  H19C 6889   0.611   4.433  10.125  1.5726  1.9264 -1.7810
   60CHL1    C1 6890   0.404   4.218  10.179 -0.4163 -0.2375 -0.7691
   60CHL1   H1A 6891   0.315   4.275  10.144  0.7745  0.4593 -2.8598
   60CHL1   H1B 6892   0.382   4.109  10.191  0.1038 -0.3344 -0.6791
   60CHL1    C2 6893   0.447   4.249  10.324  0.5300 -0.8648 -0.7392
   60CHL1   H2A 6894   0.365   4.233  10.398  0.2032 -0.8389 -1.0980
   60CHL1   H2B 6895   0.470   4.358  10.324  0.8778 -0.8629  1.6761
   60CHL1   C20 6896   0.331   4.175   9.381  0.2420  0.0544  0.4693
   60CHL1   H20 6897   0.349   4.285   9.379  3.3246 -0.3551 -0.5326
   60CHL1   C21 6898   0.176   4.150   9.401  0.0645  0.7708 -0.0250
   60CHL1  H21A 6899   0.119   4.199   9.320 -0.8085 -2.1253 -1.3079
   60CHL1  H21B 6900   0.144   4.167   9.506  0.9367  0.1340  0.3571
   60CHL1  H21C 6901   0.159   4.042   9.382  1.9598 -0.3746  3.7006
   60CHL1   C22 6902   0.356   4.141   9.236  0.6108  0.3370  1.1179
   60CHL1  H22A 6903   0.303   4.213   9.170  1.3650 -1.2048 -1.2991
   60CHL1  H22B 6904   0.462   4.163   9.215  0.1734  0.7391 -0.8974
   60CHL1   C23 6905   0.328   3.994   9.192  0.5251  0.3346  0.0711
   60CHL1  H23A 6906   0.370   3.921   9.264  0.5486  1.3775  1.1262
   60CHL1  H23B 6907   0.219   3.975   9.176  0.3255 -0.8720  2.4419
   60CHL1   C24 6908   0.394   3.972   9.056  0.2045  0.7464  0.1823
   60CHL1  H24A 6909   0.362   4.032   8.968 -0.6622  1.5093  0.9738
   60CHL1  H24B 6910   0.502   3.992   9.071  0.4344 -0.4365  0.1733
   60CHL1   C25 6911   0.394   3.820   9.020  0.3584 -0.1024  0.0629
   60CHL1   H25 6912   0.288   3.791   9.033  0.1087  0.9127  0.4483
   60CHL1   C26 6913   0.444   3.802   8.879  0.0128  0.5890 -0.9177
   60CHL1  H26A 6914   0.366   3.844   8.812 -2.3637  1.1059  2.0108
   60CHL1  H26B 6915   0.544   3.850   8.869 -0.3091  1.0680 -1.9793
   60CHL1  H26C 6916   0.452   3.693   8.857 -0.0378  0.6678 -1.3346
   60CHL1   C27 6917   0.478   3.736   9.108 -0.1631 -0.6376 -0.1672
   60CHL1  H27A 6918   0.485   3.629   9.080  1.7889 -1.4243  2.8588
   60CHL1  H27B 6919   0.582   3.777   9.111 -0.8718  1.2504 -0.1251
   60CHL1  H27C 6920   0.441   3.733   9.212  1.8317 -1.4855  0.5747
   61CHL1    C3 6921   5.680   5.726  10.358  0.6149 -0.2460 -0.0746
   61CHL1    H3 6922   5.777   5.778  10.346 -0.4094  1.6035 -0.7620
   61CHL1    O3 6923   5.655   5.689  10.491 -0.0786 -0.4600  0.0528
   61CHL1   H3' 6924   5.563   5.666  10.474  0.1924  0.0125 -2.3657
   61CHL1    C4 6925   5.584   5.826  10.302  0.0314 -0.2086  0.1139
   61CHL1   H4A 6926   5.486   5.777  10.322  0.5028 -0.6614  1.4053
   61CHL1   H4B 6927   5.587   5.915  10.368 -0.3375  0.5824 -0.9054
   61CHL1    C5 6928   5.608   5.844  10.150  0.5467 -0.7149 -0.2336
   61CHL1    C6 6929   5.617   5.968  10.095 -0.0285 -0.0867 -0.8189
   61CHL1    H6 6930   5.602   6.052  10.165 -2.1758 -0.2756 -0.9647
   61CHL1    C7 6931   5.630   6.002   9.951  0.5925  0.0226 -0.6845
   61CHL1   H7A 6932   5.567   6.088   9.920  2.9095  1.5272 -1.5859
   61CHL1   H7B 6933   5.732   6.042   9.931 -0.1539  2.0702 -0.6056
   61CHL1    C8 6934   5.578   5.886   9.869  1.1716 -0.2698  0.8650
   61CHL1    H8 6935   5.468   5.890   9.882  1.1600  0.9221  0.5118
   61CHL1   C14 6936   5.626   5.913   9.723 -0.3440  0.5193  0.3005
   61CHL1   H14 6937   5.736   5.919   9.728 -0.4349  1.8218  1.4354
   61CHL1   C15 6938   5.566   6.040   9.652 -0.2900 -0.1029 -0.2091
   61CHL1  H15A 6939   5.462   6.055   9.688 -0.8006  1.1039 -2.0293
   61CHL1  H15B 6940   5.632   6.125   9.679  1.1227 -0.1867 -3.0097
   61CHL1   C16 6941   5.573   6.010   9.505 -0.0806  0.0632 -0.2512
   61CHL1  H16A 6942   5.471   6.017   9.461  0.2836  0.6197 -1.0425
   61CHL1  H16B 6943   5.644   6.079   9.454 -1.1725  1.5314  0.1683
   61CHL1   C17 6944   5.628   5.863   9.491 -0.2842  0.1688 -0.5197
   61CHL1   H17 6945   5.739   5.860   9.490 -0.2867 -2.7795 -1.3613
   61CHL1   C13 6946   5.595   5.798   9.624 -0.2395  0.4842 -0.5459
   61CHL1   C18 6947   5.439   5.774   9.633 -0.1916 -0.7378  0.2807
   61CHL1  H18A 6948   5.411   5.692   9.563  1.6648 -1.5233  0.3938
   61CHL1  H18B 6949   5.414   5.754   9.739  1.0023  2.0111  1.1754
   61CHL1  H18C 6950   5.386   5.867   9.604  2.3703  1.5170  2.3790
   61CHL1   C12 6951   5.677   5.671   9.674  0.2965 -0.2268  0.7115
   61CHL1  H12A 6952   5.662   5.583   9.608 -0.7613  1.0131 -0.7942
   61CHL1  H12B 6953   5.784   5.702   9.676 -0.0996  1.4177 -0.8287
   61CHL1   C11 6954   5.641   5.640   9.821  0.3670  0.0256 -0.1476
   61CHL1  H11A 6955   5.540   5.593   9.823  1.3434 -2.2847 -1.0075
   61CHL1  H11B 6956   5.708   5.558   9.856 -1.3717 -0.5785  1.9818
   61CHL1    C9 6957   5.649   5.759   9.918  0.0851 -0.2331 -0.2697
   61CHL1    H9 6958   5.757   5.783   9.917  0.3055 -1.1891 -1.6077
   61CHL1   C10 6959   5.614   5.719  10.068 -0.3088 -0.0133  0.5982
   61CHL1   C19 6960   5.464   5.661  10.070  0.0872  0.1643  0.3192
   61CHL1  H19A 6961   5.396   5.743  10.037  0.4368  0.0071 -0.8193
   61CHL1  H19B 6962   5.448   5.578   9.998 -1.9714 -0.5345  1.4777
   61CHL1  H19C 6963   5.423   5.629  10.169  0.1635 -1.3222 -0.1220
   61CHL1    C1 6964   5.707   5.611  10.133 -0.2749  0.3182 -0.7920
   61CHL1   H1A 6965   5.699   5.520  10.069  1.0162 -1.3155  1.2148
   61CHL1   H1B 6966   5.810   5.649  10.118 -0.5181  0.2854 -2.8170
   61CHL1    C2 6967   5.683   5.595  10.284 -0.3518  0.0131  0.2330
   61CHL1   H2A 6968   5.766   5.533  10.324 -1.7828 -1.3743  1.1556
   61CHL1   H2B 6969   5.594   5.530  10.298  0.9258 -1.9839 -0.4313
   61CHL1   C20 6970   5.586   5.816   9.351  0.0082 -0.2784  0.0588
   61CHL1   H20 6971   5.475   5.823   9.343 -0.2396  1.5754  3.3008
   61CHL1   C21 6972   5.631   5.668   9.338 -0.1916 -0.6049  0.6530
   61CHL1  H21A 6973   5.740   5.647   9.344  0.0058  0.3960  0.7211
   61CHL1  H21B 6974   5.611   5.634   9.233  1.2172  0.2816  0.0678
   61CHL1  H21C 6975   5.573   5.613   9.416 -0.0639  1.4405  2.2572
   61CHL1   C22 6976   5.637   5.900   9.232 -0.1920  0.1720  0.1201
   61CHL1  H22A 6977   5.635   6.011   9.238  0.6920  0.2939 -1.3047
   61CHL1  H22B 6978   5.746   5.880   9.216 -0.2423  0.9287 -1.3058
   61CHL1   C23 6979   5.554   5.881   9.100 -0.6073 -0.1347  0.0211
   61CHL1  H23A 6980   5.515   5.777   9.091  3.4940 -1.7494 -1.4095
   61CHL1  H23B 6981   5.467   5.950   9.096  0.2589  1.0772  1.2337
   61CHL1   C24 6982   5.634   5.888   8.964  0.4449 -0.3481  0.4292
   61CHL1  H24A 6983   5.689   5.985   8.970 -0.0621 -0.0407  0.1134
   61CHL1  H24B 6984   5.711   5.808   8.965  0.6311 -0.1693  0.5034
   61CHL1   C25 6985   5.545   5.893   8.844 -0.5480 -0.4627 -0.5441
   61CHL1   H25 6986   5.598   5.911   8.748  0.0985  1.4284  0.1264
   61CHL1   C26 6987   5.472   5.760   8.814  0.2114 -0.0095 -0.4487
   61CHL1  H26A 6988   5.405   5.764   8.725 -1.6674 -2.3070  0.7626
   61CHL1  H26B 6989   5.540   5.674   8.796 -2.8157 -3.1243  1.7778
   61CHL1  H26C 6990   5.411   5.732   8.902 -1.2041 -0.8687 -1.6387
   61CHL1   C27 6991   5.446   6.013   8.858  0.3916  0.8331  0.1571
   61CHL1  H27A 6992   5.502   6.099   8.900  0.3403  2.3307 -2.5652
   61CHL1  H27B 6993   5.412   6.024   8.752 -0.1411  1.0207  0.3414
   61CHL1  H27C 6994   5.355   6.000   8.921 -0.3163  1.9689 -0.5846
   62CHL1    C3 6995   4.022   1.243  10.002  0.0505 -0.4863  0.0481
   62CHL1    H3 6996   3.921   1.233   9.958 -0.1714 -0.2546  0.4958
   62CHL1    O3 6997   3.997   1.229  10.140 -0.5020 -0.5024 -0.0165
   62CHL1   H3' 6998   4.063   1.169  10.176  0.0294 -0.7969 -1.4365
   62CHL1    C4 6999   4.111   1.131   9.954  0.0629 -0.6411  0.5653
   62CHL1   H4A 7000   4.212   1.131   9.999  0.1259 -2.0229  0.4642
   62CHL1   H4B 7001   4.062   1.038   9.991  1.2596 -1.0428  1.1846
   62CHL1    C5 7002   4.115   1.131   9.805 -1.0505  0.9203 -0.2250
   62CHL1    C6 7003   4.071   1.031   9.732  0.0617  0.6613  0.0902
   62CHL1    H6 7004   4.029   0.948   9.791  0.4187  2.5765  3.3113
   62CHL1    C7 7005   4.063   1.033   9.582  0.1002 -0.2494  0.2783
   62CHL1   H7A 7006   4.084   0.930   9.545 -0.7873 -0.4235  0.2351
   62CHL1   H7B 7007   3.958   1.052   9.549 -0.2114 -0.1632  1.2783
   62CHL1    C8 7008   4.158   1.148   9.521  0.1264 -0.2245  0.6652
   62CHL1    H8 7009   4.264   1.113   9.524  1.0165  2.3630  2.0169
   62CHL1   C14 7010   4.120   1.169   9.377  0.1510  0.8986  0.2615
   62CHL1   H14 7011   4.019   1.216   9.382 -0.2548  0.3437 -1.8057
   62CHL1   C15 7012   4.090   1.045   9.292  0.0349  0.0404  0.3926
   62CHL1  H15A 7013   4.179   0.979   9.298  0.6421  0.9334  1.6204
   62CHL1  H15B 7014   3.999   0.986   9.315 -0.2701  1.0479  1.9290
   62CHL1   C16 7015   4.081   1.103   9.147 -0.7648  0.3954 -0.3999
   62CHL1  H16A 7016   4.164   1.047   9.099 -0.2855  0.6330  0.1417
   62CHL1  H16B 7017   3.980   1.085   9.103 -0.6096 -0.3802 -0.4670
   62CHL1   C17 7018   4.115   1.259   9.163 -0.2427  1.2152  0.2579
   62CHL1   H17 7019   4.021   1.314   9.183 -1.2526 -0.0962 -0.7088
   62CHL1   C13 7020   4.204   1.267   9.297  0.7887 -0.0565  0.7881
   62CHL1   C18 7021   4.344   1.206   9.281  0.2471  0.1538 -0.3403
   62CHL1  H18A 7022   4.382   1.190   9.384  0.6244 -1.0633 -0.6506
   62CHL1  H18B 7023   4.347   1.109   9.227  0.5864  0.5279 -1.0221
   62CHL1  H18C 7024   4.410   1.266   9.214  1.0788 -0.7734 -0.3812
   62CHL1   C12 7025   4.203   1.403   9.375 -0.2186 -0.6610  0.3007
   62CHL1  H12A 7026   4.264   1.483   9.327 -0.3243  0.2088  1.5633
   62CHL1  H12B 7027   4.105   1.455   9.366  0.4853  0.4194 -1.8896
   62CHL1   C11 7028   4.232   1.386   9.524  0.1959 -0.0359 -0.5326
   62CHL1  H11A 7029   4.338   1.360   9.544 -0.8859 -4.2450  0.9557
   62CHL1  H11B 7030   4.217   1.483   9.575  1.3338 -1.4272  2.7553
   62CHL1    C9 7031   4.145   1.275   9.589 -0.2096  0.2769 -0.2802
   62CHL1    H9 7032   4.037   1.296   9.574 -0.9117 -2.0561  1.0376
   62CHL1   C10 7033   4.161   1.261   9.744 -0.0274  0.0578 -0.3388
   62CHL1   C19 7034   4.312   1.271   9.783  0.3790  0.0325  0.1860
   62CHL1  H19A 7035   4.361   1.185   9.734 -1.1249 -1.0020  0.4424
   62CHL1  H19B 7036   4.353   1.362   9.734  1.4732 -0.9929 -0.8667
   62CHL1  H19C 7037   4.341   1.265   9.890  0.0766  1.5040  0.3744
   62CHL1    C1 7038   4.086   1.393   9.806 -0.0755  0.2261  0.0721
   62CHL1   H1A 7039   4.144   1.484   9.780 -1.2278  1.3003  1.1468
   62CHL1   H1B 7040   3.984   1.406   9.764  1.1420  0.1651 -3.2072
   62CHL1    C2 7041   4.078   1.373   9.957 -0.5404  0.2857 -0.2948
   62CHL1   H2A 7042   4.007   1.445  10.004 -1.5175 -0.6243 -0.3327
   62CHL1   H2B 7043   4.179   1.402   9.993 -0.4457  1.5513 -1.4900
   62CHL1   C20 7044   4.170   1.316   9.034 -0.1382 -0.3679 -0.6010
   62CHL1   H20 7045   4.267   1.266   9.017  0.6979  0.4764  1.3444
   62CHL1   C21 7046   4.199   1.465   9.052 -1.3865 -0.0987 -0.0308
   62CHL1  H21A 7047   4.117   1.529   9.091 -0.1383  1.0720  0.7356
   62CHL1  H21B 7048   4.231   1.506   8.953  0.3557  0.5504  0.7673
   62CHL1  H21C 7049   4.290   1.476   9.114 -1.1417 -0.4116 -0.3307
   62CHL1   C22 7050   4.083   1.295   8.914  0.6178 -0.0986 -0.0984
   62CHL1  H22A 7051   4.037   1.195   8.932  2.1673 -1.2540 -2.1835
   62CHL1  H22B 7052   3.995   1.363   8.904 -0.7740 -1.6335  1.1098
   62CHL1   C23 7053   4.150   1.294   8.783  0.5615 -0.2392 -0.2206
   62CHL1  H23A 7054   4.199   1.394   8.776  1.2996 -0.4142  1.8121
   62CHL1  H23B 7055   4.239   1.229   8.766  2.6072  1.8361  1.7520
   62CHL1   C24 7056   4.047   1.297   8.667  0.1771  0.2210 -0.0128
   62CHL1  H24A 7057   3.989   1.204   8.681 -1.4456  1.4377  1.9815
   62CHL1  H24B 7058   3.984   1.388   8.681 -0.9150 -0.1703 -2.0709
   62CHL1   C25 7059   4.118   1.296   8.531 -0.4218 -0.2639  0.0694
   62CHL1   H25 7060   4.179   1.204   8.521  0.0365  0.1573 -1.2079
   62CHL1   C26 7061   4.012   1.297   8.418  0.9295  0.1873 -0.3090
   62CHL1  H26A 7062   3.954   1.202   8.411 -1.9692  1.8851 -1.2329
   62CHL1  H26B 7063   3.946   1.384   8.440 -0.7677 -1.5643  1.9604
   62CHL1  H26C 7064   4.053   1.310   8.315  1.7711  0.8001  0.0944
   62CHL1   C27 7065   4.222   1.412   8.517 -0.3042  0.1161 -0.1586
   62CHL1  H27A 7066   4.277   1.388   8.424 -1.0715 -1.9598 -0.1285
   62CHL1  H27B 7067   4.189   1.518   8.512  1.9394  0.8041 -2.3356
   62CHL1  H27C 7068   4.293   1.410   8.602 -1.6917  0.5772  1.0379
   63CHL1    C3 7069   0.293   2.854  10.469  0.3422 -0.8621 -0.2286
   63CHL1    H3 7070   0.393   2.823  10.432  1.6177  2.9079 -0.3928
   63CHL1    O3 7071   0.306   2.864  10.615  0.6609 -0.1281  0.4165
   63CHL1   H3' 7072   0.220   2.883  10.652  0.5481 -0.5979  0.4012
   63CHL1    C4 7073   0.261   2.995  10.408 -0.2447  0.1487  0.0057
   63CHL1   H4A 7074   0.165   3.028  10.453  0.3386  0.6539  0.9159
   63CHL1   H4B 7075   0.343   3.065  10.436  0.4830 -0.8859  0.5305
   63CHL1    C5 7076   0.247   2.976  10.253 -0.0421 -0.4961 -0.4239
   63CHL1    C6 7077   0.317   3.050  10.174 -0.0842  0.4509  0.5640
   63CHL1    H6 7078   0.389   3.126  10.207 -0.2880  1.0426 -0.3203
   63CHL1    C7 7079   0.296   3.041  10.023  0.1648  0.1432  0.3381
   63CHL1   H7A 7080   0.306   3.134   9.963 -0.6181  0.2811  0.4030
   63CHL1   H7B 7081   0.371   2.970   9.981 -1.7191 -1.1486 -1.0297
   63CHL1    C8 7082   0.157   2.982   9.975 -0.1362  0.2456  0.1150
   63CHL1    H8 7083   0.079   3.055  10.004 -1.4158  0.2546 -3.0605
   63CHL1   C14 7084   0.163   2.949   9.828 -0.1115  0.4909  0.1740
   63CHL1   H14 7085   0.243   2.872   9.821 -0.7356 -0.0812 -0.9265
   63CHL1   C15 7086   0.204   3.060   9.731 -0.1238  0.4343 -0.0733
   63CHL1  H15A 7087   0.156   3.156   9.758  0.8238  0.7959  0.3477
   63CHL1  H15B 7088   0.314   3.068   9.725  0.2216 -1.5171  2.1257
   63CHL1   C16 7089   0.147   3.015   9.592  0.0363  0.1996  0.2450
   63CHL1  H16A 7090   0.062   3.077   9.556 -0.4545 -0.0248  0.9926
   63CHL1  H16B 7091   0.229   3.009   9.518 -1.2832 -0.6062 -1.2143
   63CHL1   C17 7092   0.080   2.868   9.623  0.4318  0.0309  0.3585
   63CHL1   H17 7093   0.164   2.795   9.618  0.4963  0.1850 -1.2746
   63CHL1   C13 7094   0.046   2.870   9.778  0.7004  0.9204  0.4868
   63CHL1   C18 7095  -0.089   2.941   9.791  0.2598  0.8107  0.5991
   63CHL1  H18A 7096  -0.110   2.971   9.896 -0.2126  1.6214  0.2921
   63CHL1  H18B 7097  -0.090   3.037   9.735  2.5563  0.0766 -0.8335
   63CHL1  H18C 7098  -0.181   2.882   9.770  0.7068 -0.3749  1.8958
   63CHL1   C12 7099   0.038   2.733   9.848 -0.2686  0.2151  0.4392
   63CHL1  H12A 7100  -0.053   2.676   9.822  1.9716 -2.7194 -1.5883
   63CHL1  H12B 7101   0.122   2.672   9.809 -2.3159 -2.6876  0.2153
   63CHL1   C11 7102   0.031   2.748  10.006  0.4775 -0.3558 -0.0500
   63CHL1  H11A 7103  -0.067   2.796  10.026 -0.3658 -1.9501 -0.2296
   63CHL1  H11B 7104   0.043   2.647  10.051  0.3253 -0.5090 -0.3521
   63CHL1    C9 7105   0.134   2.856  10.061 -0.7379 -0.4622  0.0919
   63CHL1    H9 7106   0.223   2.796  10.033 -0.6716 -0.1074 -0.4628
   63CHL1   C10 7107   0.144   2.873  10.213  0.3011 -0.2725  0.3313
   63CHL1   C19 7108   0.000   2.919  10.259 -0.1703  0.1174 -0.3675
   63CHL1  H19A 7109  -0.068   2.832  10.248 -0.7955  0.5889 -0.2839
   63CHL1  H19B 7110  -0.010   2.952  10.365 -0.1375 -1.4529  0.1504
   63CHL1  H19C 7111  -0.030   3.007  10.198 -0.2147  0.9065  0.7678
   63CHL1    C1 7112   0.171   2.735  10.275  0.6020 -0.0946  0.1476
   63CHL1   H1A 7113   0.101   2.652  10.251 -0.5552  1.0643 -0.5509
   63CHL1   H1B 7114   0.267   2.694  10.236  1.3644  1.6079  0.1477
   63CHL1    C2 7115   0.182   2.754  10.423 -0.3968  0.7689  0.0163
   63CHL1   H2A 7116   0.215   2.658  10.470  0.0849  0.6569 -0.5419
   63CHL1   H2B 7117   0.085   2.778  10.472 -0.8529 -3.1223  1.3736
   63CHL1   C20 7118  -0.023   2.828   9.514  0.6485  0.4548 -0.3169
   63CHL1   H20 7119  -0.105   2.901   9.497 -1.1837 -1.1389  1.2018
   63CHL1   C21 7120  -0.101   2.695   9.558  0.0955  0.3158  0.8255
   63CHL1  H21A 7121  -0.035   2.614   9.597  0.6796  0.2277 -0.2968
   63CHL1  H21B 7122  -0.145   2.650   9.467  2.0158  2.2363 -1.1785
   63CHL1  H21C 7123  -0.179   2.719   9.634  0.6090 -1.2377  1.8911
   63CHL1   C22 7124   0.038   2.808   9.374 -0.4947  0.1419  0.8467
   63CHL1  H22A 7125   0.123   2.874   9.349  0.3569 -1.6577 -1.3057
   63CHL1  H22B 7126   0.085   2.709   9.390  2.7484  1.9503  3.9599
   63CHL1   C23 7127  -0.061   2.833   9.255 -0.4713 -0.8178 -0.1107
   63CHL1  H23A 7128  -0.141   2.757   9.263  0.6453 -2.1520 -0.9976
   63CHL1  H23B 7129  -0.097   2.937   9.269  0.6406 -0.0842 -2.2103
   63CHL1   C24 7130  -0.003   2.832   9.114  0.3926 -0.1130 -0.4273
   63CHL1  H24A 7131   0.077   2.908   9.097  1.3704 -0.8411  0.7758
   63CHL1  H24B 7132   0.048   2.735   9.097  1.3722  0.5777 -1.5797
   63CHL1   C25 7133  -0.101   2.824   8.995 -0.1755  0.1686 -0.4255
   63CHL1   H25 7134  -0.172   2.743   9.019  1.7327 -1.0999  1.3106
   63CHL1   C26 7135  -0.197   2.945   8.976 -0.3789  1.0560  0.8844
   63CHL1  H26A 7136  -0.258   2.912   8.889  2.8765 -0.8487 -0.9064
   63CHL1  H26B 7137  -0.260   2.951   9.067 -0.0248  0.9037  1.1429
   63CHL1  H26C 7138  -0.142   3.039   8.954  1.7008 -0.2222  0.3127
   63CHL1   C27 7139  -0.026   2.794   8.863  0.9720  0.4312 -0.4267
   63CHL1  H27A 7140   0.016   2.890   8.827 -0.8746  1.3831 -0.1683
   63CHL1  H27B 7141   0.060   2.729   8.886 -1.0446 -2.1293  0.3281
   63CHL1  H27C 7142  -0.086   2.751   8.779  1.5356 -0.8806 -0.1729
   64CHL1    C3 7143   5.393   1.770  10.111  0.0331  0.7968  0.7957
   64CHL1    H3 7144   5.378   1.868  10.062  0.0557 -0.2460 -1.3817
   64CHL1    O3 7145   5.408   1.777  10.257 -0.2670  0.1042  0.4749
   64CHL1   H3' 7146   5.404   1.688  10.293  0.5008  0.1263  0.6424
   64CHL1    C4 7147   5.267   1.692  10.078  0.5146 -1.1736 -0.1643
   64CHL1   H4A 7148   5.278   1.588  10.116 -1.4445 -1.9147 -1.4544
   64CHL1   H4B 7149   5.176   1.747  10.109  1.7311  1.6052 -1.2204
   64CHL1    C5 7150   5.257   1.685   9.923 -0.3877  0.4875  0.8225
   64CHL1    C6 7151   5.148   1.738   9.860 -0.1811 -0.3508 -1.0717
   64CHL1    H6 7152   5.062   1.786   9.909  0.3072  0.1614 -0.7129
   64CHL1    C7 7153   5.134   1.710   9.713 -0.1694 -0.8646  0.0016
   64CHL1   H7A 7154   5.030   1.678   9.691 -0.3730 -0.6377  0.5962
   64CHL1   H7B 7155   5.156   1.804   9.659 -0.7064 -1.6633 -1.6689
   64CHL1    C8 7156   5.227   1.606   9.653  1.0718 -0.1515  0.1946
   64CHL1    H8 7157   5.194   1.506   9.690 -1.0215  0.4269 -0.0045
   64CHL1   C14 7158   5.216   1.610   9.496 -0.1275 -0.6492 -0.8338
   64CHL1   H14 7159   5.261   1.711   9.491 -0.7356 -0.2032  1.4771
   64CHL1   C15 7160   5.078   1.622   9.427  0.4998  0.5919  0.7249
   64CHL1  H15A 7161   5.011   1.544   9.469 -0.5903  2.3758  2.4575
   64CHL1  H15B 7162   5.032   1.723   9.440 -0.3242  0.3577 -0.2079
   64CHL1   C16 7163   5.112   1.582   9.276 -0.7545  0.7146  0.0549
   64CHL1  H16A 7164   5.047   1.500   9.239 -0.7034  1.0861 -0.8883
   64CHL1  H16B 7165   5.092   1.669   9.210 -0.3418  0.5170 -0.3418
   64CHL1   C17 7166   5.264   1.542   9.274  0.6092  0.2885 -0.3075
   64CHL1   H17 7167   5.328   1.629   9.248 -0.7536  0.3962 -3.8813
   64CHL1   C13 7168   5.297   1.502   9.416  0.1363  0.2232 -0.6348
   64CHL1   C18 7169   5.243   1.360   9.451 -0.3257  0.1892  0.3995
   64CHL1  H18A 7170   5.307   1.289   9.393 -0.7155  2.4082 -3.0812
   64CHL1  H18B 7171   5.245   1.343   9.560 -0.4098  1.3458  0.5880
   64CHL1  H18C 7172   5.138   1.346   9.417  0.1188 -2.0851 -0.2159
   64CHL1   C12 7173   5.445   1.529   9.455 -0.4790 -0.1309  0.5178
   64CHL1  H12A 7174   5.521   1.458   9.417  1.3946  0.7866  2.3664
   64CHL1  H12B 7175   5.472   1.630   9.417 -3.3743 -0.0464 -1.6956
   64CHL1   C11 7176   5.463   1.528   9.608  0.8031  0.4913 -0.1200
   64CHL1  H11A 7177   5.440   1.424   9.640  0.8154  1.1430  2.1625
   64CHL1  H11B 7178   5.567   1.550   9.640  0.2217  1.3123  1.2956
   64CHL1    C9 7179   5.369   1.625   9.693 -0.6598  0.0053 -0.4576
   64CHL1    H9 7180   5.396   1.727   9.658 -0.9072 -0.4263 -1.9796
   64CHL1   C10 7181   5.376   1.622   9.846 -0.7862  0.0430 -0.4811
   64CHL1   C19 7182   5.377   1.475   9.893  0.5356  0.0121  0.2883
   64CHL1  H19A 7183   5.394   1.458  10.002  0.9035 -1.6051  0.0061
   64CHL1  H19B 7184   5.280   1.424   9.874  0.4334  0.1206  0.5108
   64CHL1  H19C 7185   5.456   1.415   9.844 -0.5829 -0.3394 -1.1531
   64CHL1    C1 7186   5.498   1.705   9.896 -0.6168 -0.0480  0.2910
   64CHL1   H1A 7187   5.582   1.643   9.857 -0.3635 -0.1287  0.9545
   64CHL1   H1B 7188   5.510   1.805   9.850 -1.0662  0.2899  0.8999
   64CHL1    C2 7189   5.514   1.706  10.049 -0.2561  0.3189  0.8075
   64CHL1   H2A 7190   5.610   1.762  10.063  0.9292 -1.0828 -1.2244
   64CHL1   H2B 7191   5.526   1.602  10.087 -0.3021  0.2620  0.6621
   64CHL1   C20 7192   5.286   1.447   9.150 -0.0638  0.2163 -0.1346
   64CHL1   H20 7193   5.226   1.357   9.174 -3.4646  2.7333  1.6085
   64CHL1   C21 7194   5.435   1.416   9.137 -0.3612  0.0332  0.0717
   64CHL1  H21A 7195   5.471   1.354   9.222  0.3481 -0.4547 -0.5723
   64CHL1  H21B 7196   5.500   1.506   9.125  1.1130 -0.8980  0.7558
   64CHL1  H21C 7197   5.451   1.359   9.043 -0.5487  0.9332 -0.5158
   64CHL1   C22 7198   5.225   1.501   9.018  0.2687 -0.0415 -0.1685
   64CHL1  H22A 7199   5.124   1.541   9.039  1.7606  2.1985  4.0593
   64CHL1  H22B 7200   5.292   1.584   8.985  1.4768 -0.6267  0.7292
   64CHL1   C23 7201   5.208   1.389   8.910 -0.0102  0.4417 -0.6184
   64CHL1  H23A 7202   5.300   1.328   8.900 -0.9130 -1.3503  1.2347
   64CHL1  H23B 7203   5.120   1.327   8.937 -0.6417  1.3218 -0.5869
   64CHL1   C24 7204   5.178   1.444   8.769  0.9110 -0.5446  0.2372
   64CHL1  H24A 7205   5.079   1.495   8.769 -0.0058 -2.1803 -1.5244
   64CHL1  H24B 7206   5.246   1.529   8.747  0.1548  0.1001  0.3457
   64CHL1   C25 7207   5.180   1.344   8.662  0.0094  0.2402  1.1226
   64CHL1   H25 7208   5.274   1.285   8.669  0.2954  0.4275 -0.7403
   64CHL1   C26 7209   5.069   1.241   8.672  0.6654 -0.4650  0.5271
   64CHL1  H26A 7210   5.090   1.165   8.750  0.3644 -1.0495  0.0478
   64CHL1  H26B 7211   4.972   1.290   8.692  2.2906  2.6464  1.4306
   64CHL1  H26C 7212   5.063   1.177   8.582  2.8330 -1.1873  0.8304
   64CHL1   C27 7213   5.172   1.403   8.520  0.8642 -0.1563  0.1439
   64CHL1  H27A 7214   5.073   1.451   8.507  2.0845  2.0532 -1.9895
   64CHL1  H27B 7215   5.259   1.471   8.507  0.2539  0.5852 -0.1510
   64CHL1  H27C 7216   5.179   1.317   8.451 -0.5701  0.3617 -0.6961
   65CHL1    C3 7217   3.452   5.072  10.404 -0.5615 -0.0932 -0.6182
   65CHL1    H3 7218   3.475   5.180  10.414  3.3470 -0.9510  1.7923
   65CHL1    O3 7219   3.481   5.020  10.533 -0.7239 -0.0001  0.1012
   65CHL1   H3' 7220   3.470   4.925  10.531 -0.6821 -0.1118  2.2166
   65CHL1    C4 7221   3.308   5.040  10.367  0.5046 -0.4546 -0.2027
   65CHL1   H4A 7222   3.298   4.929  10.372 -2.0815 -0.2263  1.5515
   65CHL1   H4B 7223   3.240   5.084  10.443  0.7966  0.5461 -0.5127
   65CHL1    C5 7224   3.260   5.070  10.227 -0.3786 -0.2475 -0.3824
   65CHL1    C6 7225   3.159   5.160  10.198 -1.3612  0.0097  1.1910
   65CHL1    H6 7226   3.109   5.210  10.282 -1.3156 -1.1582  1.9471
   65CHL1    C7 7227   3.110   5.188  10.058 -0.6773  0.1089  0.0374
   65CHL1   H7A 7228   3.005   5.153  10.058  0.6924 -4.8959  0.0240
   65CHL1   H7B 7229   3.129   5.294  10.034 -0.8213 -0.2627 -1.8982
   65CHL1    C8 7230   3.174   5.093   9.955 -0.8505  0.2636  0.6261
   65CHL1    H8 7231   3.121   4.995   9.949  0.8208 -0.6174 -1.3627
   65CHL1   C14 7232   3.168   5.158   9.814 -0.1264 -0.3553 -0.9576
   65CHL1   H14 7233   3.228   5.251   9.828 -1.0964  0.2525 -0.7253
   65CHL1   C15 7234   3.025   5.215   9.781 -0.1394  0.1681 -0.1545
   65CHL1  H15A 7235   2.951   5.143   9.821 -0.4917 -0.5334 -2.0032
   65CHL1  H15B 7236   3.007   5.313   9.831 -0.6288 -1.5934  3.4324
   65CHL1   C16 7237   3.025   5.217   9.629 -0.0366 -0.4387 -0.2511
   65CHL1  H16A 7238   2.942   5.151   9.596 -0.9498  1.5487 -2.1251
   65CHL1  H16B 7239   3.014   5.325   9.606 -0.2816 -0.6420 -1.0977
   65CHL1   C17 7240   3.162   5.163   9.580 -0.1454 -0.0970  0.2068
   65CHL1   H17 7241   3.233   5.247   9.575  1.7187 -1.6010  0.1799
   65CHL1   C13 7242   3.208   5.077   9.693  0.2524  0.2979  0.0441
   65CHL1   C18 7243   3.129   4.941   9.683  0.6040 -0.6473 -0.4648
   65CHL1  H18A 7244   3.143   4.875   9.771 -0.4977  1.2036  1.1677
   65CHL1  H18B 7245   3.022   4.958   9.709  1.5618  1.7362  2.5992
   65CHL1  H18C 7246   3.145   4.897   9.582  1.7406  0.1622 -0.6526
   65CHL1   C12 7247   3.361   5.056   9.718 -0.3091 -0.4168  0.6551
   65CHL1  H12A 7248   3.400   5.004   9.628 -0.3629  0.4494  0.1235
   65CHL1  H12B 7249   3.422   5.149   9.720  0.0741 -0.6365  3.6035
   65CHL1   C11 7250   3.387   4.994   9.856  0.1676 -0.1134  0.1092
   65CHL1  H11A 7251   3.348   4.890   9.849 -0.4063  0.1184 -0.2031
   65CHL1  H11B 7252   3.495   4.978   9.879  0.3795  0.4689 -0.4688
   65CHL1    C9 7253   3.329   5.067   9.982 -0.1597  1.1295 -0.1442
   65CHL1    H9 7254   3.374   5.169   9.979  1.8314  0.2632 -2.1785
   65CHL1   C10 7255   3.351   5.004  10.120  0.4325 -0.6027 -0.5876
   65CHL1   C19 7256   3.322   4.851  10.107  0.4353 -0.5101 -0.7461
   65CHL1  H19A 7257   3.220   4.831  10.067 -0.2946  1.7498 -0.1370
   65CHL1  H19B 7258   3.396   4.802  10.040  1.4622  0.6330 -0.4814
   65CHL1  H19C 7259   3.341   4.796  10.202  0.6836  0.0668 -0.4577
   65CHL1    C1 7260   3.500   5.029  10.154 -0.5999  0.1953 -1.2749
   65CHL1   H1A 7261   3.567   4.977  10.082  0.5957  0.0893 -0.1236
   65CHL1   H1B 7262   3.509   5.139  10.142 -1.9925  0.6988  1.4134
   65CHL1    C2 7263   3.553   5.004  10.298  0.8560  0.0179 -0.4768
   65CHL1   H2A 7264   3.656   5.043  10.307  1.3660 -1.1318 -1.1881
   65CHL1   H2B 7265   3.554   4.896  10.321 -0.5078  0.0703 -0.0704
   65CHL1   C20 7266   3.158   5.116   9.438  0.1422 -0.1857 -0.1353
   65CHL1   H20 7267   3.116   5.014   9.428  0.7357 -0.4794  0.3472
   65CHL1   C21 7268   3.302   5.106   9.379 -0.2399  0.3234  0.3140
   65CHL1  H21A 7269   3.341   5.209   9.396 -1.5314  0.6097  1.7713
   65CHL1  H21B 7270   3.312   5.080   9.271  1.7223 -0.7013  0.6928
   65CHL1  H21C 7271   3.356   5.027   9.435 -0.4261 -0.1483 -0.1608
   65CHL1   C22 7272   3.075   5.205   9.337  0.0895 -0.0395 -0.1399
   65CHL1  H22A 7273   3.054   5.309   9.370  0.7179 -0.4695  1.7122
   65CHL1  H22B 7274   3.134   5.228   9.245 -0.4328  0.7793 -0.2821
   65CHL1   C23 7275   2.944   5.136   9.301  0.0095  0.4473  0.1925
   65CHL1  H23A 7276   2.963   5.033   9.264  0.1721  0.2751  0.7321
   65CHL1  H23B 7277   2.876   5.152   9.388  1.2760  0.5296  1.2081
   65CHL1   C24 7278   2.879   5.232   9.192  0.4695 -0.2752  0.1422
   65CHL1  H24A 7279   2.868   5.326   9.250  1.8740 -0.9479  1.5916
   65CHL1  H24B 7280   2.951   5.259   9.112 -0.1942  0.6052 -0.1724
   65CHL1   C25 7281   2.745   5.199   9.127  0.0483  0.9039 -0.0520
   65CHL1   H25 7282   2.680   5.163   9.210 -0.0086 -0.0450 -0.4956
   65CHL1   C26 7283   2.677   5.324   9.074 -0.4288 -0.0148  0.0156
   65CHL1  H26A 7284   2.636   5.389   9.155 -0.9021  0.4772 -0.6065
   65CHL1  H26B 7285   2.729   5.391   9.003 -0.5782  0.1716  0.0819
   65CHL1  H26C 7286   2.580   5.308   9.022 -1.1087  0.3893  1.1224
   65CHL1   C27 7287   2.755   5.093   9.018 -0.6966 -0.0459  0.7745
   65CHL1  H27A 7288   2.787   5.126   8.917 -4.1196 -0.2111 -0.5027
   65CHL1  H27B 7289   2.814   5.002   9.044 -2.4146 -1.7054 -0.7823
   65CHL1  H27C 7290   2.647   5.070   9.004 -0.8021  1.0491 -0.3755
   66CHL1    C3 7291   0.276   3.688  10.489  0.1426 -0.0051  0.4817
   66CHL1    H3 7292   0.182   3.631  10.472  0.2875  0.4687 -2.4580
   66CHL1    O3 7293   0.286   3.706  10.630 -0.0676  0.1421  0.9663
   66CHL1   H3' 7294   0.342   3.633  10.657 -1.0986  0.3499  4.0051
   66CHL1    C4 7295   0.386   3.596  10.434 -0.0377 -0.7647 -0.1198
   66CHL1   H4A 7296   0.484   3.643  10.454 -0.4259  0.2800 -0.5756
   66CHL1   H4B 7297   0.370   3.505  10.495 -2.7623  1.1053  2.1916
   66CHL1    C5 7298   0.381   3.572  10.283  0.2127 -0.0867  0.5089
   66CHL1    C6 7299   0.373   3.448  10.237  0.2770 -0.0428  0.7894
   66CHL1    H6 7300   0.391   3.370  10.313  2.9583  0.0365  0.3205
   66CHL1    C7 7301   0.361   3.420  10.090  0.1896  0.3586 -1.0641
   66CHL1   H7A 7302   0.441   3.348  10.064 -0.5000 -0.8550  0.0438
   66CHL1   H7B 7303   0.261   3.373  10.078  0.4712 -0.6410  0.2749
   66CHL1    C8 7304   0.388   3.543  10.002 -0.0070  0.5180 -0.1715
   66CHL1    H8 7305   0.497   3.555   9.987  0.2331  0.3292  1.2516
   66CHL1   C14 7306   0.321   3.508   9.868  0.0644 -0.5057 -0.1158
   66CHL1   H14 7307   0.212   3.494   9.887  0.2319 -2.2186 -0.2290
   66CHL1   C15 7308   0.361   3.380   9.794 -0.2832 -0.1549 -0.6208
   66CHL1  H15A 7309   0.471   3.370   9.781 -0.2917 -0.0921 -0.7430
   66CHL1  H15B 7310   0.319   3.288   9.841 -3.5811  1.2957 -0.4596
   66CHL1   C16 7311   0.297   3.403   9.658  0.6224 -0.4724  0.9572
   66CHL1  H16A 7312   0.379   3.378   9.587 -1.4008  1.3530 -2.2120
   66CHL1  H16B 7313   0.209   3.337   9.641  0.1115  0.5697 -0.6417
   66CHL1   C17 7314   0.254   3.549   9.641 -0.3921 -0.0141 -0.2636
   66CHL1   H17 7315   0.143   3.552   9.652 -0.6934 -0.5667 -2.6122
   66CHL1   C13 7316   0.325   3.620   9.756 -0.3834 -0.5250 -0.0794
   66CHL1   C18 7317   0.471   3.647   9.722 -0.8899 -0.4269 -0.7170
   66CHL1  H18A 7318   0.523   3.675   9.815 -0.7602 -2.9901  0.0508
   66CHL1  H18B 7319   0.525   3.563   9.674  0.4757 -0.2331  0.4282
   66CHL1  H18C 7320   0.483   3.726   9.645 -0.8447  0.3918  0.1173
   66CHL1   C12 7321   0.261   3.744   9.820  0.3867 -0.2086 -0.1941
   66CHL1  H12A 7322   0.274   3.833   9.755 -0.4122 -1.3691 -2.0327
   66CHL1  H12B 7323   0.152   3.723   9.834 -0.2878  0.9479 -3.0423
   66CHL1   C11 7324   0.322   3.787   9.955  0.2808 -1.3950  0.2254
   66CHL1  H11A 7325   0.427   3.822   9.940 -0.1058  0.2022  1.0023
   66CHL1  H11B 7326   0.262   3.870   9.997  0.7098 -0.6482 -0.6064
   66CHL1    C9 7327   0.318   3.670  10.057 -0.2625 -0.0118  0.5852
   66CHL1    H9 7328   0.216   3.628  10.067 -0.5616  0.6503  0.3461
   66CHL1   C10 7329   0.368   3.704  10.203 -0.2229 -0.1026  0.4441
   66CHL1   C19 7330   0.502   3.785  10.196  0.1413 -0.4898 -0.0494
   66CHL1  H19A 7331   0.494   3.874  10.130 -1.2745  0.2174  0.9993
   66CHL1  H19B 7332   0.533   3.812  10.299  1.3226  0.1069 -0.5395
   66CHL1  H19C 7333   0.593   3.728  10.171  1.3266  0.7170  1.2986
   66CHL1    C1 7334   0.251   3.794  10.271 -0.2538  0.1197 -0.3278
   66CHL1   H1A 7335   0.235   3.890  10.218 -1.0617  1.5224  2.2501
   66CHL1   H1B 7336   0.157   3.736  10.257  1.3569 -2.5843 -0.6121
   66CHL1    C2 7337   0.269   3.819  10.415  0.3871 -0.7317 -0.7090
   66CHL1   H2A 7338   0.182   3.881  10.443  0.6223 -0.5623 -0.3569
   66CHL1   H2B 7339   0.363   3.874  10.432  0.0450  0.3915 -2.1758
   66CHL1   C20 7340   0.288   3.593   9.502 -0.2143 -0.2438  0.1038
   66CHL1   H20 7341   0.395   3.588   9.472 -0.9546  0.5215 -3.0131
   66CHL1   C21 7342   0.247   3.743   9.489 -0.0132 -0.2655  0.1338
   66CHL1  H21A 7343   0.319   3.811   9.539 -1.1028  2.3780 -1.6450
   66CHL1  H21B 7344   0.149   3.761   9.539  0.5702 -0.1319  1.2660
   66CHL1  H21C 7345   0.256   3.784   9.386  0.0518 -0.3668  0.0974
   66CHL1   C22 7346   0.216   3.498   9.405 -0.5791 -0.4765  0.5046
   66CHL1  H22A 7347   0.242   3.393   9.430 -1.4579 -0.7453  0.3457
   66CHL1  H22B 7348   0.107   3.504   9.428 -0.3369  0.6922  1.4561
   66CHL1   C23 7349   0.259   3.518   9.251  0.1627  0.1638 -0.4348
   66CHL1  H23A 7350   0.248   3.626   9.226  0.7977 -0.1766 -2.3503
   66CHL1  H23B 7351   0.365   3.489   9.236  0.2623  0.9322 -1.3498
   66CHL1   C24 7352   0.158   3.441   9.161 -0.4897 -0.0258 -0.0899
   66CHL1  H24A 7353   0.169   3.333   9.185  2.4388 -0.3227 -2.3262
   66CHL1  H24B 7354   0.060   3.480   9.196 -0.5153 -1.4926  1.6494
   66CHL1   C25 7355   0.162   3.458   9.006 -0.2329  0.3854  0.0666
   66CHL1   H25 7356   0.165   3.565   8.975 -1.6258  0.2702 -0.5341
   66CHL1   C26 7357   0.286   3.382   8.961 -0.5130  1.0307  0.1630
   66CHL1  H26A 7358   0.263   3.273   8.957  2.4106  0.1462  3.1850
   66CHL1  H26B 7359   0.312   3.417   8.859  0.1963 -1.0159 -0.4200
   66CHL1  H26C 7360   0.379   3.393   9.021  0.1923  1.1431 -0.9286
   66CHL1   C27 7361   0.028   3.416   8.951 -0.3243  0.0673  0.1264
   66CHL1  H27A 7362  -0.061   3.477   8.981 -1.8520 -2.1621  0.3661
   66CHL1  H27B 7363   0.028   3.418   8.840 -1.8054  2.4742  0.0888
   66CHL1  H27C 7364   0.005   3.308   8.962 -1.5293  0.0430 -2.0238
   67CHL1    C3 7365   0.315   5.236  10.201 -0.9999 -0.1645 -0.0734
   67CHL1    H3 7366   0.279   5.341  10.196  0.3173  0.3271  0.2135
   67CHL1    O3 7367   0.324   5.186  10.331 -0.2067 -0.0063 -0.3782
   67CHL1   H3' 7368   0.414   5.157  10.351 -0.0325  0.0970 -1.0015
   67CHL1    C4 7369   0.231   5.137  10.123 -0.6503 -0.0187 -0.2930
   67CHL1   H4A 7370   0.288   5.042  10.133  0.4550  0.7396  1.0863
   67CHL1   H4B 7371   0.131   5.127  10.169 -0.7206  0.4669 -0.3377
   67CHL1    C5 7372   0.227   5.181   9.978  0.3110 -0.3849 -0.2752
   67CHL1    C6 7373   0.104   5.200   9.922 -0.0357  0.3576  0.0238
   67CHL1    H6 7374   0.012   5.200   9.983 -0.1398  1.1246 -0.1271
   67CHL1    C7 7375   0.085   5.229   9.776  0.9836  0.2389 -0.2334
   67CHL1   H7A 7376   0.021   5.153   9.727  1.3275 -0.7424  0.8006
   67CHL1   H7B 7377   0.040   5.329   9.758  0.8261  0.1950 -0.0792
   67CHL1    C8 7378   0.218   5.218   9.696 -0.2279  0.5509 -0.3511
   67CHL1    H8 7379   0.244   5.111   9.678 -0.7763  0.0590  1.5577
   67CHL1   C14 7380   0.196   5.288   9.563 -0.6108  0.4644  1.0087
   67CHL1   H14 7381   0.151   5.386   9.590  0.2260  0.9261  0.7483
   67CHL1   C15 7382   0.091   5.227   9.473  0.4381 -0.0251  0.2754
   67CHL1  H15A 7383   0.120   5.126   9.438  0.5753  0.5626 -1.3855
   67CHL1  H15B 7384  -0.012   5.215   9.512 -0.4553 -2.3802 -2.4853
   67CHL1   C16 7385   0.099   5.328   9.360 -0.1493 -0.2872 -0.1506
   67CHL1  H16A 7386   0.088   5.277   9.262  1.9564 -0.7293 -0.1991
   67CHL1  H16B 7387   0.018   5.404   9.357  0.3834  0.2955  0.0618
   67CHL1   C17 7388   0.241   5.396   9.362 -0.3890  0.2894 -0.0957
   67CHL1   H17 7389   0.218   5.497   9.402  0.3169 -0.8520  3.5133
   67CHL1   C13 7390   0.318   5.320   9.477 -0.0166 -0.7317 -0.2128
   67CHL1   C18 7391   0.384   5.189   9.416  0.3721 -0.3919 -0.3491
   67CHL1  H18A 7392   0.478   5.218   9.365  0.0965  1.8324  0.3150
   67CHL1  H18B 7393   0.419   5.118   9.493  1.6412 -1.9250 -2.2398
   67CHL1  H18C 7394   0.309   5.146   9.345 -1.2434  0.7237  0.6153
   67CHL1   C12 7395   0.428   5.396   9.560  0.6593  0.3426 -0.0298
   67CHL1  H12A 7396   0.517   5.421   9.499  0.6871 -0.3653 -0.2857
   67CHL1  H12B 7397   0.391   5.496   9.591  0.6974  0.5716 -0.6991
   67CHL1   C11 7398   0.455   5.308   9.681 -0.4588 -0.5897 -0.2358
   67CHL1  H11A 7399   0.489   5.206   9.654 -2.4209 -1.2941 -0.1467
   67CHL1  H11B 7400   0.531   5.347   9.752 -2.9442  0.1035  2.1748
   67CHL1    C9 7401   0.335   5.285   9.770  0.1722 -0.6217  1.0829
   67CHL1    H9 7402   0.297   5.387   9.789  0.4052  0.1703 -2.2605
   67CHL1   C10 7403   0.360   5.207   9.901 -0.2528 -0.7529 -0.3274
   67CHL1   C19 7404   0.419   5.068   9.869 -0.8530  0.2283  0.0488
   67CHL1  H19A 7405   0.426   5.011   9.964  2.5364  1.9998  1.0361
   67CHL1  H19B 7406   0.374   5.014   9.783  0.0542  0.1813 -0.4089
   67CHL1  H19C 7407   0.523   5.093   9.839 -1.2488  2.7966  0.5198
   67CHL1    C1 7408   0.444   5.295  10.002  0.2472 -0.7271  0.5098
   67CHL1   H1A 7409   0.545   5.292   9.955 -0.4269 -1.3409 -0.9553
   67CHL1   H1B 7410   0.396   5.395   9.998 -0.9316 -1.2960  0.1589
   67CHL1    C2 7411   0.456   5.243  10.146  0.2655  0.0449 -0.3154
   67CHL1   H2A 7412   0.540   5.283  10.207  1.1725 -0.2853 -1.3091
   67CHL1   H2B 7413   0.489   5.138  10.127 -0.0521  0.3368 -2.7296
   67CHL1   C20 7414   0.303   5.419   9.227 -0.2241 -0.3676  0.4136
   67CHL1   H20 7415   0.334   5.321   9.186 -0.7627 -0.2693 -0.2498
   67CHL1   C21 7416   0.430   5.494   9.254  0.0691 -0.0707 -0.2318
   67CHL1  H21A 7417   0.481   5.507   9.156 -1.0925  2.1810 -0.6197
   67CHL1  H21B 7418   0.502   5.434   9.312  4.0123  1.1281 -3.4273
   67CHL1  H21C 7419   0.408   5.596   9.293  0.9804  1.4855 -3.4108
   67CHL1   C22 7420   0.200   5.483   9.120  0.3284 -0.3917 -0.3306
   67CHL1  H22A 7421   0.112   5.416   9.108 -1.1847  1.1180  1.6200
   67CHL1  H22B 7422   0.165   5.578   9.164 -2.0643 -1.0621 -0.6415
   67CHL1   C23 7423   0.257   5.501   8.978 -1.0749 -0.2397 -0.0787
   67CHL1  H23A 7424   0.362   5.537   8.989 -1.1862  0.8319 -2.2246
   67CHL1  H23B 7425   0.267   5.400   8.933  0.4195  0.9881 -2.7025
   67CHL1   C24 7426   0.175   5.596   8.894  0.0857 -0.3971 -0.2182
   67CHL1  H24A 7427   0.088   5.532   8.871  1.1589 -2.8125  1.8891
   67CHL1  H24B 7428   0.140   5.670   8.969  1.2958 -1.4845  1.5035
   67CHL1   C25 7429   0.240   5.652   8.769  0.4339  0.4140  0.5504
   67CHL1   H25 7430   0.329   5.710   8.802  0.0146  1.9607 -0.9182
   67CHL1   C26 7431   0.300   5.547   8.674  0.9789 -0.2303  0.2486
   67CHL1  H26A 7432   0.361   5.469   8.724 -0.5470 -2.3577 -1.0627
   67CHL1  H26B 7433   0.224   5.484   8.624  1.8698 -0.3424 -1.0121
   67CHL1  H26C 7434   0.361   5.599   8.596  0.9616  1.7114  1.4522
   67CHL1   C27 7435   0.151   5.754   8.688  0.2605  0.6694 -0.3819
   67CHL1  H27A 7436   0.126   5.855   8.729 -1.7735 -0.2007  0.6619
   67CHL1  H27B 7437   0.204   5.768   8.591  0.9032 -1.2998 -0.3651
   67CHL1  H27C 7438   0.057   5.704   8.657  0.5337  0.1476 -0.3786
   68CHL1    C3 7439   4.635   6.038  10.481  0.2582  0.0988 -0.4001
   68CHL1    H3 7440   4.611   6.133  10.428  0.8660  1.0014  0.8671
   68CHL1    O3 7441   4.626   6.059  10.623 -0.1857 -0.8306  0.6613
   68CHL1   H3' 7442   4.708   6.106  10.639 -0.8809  0.1807  1.4277
   68CHL1    C4 7443   4.527   5.941  10.434  0.6680 -0.4619  0.1372
   68CHL1   H4A 7444   4.541   5.850  10.495 -4.1992 -0.8682  1.0934
   68CHL1   H4B 7445   4.430   5.979  10.474  0.1120 -3.2109  1.5778
   68CHL1    C5 7446   4.517   5.916  10.289  0.2061 -0.1879  0.2372
   68CHL1    C6 7447   4.417   5.957  10.213  0.4016  0.1875 -0.2630
   68CHL1    H6 7448   4.325   6.004  10.252 -0.5206  0.1190 -2.1904
   68CHL1    C7 7449   4.412   5.935  10.056 -0.0158  0.3492 -0.9418
   68CHL1   H7A 7450   4.312   5.903  10.019 -0.8749 -0.3087  1.7306
   68CHL1   H7B 7451   4.448   6.024  10.002  0.6013 -0.6135 -2.1595
   68CHL1    C8 7452   4.517   5.824  10.019  1.1282  0.0850  0.3901
   68CHL1    H8 7453   4.482   5.731  10.069 -0.7744  1.7079  2.2533
   68CHL1   C14 7454   4.518   5.819   9.867 -1.4382  0.0714  0.1016
   68CHL1   H14 7455   4.546   5.921   9.832 -0.7318 -0.4773 -1.0334
   68CHL1   C15 7456   4.393   5.797   9.793  0.5090  0.2098  0.0351
   68CHL1  H15A 7457   4.356   5.710   9.851  1.9612 -0.5303 -0.1175
   68CHL1  H15B 7458   4.315   5.877   9.796 -0.5491 -0.8287  1.5106
   68CHL1   C16 7459   4.434   5.752   9.657 -0.5824 -0.4840  0.6187
   68CHL1  H16A 7460   4.377   5.658   9.637 -1.5709  0.5623 -1.9037
   68CHL1  H16B 7461   4.398   5.826   9.582 -1.8991 -1.5902  0.0964
   68CHL1   C17 7462   4.591   5.740   9.657  0.6974  0.5976  0.9169
   68CHL1   H17 7463   4.621   5.836   9.610 -0.4532 -0.5992 -2.5568
   68CHL1   C13 7464   4.625   5.721   9.801 -0.1549 -1.0065  0.3493
   68CHL1   C18 7465   4.584   5.579   9.844  0.0274  0.6282 -0.1434
   68CHL1  H18A 7466   4.666   5.515   9.803  0.0109 -0.2003  1.0587
   68CHL1  H18B 7467   4.580   5.555   9.952 -2.2347  0.4389 -0.2228
   68CHL1  H18C 7468   4.488   5.540   9.806 -0.6634  3.2383 -1.2869
   68CHL1   C12 7469   4.765   5.762   9.848 -0.8628 -0.1004  0.5422
   68CHL1  H12A 7470   4.835   5.683   9.813 -0.9032  0.0935  0.0078
   68CHL1  H12B 7471   4.786   5.853   9.787 -4.1642 -0.8916 -2.1017
   68CHL1   C11 7472   4.767   5.783   9.997 -0.7632 -0.3413 -1.0335
   68CHL1  H11A 7473   4.771   5.681  10.041  0.6785 -0.6602 -1.8314
   68CHL1  H11B 7474   4.863   5.831  10.027  0.9191 -1.8338 -3.7352
   68CHL1    C9 7475   4.652   5.864  10.067  0.5424  0.5265 -0.7527
   68CHL1    H9 7476   4.670   5.968  10.033  3.2199  0.0967 -0.8553
   68CHL1   C10 7477   4.646   5.867  10.229 -0.7922 -0.6317  0.2826
   68CHL1   C19 7478   4.673   5.722  10.278  0.0439 -0.5092  0.6267
   68CHL1  H19A 7479   4.603   5.650  10.230  1.0124 -1.1152  0.1022
   68CHL1  H19B 7480   4.773   5.683  10.254 -0.1957 -1.3481  0.9629
   68CHL1  H19C 7481   4.666   5.704  10.388  1.5307 -2.2943  0.4814
   68CHL1    C1 7482   4.769   5.964  10.276  0.5706 -0.0217 -0.4801
   68CHL1   H1A 7483   4.863   5.911  10.250 -0.0173 -0.9311 -0.7950
   68CHL1   H1B 7484   4.767   6.061  10.221  1.3755  1.3859  1.8431
   68CHL1    C2 7485   4.766   5.989  10.429 -0.1530 -0.0753  0.0098
   68CHL1   H2A 7486   4.842   6.068  10.449 -1.0734  0.7788  0.2330
   68CHL1   H2B 7487   4.791   5.890  10.471 -1.0832 -0.8763 -1.2405
   68CHL1   C20 7488   4.629   5.640   9.548 -0.3999  0.9379  0.0673
   68CHL1   H20 7489   4.588   5.543   9.584 -0.0902  1.6201  2.4539
   68CHL1   C21 7490   4.787   5.631   9.550 -0.0255  1.5031 -0.1746
   68CHL1  H21A 7491   4.830   5.732   9.567  1.8055  0.7275  0.1236
   68CHL1  H21B 7492   4.832   5.580   9.462 -1.0590  0.9262 -0.3912
   68CHL1  H21C 7493   4.814   5.568   9.638 -0.0138 -0.3878 -1.4838
   68CHL1   C22 7494   4.586   5.687   9.411  0.5568 -0.1142  0.3581
   68CHL1  H22A 7495   4.478   5.712   9.420  0.8122  1.1589  0.0012
   68CHL1  H22B 7496   4.634   5.784   9.389  1.1159 -0.4829 -0.0683
   68CHL1   C23 7497   4.608   5.587   9.296  0.1087 -0.0745 -0.4835
   68CHL1  H23A 7498   4.712   5.548   9.307 -0.4637 -1.1928  1.4525
   68CHL1  H23B 7499   4.531   5.508   9.311 -0.0680  0.1888  0.0231
   68CHL1   C24 7500   4.584   5.661   9.162 -0.2700  0.0695  0.2092
   68CHL1  H24A 7501   4.475   5.679   9.147 -0.5122 -1.0557  0.5551
   68CHL1  H24B 7502   4.631   5.762   9.162 -1.1522  0.5465 -2.0077
   68CHL1   C25 7503   4.635   5.573   9.044  0.4483  0.2389 -0.1288
   68CHL1   H25 7504   4.579   5.478   9.054 -2.0175  1.1280 -3.5336
   68CHL1   C26 7505   4.594   5.638   8.913 -0.0703 -0.2301  0.3113
   68CHL1  H26A 7506   4.602   5.560   8.833  3.3286  1.0949 -0.8196
   68CHL1  H26B 7507   4.495   5.689   8.918 -0.1393 -0.2360 -0.7009
   68CHL1  H26C 7508   4.667   5.717   8.887 -1.8376  1.4827  0.2899
   68CHL1   C27 7509   4.787   5.562   9.040 -0.6888 -0.4798  0.0425
   68CHL1  H27A 7510   4.841   5.659   9.032  0.3654 -1.1203 -0.9237
   68CHL1  H27B 7511   4.826   5.504   9.126 -0.0184  0.6974  0.5617
   68CHL1  H27C 7512   4.819   5.509   8.948  0.9221  0.1983  0.1725
   69CHL1    C3 7513   3.349   4.694   6.751  0.1115  0.1509 -0.1093
   69CHL1    H3 7514   3.333   4.590   6.785 -0.1648  0.3688  0.4374
   69CHL1    O3 7515   3.365   4.706   6.610  0.0259  0.0773  0.5227
   69CHL1   H3' 7516   3.335   4.621   6.578  0.8651 -0.2062  0.4472
   69CHL1    C4 7517   3.224   4.779   6.772 -0.3587  0.3422 -0.4581
   69CHL1   H4A 7518   3.228   4.873   6.712  1.0694  1.7346  1.6370
   69CHL1   H4B 7519   3.137   4.723   6.733 -0.7716  0.7757 -0.1705
   69CHL1    C5 7520   3.204   4.816   6.921  0.8706  0.6168 -0.5989
   69CHL1    C6 7521   3.082   4.792   6.977 -0.0972  0.1243  0.9926
   69CHL1    H6 7522   2.999   4.742   6.927  1.3933  0.2021 -1.7714
   69CHL1    C7 7523   3.050   4.832   7.114  0.1699  0.8595  0.2602
   69CHL1   H7A 7524   2.962   4.901   7.118  1.3308  2.3460  1.1141
   69CHL1   H7B 7525   3.034   4.744   7.180  1.3125 -0.1921 -0.8074
   69CHL1    C8 7526   3.158   4.925   7.176 -0.5412  0.8348 -0.2707
   69CHL1    H8 7527   3.145   5.029   7.139 -0.8732  1.0771  0.5076
   69CHL1   C14 7528   3.144   4.919   7.330  0.3083 -1.0086  0.0624
   69CHL1   H14 7529   3.185   4.823   7.370  0.6811  0.0196  2.3205
   69CHL1   C15 7530   3.001   4.917   7.385 -0.3477 -0.4169  0.3193
   69CHL1  H15A 7531   2.939   4.995   7.334 -2.0388 -0.7667  1.7455
   69CHL1  H15B 7532   2.956   4.816   7.373 -0.2835 -0.5460  1.1217
   69CHL1   C16 7533   3.019   4.956   7.534 -0.2466  0.9727 -0.4127
   69CHL1  H16A 7534   2.968   5.054   7.543 -1.0904  0.6326 -1.2576
   69CHL1  H16B 7535   2.978   4.884   7.609  0.8311  0.2033 -0.5414
   69CHL1   C17 7536   3.169   4.983   7.559 -0.5806  0.2043 -0.0613
   69CHL1   H17 7537   3.212   4.882   7.578 -1.3140 -0.1023  0.0175
   69CHL1   C13 7538   3.226   5.015   7.416 -0.1906 -0.6012  0.4674
   69CHL1   C18 7539   3.197   5.157   7.375  0.4927 -0.4794 -0.2565
   69CHL1  H18A 7540   3.259   5.198   7.293 -1.7480 -0.9938 -2.3523
   69CHL1  H18B 7541   3.092   5.168   7.340  0.1968 -2.4829 -0.0774
   69CHL1  H18C 7542   3.217   5.224   7.462 -2.7204 -1.9943  1.8563
   69CHL1   C12 7543   3.370   4.990   7.372 -0.2677 -0.3648 -0.4298
   69CHL1  H12A 7544   3.435   5.063   7.425 -0.1072 -0.7528 -0.0764
   69CHL1  H12B 7545   3.406   4.897   7.422  0.3792  1.2353  2.3031
   69CHL1   C11 7546   3.397   4.989   7.222  0.4804 -0.6018  0.1442
   69CHL1  H11A 7547   3.386   5.091   7.179  1.6304 -0.8292 -0.7643
   69CHL1  H11B 7548   3.504   4.958   7.213  0.7250 -1.3570  4.0194
   69CHL1    C9 7549   3.299   4.890   7.152  0.5711  0.3407  0.1947
   69CHL1    H9 7550   3.316   4.793   7.203  0.1078  0.1917  0.0700
   69CHL1   C10 7551   3.327   4.873   7.003  0.6221  0.2717  0.4819
   69CHL1   C19 7552   3.344   5.023   6.946 -0.7419  0.6896 -0.5327
   69CHL1  H19A 7553   3.382   5.005   6.843  1.9475 -1.8759  0.7680
   69CHL1  H19B 7554   3.260   5.094   6.930  0.2737  2.3562  1.1627
   69CHL1  H19C 7555   3.422   5.078   7.002 -0.3008  0.1524 -0.6059
   69CHL1    C1 7556   3.456   4.789   6.972  0.1039 -0.2597  0.1324
   69CHL1   H1A 7557   3.543   4.852   7.001 -0.6813 -0.3219  3.0314
   69CHL1   H1B 7558   3.451   4.698   7.036  1.5836 -0.1620  0.4110
   69CHL1    C2 7559   3.474   4.749   6.822 -0.4071  1.3398 -0.3626
   69CHL1   H2A 7560   3.546   4.666   6.807  0.1782  1.0619  3.2378
   69CHL1   H2B 7561   3.512   4.842   6.773 -0.1165  1.3342 -0.1516
   69CHL1   C20 7562   3.193   5.071   7.675 -0.5340 -0.6932 -0.5659
   69CHL1   H20 7563   3.168   5.177   7.653  0.3542 -0.7093 -1.7558
   69CHL1   C21 7564   3.348   5.073   7.702  0.3113  0.0368  0.2551
   69CHL1  H21A 7565   3.402   4.980   7.674 -1.2691 -0.3206 -1.8407
   69CHL1  H21B 7566   3.375   5.108   7.805  1.5973  0.4030 -0.1787
   69CHL1  H21C 7567   3.399   5.147   7.636  0.8191 -0.7478 -0.2426
   69CHL1   C22 7568   3.114   5.022   7.793  0.1261  0.3265 -0.5566
   69CHL1  H22A 7569   3.007   5.047   7.780 -0.0930 -0.7882 -0.9576
   69CHL1  H22B 7570   3.130   4.916   7.821 -0.6510  0.8053  2.0118
   69CHL1   C23 7571   3.158   5.081   7.932  0.0089 -1.4181  0.2194
   69CHL1  H23A 7572   3.250   5.034   7.972 -0.0823 -2.8737 -1.2180
   69CHL1  H23B 7573   3.167   5.190   7.909 -1.8470 -1.6333 -1.8854
   69CHL1   C24 7574   3.034   5.071   8.035 -0.0830  0.6517  1.2362
   69CHL1  H24A 7575   2.945   5.110   7.982 -0.0604  1.3676  1.7188
   69CHL1  H24B 7576   3.019   4.962   8.051  0.6976 -0.3381 -3.3067
   69CHL1   C25 7577   3.059   5.157   8.156 -0.1276  0.2574 -0.3606
   69CHL1   H25 7578   3.162   5.152   8.197  0.2392  0.8274 -1.1873
   69CHL1   C26 7579   3.028   5.308   8.134 -0.4030  0.2991 -0.0334
   69CHL1  H26A 7580   3.043   5.375   8.221 -1.6732  0.4211  0.1139
   69CHL1  H26B 7581   3.102   5.349   8.061  1.4378 -2.5174  0.1189
   69CHL1  H26C 7582   2.934   5.328   8.077 -0.4000 -2.2740 -1.0579
   69CHL1   C27 7583   2.979   5.106   8.273  0.0120  0.0844  0.0916
   69CHL1  H27A 7584   3.001   5.167   8.363 -1.4769  0.5129  0.2036
   69CHL1  H27B 7585   2.870   5.100   8.249  0.5890  0.2213 -3.0205
   69CHL1  H27C 7586   3.014   5.005   8.301  1.1141  0.0423 -1.3514
   70CHL1    C3 7587   2.418   3.620   7.064  0.3539 -0.1922 -0.4325
   70CHL1    H3 7588   2.410   3.511   7.047  0.9199 -0.3929  0.4970
   70CHL1    O3 7589   2.439   3.691   6.950  0.2168 -0.4801  0.6256
   70CHL1   H3' 7590   2.534   3.693   6.934 -0.0774  0.6962 -1.2246
   70CHL1    C4 7591   2.296   3.682   7.134  0.4327  0.3598  0.5463
   70CHL1   H4A 7592   2.300   3.793   7.132  1.5773  0.3490  1.3869
   70CHL1   H4B 7593   2.208   3.654   7.071  2.4056  1.7618 -3.1332
   70CHL1    C5 7594   2.284   3.630   7.278  0.1065  0.0929  0.7175
   70CHL1    C6 7595   2.170   3.563   7.308  0.1758 -0.3042 -0.5071
   70CHL1    H6 7596   2.085   3.548   7.239 -2.1440  2.4649  1.5240
   70CHL1    C7 7597   2.148   3.497   7.443  0.1069 -0.0350  0.1126
   70CHL1   H7A 7598   2.048   3.513   7.489  0.0971 -1.7163  0.7292
   70CHL1   H7B 7599   2.173   3.389   7.446  1.7484  0.2056 -2.3916
   70CHL1    C8 7600   2.235   3.566   7.551 -0.6994 -0.5971  0.5984
   70CHL1    H8 7601   2.189   3.667   7.555  0.2979 -0.1044  0.0351
   70CHL1   C14 7602   2.220   3.505   7.691 -0.2258 -0.0513 -0.1727
   70CHL1   H14 7603   2.266   3.404   7.681  1.3935  0.6757 -0.5427
   70CHL1   C15 7604   2.081   3.480   7.751  0.5039  0.0630 -0.0390
   70CHL1  H15A 7605   2.014   3.565   7.724  0.2384 -0.0576  0.2270
   70CHL1  H15B 7606   2.032   3.390   7.708  0.2098  0.9483 -1.6542
   70CHL1   C16 7607   2.116   3.455   7.899  0.2102  0.2646 -0.2422
   70CHL1  H16A 7608   2.044   3.514   7.960  0.3778 -0.5244  0.7601
   70CHL1  H16B 7609   2.108   3.346   7.919  0.2851  0.6178  2.0881
   70CHL1   C17 7610   2.267   3.486   7.915  0.2885  0.0619  0.4235
   70CHL1   H17 7611   2.316   3.393   7.880  1.5183 -0.2309  2.7498
   70CHL1   C13 7612   2.304   3.574   7.796 -0.7882  0.0228 -0.2314
   70CHL1   C18 7613   2.231   3.711   7.838 -0.6304  0.2012 -0.1120
   70CHL1  H18A 7614   2.239   3.790   7.760 -1.7788 -0.4675 -0.9437
   70CHL1  H18B 7615   2.124   3.719   7.864 -0.5303 -0.5465  0.5841
   70CHL1  H18C 7616   2.295   3.758   7.916 -0.6458 -0.9564  0.6258
   70CHL1   C12 7617   2.453   3.565   7.752 -0.2612  0.1517  0.4733
   70CHL1  H12A 7618   2.519   3.614   7.826  0.2657  2.5789 -1.4519
   70CHL1  H12B 7619   2.482   3.459   7.733 -0.8439  0.1237 -0.3044
   70CHL1   C11 7620   2.478   3.637   7.615  0.4356  0.2436 -0.2368
   70CHL1  H11A 7621   2.483   3.745   7.640 -0.7212 -0.0249  1.3388
   70CHL1  H11B 7622   2.583   3.612   7.590 -0.4940 -3.8967 -0.6148
   70CHL1    C9 7623   2.383   3.580   7.509  0.5020  0.3755  0.0787
   70CHL1    H9 7624   2.403   3.471   7.500 -1.0102 -0.0028  1.0207
   70CHL1   C10 7625   2.402   3.646   7.368  0.2288  0.1307  0.1189
   70CHL1   C19 7626   2.410   3.800   7.387 -0.3984  0.4739  0.3270
   70CHL1  H19A 7627   2.403   3.863   7.296  0.7430  0.3663  0.1463
   70CHL1  H19B 7628   2.350   3.839   7.471  2.9740  1.5343  2.4648
   70CHL1  H19C 7629   2.513   3.820   7.424 -1.4368  2.9963  2.0662
   70CHL1    C1 7630   2.529   3.590   7.297  0.0078 -0.1110  0.3024
   70CHL1   H1A 7631   2.611   3.622   7.363  0.3241 -0.8336  0.2730
   70CHL1   H1B 7632   2.534   3.479   7.297 -0.1852 -0.1211  0.3427
   70CHL1    C2 7633   2.543   3.645   7.153 -0.1554  0.8028 -0.3303
   70CHL1   H2A 7634   2.643   3.614   7.115  0.4161  2.4055 -0.2199
   70CHL1   H2B 7635   2.548   3.756   7.157 -1.9244  0.8899  0.1414
   70CHL1   C20 7636   2.333   3.511   8.053  0.2028 -0.5349 -0.6005
   70CHL1   H20 7637   2.426   3.571   8.042 -0.2027  0.6018  1.5783
   70CHL1   C21 7638   2.371   3.381   8.122  0.0765  0.3880 -0.7331
   70CHL1  H21A 7639   2.440   3.318   8.062  1.2250  0.7653  0.1539
   70CHL1  H21B 7640   2.278   3.322   8.136 -0.3094  0.8970 -1.0994
   70CHL1  H21C 7641   2.410   3.400   8.224 -2.8971  1.3411  0.3250
   70CHL1   C22 7642   2.244   3.589   8.155  0.9568  0.1014  0.5313
   70CHL1  H22A 7643   2.216   3.683   8.104  0.1995 -0.8320 -0.8316
   70CHL1  H22B 7644   2.147   3.536   8.168  0.9465  0.2004  0.8643
   70CHL1   C23 7645   2.295   3.615   8.298 -0.3536  0.5163  0.1105
   70CHL1  H23A 7646   2.264   3.529   8.363  0.5938  1.9102  2.5511
   70CHL1  H23B 7647   2.404   3.633   8.286  0.2821 -3.5377 -1.8048
   70CHL1   C24 7648   2.246   3.752   8.365 -0.1082 -0.2320 -0.6328
   70CHL1  H24A 7649   2.289   3.762   8.467 -0.8395 -0.1139 -0.3305
   70CHL1  H24B 7650   2.292   3.827   8.296  1.3016 -0.7244 -0.2428
   70CHL1   C25 7651   2.097   3.768   8.378  0.0883 -0.0224  0.0303
   70CHL1   H25 7652   2.051   3.733   8.283 -0.0740  0.1450  0.0472
   70CHL1   C26 7653   2.044   3.685   8.496  0.4892 -0.1394  1.0164
   70CHL1  H26A 7654   2.072   3.578   8.483  0.0175 -0.0493 -0.9284
   70CHL1  H26B 7655   2.082   3.730   8.590 -2.1952  2.4914  0.9891
   70CHL1  H26C 7656   1.934   3.694   8.502  0.5190  0.5084  0.5936
   70CHL1   C27 7657   2.068   3.920   8.415  0.3531  0.1719 -0.0190
   70CHL1  H27A 7658   1.961   3.941   8.436  0.0540 -0.1029 -1.2314
   70CHL1  H27B 7659   2.109   3.943   8.516 -0.0734  0.2427  0.1381
   70CHL1  H27C 7660   2.107   3.995   8.344 -0.9701 -0.1691 -1.1435
   71CHL1    C3 7661   0.521   2.814   6.971 -0.2294  0.1802 -0.0932
   71CHL1    H3 7662   0.606   2.744   6.985  0.1616  0.6868  0.1063
   71CHL1    O3 7663   0.491   2.836   6.836 -0.2466 -0.1409  0.2602
   71CHL1   H3' 7664   0.431   2.911   6.827 -0.4494 -0.1045  1.6168
   71CHL1    C4 7665   0.402   2.746   7.044  0.0200 -0.4313 -0.1283
   71CHL1   H4A 7666   0.317   2.816   7.034 -0.0090 -0.6146 -1.4590
   71CHL1   H4B 7667   0.372   2.657   6.985 -4.3245  0.5965  0.2352
   71CHL1    C5 7668   0.423   2.721   7.189 -0.6368  0.3559  1.1558
   71CHL1    C6 7669   0.407   2.596   7.240  0.0895  0.5831 -0.6678
   71CHL1    H6 7670   0.379   2.509   7.178  1.7333  1.1111 -2.2522
   71CHL1    C7 7671   0.452   2.558   7.382  0.3549  1.2332  0.0074
   71CHL1   H7A 7672   0.384   2.486   7.432  0.6381  0.0956 -1.2147
   71CHL1   H7B 7673   0.548   2.503   7.373 -1.1874 -1.5418 -0.5163
   71CHL1    C8 7674   0.453   2.686   7.469  0.4750 -0.7066 -0.6119
   71CHL1    H8 7675   0.352   2.731   7.476  0.0899 -1.7758  1.3946
   71CHL1   C14 7676   0.502   2.646   7.602  0.1793 -0.0035 -0.0075
   71CHL1   H14 7677   0.606   2.608   7.589  0.6776  1.7603 -1.7572
   71CHL1   C15 7678   0.423   2.534   7.673 -1.0895  0.1484  0.5154
   71CHL1  H15A 7679   0.314   2.555   7.671 -1.2385 -0.5952 -0.8647
   71CHL1  H15B 7680   0.429   2.434   7.624  0.8784 -0.5282  2.0021
   71CHL1   C16 7681   0.491   2.547   7.813  0.3220  0.3224 -0.4452
   71CHL1  H16A 7682   0.420   2.512   7.890  0.8973 -2.9248 -1.2483
   71CHL1  H16B 7683   0.576   2.476   7.815  2.0023  2.1695 -1.7788
   71CHL1   C17 7684   0.563   2.688   7.829 -0.1669  0.1123  0.3650
   71CHL1   H17 7685   0.673   2.675   7.821 -0.1767 -1.2744  1.8581
   71CHL1   C13 7686   0.516   2.764   7.697  0.2078 -0.4371 -0.3170
   71CHL1   C18 7687   0.381   2.837   7.736 -0.5450  0.0985  0.0417
   71CHL1  H18A 7688   0.321   2.869   7.648 -0.4134  0.4910  0.0932
   71CHL1  H18B 7689   0.314   2.773   7.797 -0.0285  1.2013  1.8438
   71CHL1  H18C 7690   0.401   2.921   7.806 -3.2489 -0.3199  1.4546
   71CHL1   C12 7691   0.612   2.860   7.629  0.1624 -0.6196 -0.0598
   71CHL1  H12A 7692   0.622   2.948   7.695  0.9959 -1.3639  0.8452
   71CHL1  H12B 7693   0.711   2.809   7.627  0.5277 -0.1294  2.3981
   71CHL1   C11 7694   0.581   2.911   7.493  0.0592 -0.2163 -0.2392
   71CHL1  H11A 7695   0.499   2.985   7.505  1.2657  1.3921 -1.3902
   71CHL1  H11B 7696   0.661   2.977   7.452 -1.8063  2.2564 -0.1286
   71CHL1    C9 7697   0.538   2.799   7.401  0.0925  0.7141  0.1366
   71CHL1    H9 7698   0.631   2.743   7.377 -0.6836 -1.1923  1.3611
   71CHL1   C10 7699   0.477   2.841   7.263 -0.6093 -0.8614 -0.4375
   71CHL1   C19 7700   0.368   2.943   7.293  0.7044 -0.3932 -0.2158
   71CHL1  H19A 7701   0.406   3.042   7.327 -1.3443 -0.9563  4.6484
   71CHL1  H19B 7702   0.306   2.967   7.204 -1.1506  1.1837  1.3957
   71CHL1  H19C 7703   0.304   2.913   7.379  0.1565  0.2677 -0.3790
   71CHL1    C1 7704   0.587   2.923   7.183 -0.0735 -0.5268 -0.6063
   71CHL1   H1A 7705   0.606   3.027   7.218  2.4025 -0.0851 -2.9072
   71CHL1   H1B 7706   0.680   2.867   7.201 -0.7538 -1.1811  1.1545
   71CHL1    C2 7707   0.548   2.950   7.038 -0.3226  0.0816 -0.1251
   71CHL1   H2A 7708   0.633   3.001   6.987  0.4830 -2.4205 -1.4723
   71CHL1   H2B 7709   0.460   3.018   7.043  0.6802  1.3070  1.6050
   71CHL1   C20 7710   0.543   2.763   7.958  0.1552 -0.0163 -0.5417
   71CHL1   H20 7711   0.435   2.786   7.973  0.0564  0.6094 -2.0320
   71CHL1   C21 7712   0.627   2.889   7.958 -0.3386 -0.9636  0.1234
   71CHL1  H21A 7713   0.716   2.887   7.892 -0.1169  1.2669  0.2905
   71CHL1  H21B 7714   0.652   2.920   8.062  0.0701  2.6661 -0.8981
   71CHL1  H21C 7715   0.572   2.973   7.909 -0.6021 -0.2783  1.5492
   71CHL1   C22 7716   0.576   2.676   8.082  0.4881 -0.3109 -0.1173
   71CHL1  H22A 7717   0.504   2.591   8.080  0.7219 -0.5044 -0.4922
   71CHL1  H22B 7718   0.679   2.635   8.085  0.0896 -1.3004  1.0072
   71CHL1   C23 7719   0.549   2.745   8.221  0.6462  0.4781  0.4647
   71CHL1  H23A 7720   0.638   2.804   8.249  1.5837 -1.0432  0.8345
   71CHL1  H23B 7721   0.461   2.813   8.217 -0.1364 -0.5448 -3.0683
   71CHL1   C24 7722   0.510   2.646   8.337 -0.7047 -0.6533  0.1352
   71CHL1  H24A 7723   0.425   2.580   8.310 -1.2136  0.0153  0.0520
   71CHL1  H24B 7724   0.592   2.572   8.341 -0.7296 -0.6312  1.3606
   71CHL1   C25 7725   0.487   2.697   8.474 -0.2192  0.1915  0.3470
   71CHL1   H25 7726   0.442   2.610   8.527 -0.7626  0.9562  1.1590
   71CHL1   C26 7727   0.619   2.737   8.549 -0.5422 -0.1825 -0.1013
   71CHL1  H26A 7728   0.659   2.829   8.503  1.9145 -0.8862  0.4914
   71CHL1  H26B 7729   0.603   2.749   8.659  0.0685 -0.2770 -0.0008
   71CHL1  H26C 7730   0.692   2.654   8.537 -1.0702 -0.7175  0.3239
   71CHL1   C27 7731   0.380   2.807   8.487 -1.1942  0.1252  0.7088
   71CHL1  H27A 7732   0.363   2.823   8.596 -2.6680  0.0154  0.5172
   71CHL1  H27B 7733   0.409   2.899   8.433 -0.5416 -0.1785  0.5312
   71CHL1  H27C 7734   0.285   2.768   8.444 -1.1767 -1.9586  2.3758
   72CHL1    C3 7735   3.660   4.090   7.053 -0.3367  0.4826  0.3368
   72CHL1    H3 7736   3.762   4.134   7.058  0.1554 -0.7117  1.3606
   72CHL1    O3 7737   3.634   4.058   6.912  0.0969 -0.0988  0.3404
   72CHL1   H3' 7738   3.542   4.034   6.912  0.6369 -2.6290  2.0252
   72CHL1    C4 7739   3.654   3.957   7.144  0.2157  0.0602 -0.3519
   72CHL1   H4A 7740   3.564   3.894   7.125  0.3917  0.0738 -1.2959
   72CHL1   H4B 7741   3.740   3.892   7.116 -0.1147 -0.4842 -0.1028
   72CHL1    C5 7742   3.658   3.987   7.296  0.4227 -0.4164 -0.1048
   72CHL1    C6 7743   3.752   3.921   7.373  0.1167  0.4614  0.3645
   72CHL1    H6 7744   3.813   3.840   7.330 -0.5694 -0.4843  1.1296
   72CHL1    C7 7745   3.764   3.936   7.519 -0.1442 -0.4269 -0.0893
   72CHL1   H7A 7746   3.754   3.840   7.574  0.0376  0.8820  2.3583
   72CHL1   H7B 7747   3.863   3.977   7.548 -0.3019 -0.5681  0.6541
   72CHL1    C8 7748   3.643   4.014   7.587 -0.0213  0.8025  0.5212
   72CHL1    H8 7749   3.552   3.951   7.587  1.2640 -1.2206 -1.5247
   72CHL1   C14 7750   3.691   4.051   7.727  0.2664  0.3225  0.5819
   72CHL1   H14 7751   3.771   4.127   7.719 -2.2405  3.3192  1.7073
   72CHL1   C15 7752   3.750   3.937   7.814  0.2973  0.1709 -0.3650
   72CHL1  H15A 7753   3.694   3.841   7.803  0.7837 -0.4214  1.9494
   72CHL1  H15B 7754   3.858   3.923   7.796  1.0688 -0.1234  3.5763
   72CHL1   C16 7755   3.731   3.993   7.952  0.5054  0.1287 -0.6938
   72CHL1  H16A 7756   3.670   3.922   8.012 -1.2646  2.0565 -0.1228
   72CHL1  H16B 7757   3.834   4.004   7.993  0.9464 -0.4444 -1.6070
   72CHL1   C17 7758   3.655   4.124   7.942  0.3721  0.1357 -0.0481
   72CHL1   H17 7759   3.735   4.200   7.930  2.6876 -2.3927 -1.8167
   72CHL1   C13 7760   3.585   4.121   7.810  0.4111 -0.3725  0.8192
   72CHL1   C18 7761   3.453   4.039   7.819 -0.5694  0.4080 -0.3414
   72CHL1  H18A 7762   3.381   4.092   7.885 -1.6495 -1.4333  0.0251
   72CHL1  H18B 7763   3.391   4.002   7.735  0.2613 -2.8944  0.3470
   72CHL1  H18C 7764   3.477   3.946   7.874 -0.8709  0.4958 -0.0638
   72CHL1   C12 7765   3.555   4.253   7.735 -0.0091 -0.2006  0.1707
   72CHL1  H12A 7766   3.466   4.297   7.783  0.6222 -0.8401  2.0013
   72CHL1  H12B 7767   3.633   4.332   7.742 -1.2419  1.2240 -1.4612
   72CHL1   C11 7768   3.520   4.233   7.584  0.0453 -0.2533 -0.1621
   72CHL1  H11A 7769   3.423   4.178   7.576 -0.9599  1.5073 -0.5892
   72CHL1  H11B 7770   3.506   4.329   7.530  0.3012 -0.3014 -0.3172
   72CHL1    C9 7771   3.612   4.138   7.498 -0.2746 -0.4733 -0.1170
   72CHL1    H9 7772   3.707   4.195   7.487 -0.4123 -0.4688 -1.4309
   72CHL1   C10 7773   3.567   4.105   7.350  0.0801  0.3247  0.8994
   72CHL1   C19 7774   3.420   4.058   7.348 -0.4066 -0.3567  0.1867
   72CHL1  H19A 7775   3.403   3.980   7.426 -0.6133 -0.3692  0.1286
   72CHL1  H19B 7776   3.350   4.142   7.366 -2.5349 -1.4457 -2.3225
   72CHL1  H19C 7777   3.395   4.019   7.247 -1.4527  2.4026 -0.7312
   72CHL1    C1 7778   3.592   4.230   7.256 -0.2907 -0.2272 -0.9185
   72CHL1   H1A 7779   3.529   4.318   7.281  2.5377  1.2571  1.6779
   72CHL1   H1B 7780   3.698   4.260   7.265 -0.1691 -0.7780 -0.4548
   72CHL1    C2 7781   3.576   4.205   7.107 -0.1791 -0.4170  0.0223
   72CHL1   H2A 7782   3.600   4.307   7.071 -2.1517  0.5831  1.3680
   72CHL1   H2B 7783   3.468   4.184   7.093 -0.5942  1.8138 -0.4183
   72CHL1   C20 7784   3.574   4.155   8.069 -0.4954 -0.0649 -0.0459
   72CHL1   H20 7785   3.502   4.077   8.104 -1.9980  0.9100 -0.8389
   72CHL1   C21 7786   3.492   4.285   8.047 -0.2129  0.0483  0.3580
   72CHL1  H21A 7787   3.397   4.258   7.997  0.7875 -2.1070 -0.4812
   72CHL1  H21B 7788   3.556   4.355   7.989  0.4953 -1.1463 -0.3451
   72CHL1  H21C 7789   3.455   4.325   8.145 -2.4569 -1.3804  0.1598
   72CHL1   C22 7790   3.665   4.184   8.188 -0.4468  0.2942  0.2239
   72CHL1  H22A 7791   3.747   4.256   8.165  1.5562 -2.0860 -0.5390
   72CHL1  H22B 7792   3.595   4.232   8.259 -0.1291 -0.9423  1.4217
   72CHL1   C23 7793   3.721   4.067   8.268  0.6365 -0.1254  0.0532
   72CHL1  H23A 7794   3.638   3.994   8.281 -0.0940  0.5242 -0.7855
   72CHL1  H23B 7795   3.803   4.020   8.209  1.2329  2.5497 -1.3972
   72CHL1   C24 7796   3.778   4.100   8.408 -0.8448  0.4259  0.5684
   72CHL1  H24A 7797   3.856   4.178   8.406  1.8696 -2.1042  0.8786
   72CHL1  H24B 7798   3.693   4.132   8.473 -1.3604 -0.2963  0.2761
   72CHL1   C25 7799   3.843   3.976   8.474 -0.2936  0.1212 -0.8466
   72CHL1   H25 7800   3.922   3.941   8.405  1.3157  2.5914 -0.4048
   72CHL1   C26 7801   3.912   4.027   8.601 -0.2713 -0.4804 -0.4281
   72CHL1  H26A 7802   3.993   4.096   8.569 -0.8207  2.0489  3.0635
   72CHL1  H26B 7803   3.854   4.088   8.674  2.5377 -0.1616  1.7369
   72CHL1  H26C 7804   3.951   3.936   8.652 -1.5560 -1.2207 -0.7277
   72CHL1   C27 7805   3.741   3.866   8.515 -0.2125  0.2688  0.1843
   72CHL1  H27A 7806   3.666   3.904   8.588 -0.4186 -0.8472  0.5831
   72CHL1  H27B 7807   3.696   3.828   8.420  0.7776  0.3020 -0.3087
   72CHL1  H27C 7808   3.790   3.778   8.562 -2.5380 -1.3656 -0.2139
   73CHL1    C3 7809   0.545   5.056   7.108 -0.0565  0.2646 -0.0578
   73CHL1    H3 7810   0.635   5.009   7.152 -0.4850  1.3629  2.1008
   73CHL1    O3 7811   0.566   5.070   6.968 -0.2358  0.0580  0.5423
   73CHL1   H3' 7812   0.504   5.135   6.935  0.4049  0.7502  0.6808
   73CHL1    C4 7813   0.422   4.970   7.143  0.5315 -0.7079 -0.0583
   73CHL1   H4A 7814   0.336   5.030   7.106 -0.3326 -0.9580  1.4563
   73CHL1   H4B 7815   0.432   4.874   7.088 -1.1289 -1.0623  0.1881
   73CHL1    C5 7816   0.410   4.957   7.300  0.2114  0.5919 -0.0662
   73CHL1    C6 7817   0.393   4.841   7.360 -0.3318  0.2415  0.2337
   73CHL1    H6 7818   0.379   4.756   7.292 -1.0425 -1.2049  2.0846
   73CHL1    C7 7819   0.368   4.821   7.506  0.3832 -0.0076  0.5909
   73CHL1   H7A 7820   0.273   4.763   7.508  0.8289 -0.8200 -0.5947
   73CHL1   H7B 7821   0.452   4.757   7.541  0.2165 -0.0728  0.8727
   73CHL1    C8 7822   0.358   4.954   7.587  0.1541 -0.2081  0.3662
   73CHL1    H8 7823   0.255   4.993   7.591  0.1682 -0.2265  0.9428
   73CHL1   C14 7824   0.411   4.934   7.724  0.3609  0.2490 -0.1982
   73CHL1   H14 7825   0.519   4.907   7.715  0.7719  0.0153  3.5823
   73CHL1   C15 7826   0.363   4.813   7.796  0.1202  0.1228  0.3176
   73CHL1  H15A 7827   0.252   4.815   7.790  0.0030  3.0292  1.4983
   73CHL1  H15B 7828   0.414   4.723   7.756  0.8036  0.4222  0.4925
   73CHL1   C16 7829   0.414   4.840   7.941  0.3996  0.9079  0.2184
   73CHL1  H16A 7830   0.336   4.826   8.019  2.7955 -1.5267  2.3829
   73CHL1  H16B 7831   0.490   4.771   7.983 -1.1761 -0.7341  0.5499
   73CHL1   C17 7832   0.463   4.978   7.948  0.0884 -0.8470 -0.6905
   73CHL1   H17 7833   0.572   4.983   7.925  0.3859  1.0781  0.8947
   73CHL1   C13 7834   0.407   5.046   7.826 -0.0546  0.2942  0.7217
   73CHL1   C18 7835   0.266   5.087   7.838  0.4820  0.1842 -0.4960
   73CHL1  H18A 7836   0.196   5.008   7.874  1.1704 -0.9984 -1.6817
   73CHL1  H18B 7837   0.260   5.168   7.914  1.5253  0.1479 -0.3703
   73CHL1  H18C 7838   0.241   5.129   7.738 -0.2707  2.0345  0.4082
   73CHL1   C12 7839   0.501   5.156   7.762 -0.0509 -0.3192 -0.7317
   73CHL1  H12A 7840   0.483   5.249   7.821 -1.2656 -0.9956 -0.0175
   73CHL1  H12B 7841   0.606   5.121   7.766  0.8587  2.2539  0.8544
   73CHL1   C11 7842   0.465   5.190   7.611 -0.6140 -0.5857  0.4925
   73CHL1  H11A 7843   0.372   5.251   7.605 -1.1362 -1.2838  1.2924
   73CHL1  H11B 7844   0.543   5.258   7.570 -0.7413 -0.6180  0.1978
   73CHL1    C9 7845   0.443   5.065   7.522 -0.4824 -0.4594 -0.4624
   73CHL1    H9 7846   0.545   5.022   7.513 -0.1439  0.5708 -2.0446
   73CHL1   C10 7847   0.417   5.089   7.377  0.0357  0.1279  0.3181
   73CHL1   C19 7848   0.279   5.148   7.364 -0.2225  0.6224 -0.1877
   73CHL1  H19A 7849   0.271   5.237   7.430 -0.6513  0.8038 -0.4751
   73CHL1  H19B 7850   0.245   5.179   7.263 -0.3393  1.6664  0.1502
   73CHL1  H19C 7851   0.197   5.081   7.398 -1.6267  0.8134 -2.9238
   73CHL1    C1 7852   0.520   5.191   7.320 -0.4375  0.5108  0.1770
   73CHL1   H1A 7853   0.496   5.291   7.362  0.2440  0.8472 -0.2239
   73CHL1   H1B 7854   0.619   5.164   7.361 -0.3854  1.1212  0.4655
   73CHL1    C2 7855   0.523   5.195   7.174  0.3309  0.0035  0.4034
   73CHL1   H2A 7856   0.596   5.271   7.139 -0.9694  0.7316 -0.8133
   73CHL1   H2B 7857   0.426   5.243   7.148  1.4562  1.3065 -1.6545
   73CHL1   C20 7858   0.439   5.047   8.086  0.3753  0.6765 -0.0988
   73CHL1   H20 7859   0.334   5.073   8.110  0.4887  1.3519 -0.2965
   73CHL1   C21 7860   0.507   5.191   8.085  0.0782 -0.6827  0.5405
   73CHL1  H21A 7861   0.434   5.259   8.035  0.1344 -1.7279 -1.0581
   73CHL1  H21B 7862   0.609   5.190   8.041  1.6839  1.5322  3.7805
   73CHL1  H21C 7863   0.505   5.225   8.190 -0.9361  0.1900  0.2675
   73CHL1   C22 7864   0.506   4.966   8.198  0.1522  0.0514  0.2165
   73CHL1  H22A 7865   0.496   5.011   8.299  0.0917  0.7320 -0.0868
   73CHL1  H22B 7866   0.458   4.866   8.195  0.8705 -0.2849 -1.3662
   73CHL1   C23 7867   0.657   4.931   8.174  0.1012 -0.6121  0.3475
   73CHL1  H23A 7868   0.673   4.860   8.090  3.2316 -0.3102  0.5689
   73CHL1  H23B 7869   0.710   5.017   8.128 -2.1545 -0.6269 -2.6035
   73CHL1   C24 7870   0.717   4.853   8.294  0.3242 -0.4004 -0.3212
   73CHL1  H24A 7871   0.722   4.921   8.382  0.5555 -0.8804  0.0460
   73CHL1  H24B 7872   0.643   4.772   8.313  0.2860 -0.6532 -1.4640
   73CHL1   C25 7873   0.841   4.768   8.261  0.4989  0.0643  0.2813
   73CHL1   H25 7874   0.819   4.699   8.177  1.4887 -3.5507  2.7450
   73CHL1   C26 7875   0.955   4.863   8.219  0.5235  0.4872  0.6275
   73CHL1  H26A 7876   1.043   4.806   8.181  0.2875 -0.0357  0.8537
   73CHL1  H26B 7877   0.921   4.916   8.127 -1.2358  0.7550  1.3943
   73CHL1  H26C 7878   0.999   4.925   8.300 -0.4048  0.8034  0.9001
   73CHL1   C27 7879   0.877   4.672   8.378 -0.4056 -0.1273  0.8858
   73CHL1  H27A 7880   0.948   4.593   8.346 -1.2526 -1.2758  1.7613
   73CHL1  H27B 7881   0.926   4.742   8.449  0.0442  1.1119 -0.5962
   73CHL1  H27C 7882   0.781   4.633   8.417 -1.5987  0.7400 -1.0530
   74CHL1    C3 7883   6.524   5.630   6.642  0.2207 -0.0195  0.2213
   74CHL1    H3 7884   6.623   5.586   6.668 -0.5237 -0.7029  2.1179
   74CHL1    O3 7885   6.513   5.645   6.502  0.5809 -0.0801 -0.2294
   74CHL1   H3' 7886   6.420   5.666   6.489 -0.3104 -3.5801 -0.5382
   74CHL1    C4 7887   6.416   5.531   6.694  0.0374  0.2325  0.0589
   74CHL1   H4A 7888   6.317   5.571   6.661  0.0536  0.1676 -0.0690
   74CHL1   H4B 7889   6.434   5.434   6.643 -2.9095  0.2505 -1.2070
   74CHL1    C5 7890   6.401   5.514   6.847  1.0648 -0.6278  0.7885
   74CHL1    C6 7891   6.411   5.392   6.906  0.0564 -0.4911  0.4809
   74CHL1    H6 7892   6.411   5.301   6.845  0.2272  0.4832 -1.0231
   74CHL1    C7 7893   6.409   5.378   7.055 -0.2455  0.4609 -0.2442
   74CHL1   H7A 7894   6.345   5.289   7.068  1.0467 -0.8556 -2.3447
   74CHL1   H7B 7895   6.511   5.341   7.081 -0.2759 -0.4867 -1.3909
   74CHL1    C8 7896   6.366   5.497   7.137 -0.2785 -0.6831  0.3158
   74CHL1    H8 7897   6.257   5.518   7.133  0.2300  2.8182  1.2741
   74CHL1   C14 7898   6.407   5.480   7.282  0.6396 -0.2228  0.9718
   74CHL1   H14 7899   6.518   5.476   7.280  0.5987 -1.7848 -0.6861
   74CHL1   C15 7900   6.365   5.350   7.357  0.5722 -0.3138 -0.3673
   74CHL1  H15A 7901   6.259   5.329   7.329 -0.1079 -0.5893  2.1278
   74CHL1  H15B 7902   6.436   5.267   7.332  0.6291  0.5215 -3.3941
   74CHL1   C16 7903   6.380   5.385   7.502 -0.0012  0.0327 -0.3420
   74CHL1  H16A 7904   6.274   5.370   7.533 -0.7621 -2.6376 -3.5424
   74CHL1  H16B 7905   6.457   5.332   7.562  0.3115  1.5276  0.6229
   74CHL1   C17 7906   6.403   5.545   7.514 -0.0777  0.6495 -0.3246
   74CHL1   H17 7907   6.513   5.551   7.526  0.5642 -1.3904 -3.7441
   74CHL1   C13 7908   6.374   5.600   7.372 -0.5413 -1.0196 -0.2464
   74CHL1   C18 7909   6.221   5.639   7.381 -0.4161  0.2234  0.3101
   74CHL1  H18A 7910   6.154   5.555   7.408 -0.9917 -1.1407 -4.4131
   74CHL1  H18B 7911   6.214   5.729   7.445 -1.0415  1.3514 -1.2765
   74CHL1  H18C 7912   6.186   5.673   7.281 -0.6823 -1.0005 -0.0326
   74CHL1   C12 7913   6.454   5.724   7.315  0.1633 -0.2772 -0.3470
   74CHL1  H12A 7914   6.428   5.810   7.380  0.6741 -0.3156 -0.0896
   74CHL1  H12B 7915   6.563   5.706   7.325  0.7168  2.6253 -0.4237
   74CHL1   C11 7916   6.422   5.747   7.167  0.4893  0.2992  0.6462
   74CHL1  H11A 7917   6.326   5.800   7.153  0.6434  0.3103 -0.4636
   74CHL1  H11B 7918   6.493   5.821   7.124 -0.9610  0.4895 -1.5243
   74CHL1    C9 7919   6.436   5.627   7.072  0.4645  0.4075 -0.0357
   74CHL1    H9 7920   6.543   5.598   7.075  0.5013  0.5970  0.7301
   74CHL1   C10 7921   6.408   5.646   6.927  0.0136 -0.3646 -0.2803
   74CHL1   C19 7922   6.262   5.705   6.921 -0.2191  0.0641  0.6662
   74CHL1  H19A 7923   6.235   5.729   6.815  0.1766 -0.6800  0.3965
   74CHL1  H19B 7924   6.192   5.623   6.946 -0.8890  0.1736 -0.7149
   74CHL1  H19C 7925   6.236   5.796   6.979  0.0154  0.4765  0.1358
   74CHL1    C1 7926   6.501   5.755   6.867 -0.0285 -1.5097  0.0298
   74CHL1   H1A 7927   6.469   5.854   6.906 -0.1369 -2.3108  2.0373
   74CHL1   H1B 7928   6.608   5.730   6.886  0.3556 -0.4496 -0.6021
   74CHL1    C2 7929   6.505   5.767   6.709 -0.1582  0.0584  0.0874
   74CHL1   H2A 7930   6.588   5.830   6.671  0.7434 -0.8592  0.4863
   74CHL1   H2B 7931   6.409   5.811   6.675 -0.6015 -0.6460  0.4179
   74CHL1   C20 7932   6.349   5.606   7.638 -0.0418 -0.6664 -0.8715
   74CHL1   H20 7933   6.241   5.629   7.627  0.1716  0.0314 -1.6352
   74CHL1   C21 7934   6.413   5.748   7.665  0.3627 -0.1636 -0.2707
   74CHL1  H21A 7935   6.390   5.818   7.582 -2.2517 -1.6199 -0.9050
   74CHL1  H21B 7936   6.522   5.734   7.680  0.7878  1.1177 -1.8915
   74CHL1  H21C 7937   6.363   5.799   7.751 -0.3367  0.6395 -1.1326
   74CHL1   C22 7938   6.376   5.518   7.761 -0.2572  0.1409  0.3840
   74CHL1  H22A 7939   6.360   5.411   7.736 -1.6846  0.5387 -0.4934
   74CHL1  H22B 7940   6.478   5.540   7.800  0.1156  1.2447 -1.1345
   74CHL1   C23 7941   6.278   5.539   7.875 -0.3315  0.1989 -1.1342
   74CHL1  H23A 7942   6.278   5.643   7.914 -1.5898 -1.3091  3.6591
   74CHL1  H23B 7943   6.178   5.509   7.839 -0.4539  1.2644 -1.7264
   74CHL1   C24 7944   6.312   5.453   8.002 -0.0649 -0.0621 -0.0473
   74CHL1  H24A 7945   6.420   5.475   8.017  0.3558 -1.4909 -0.7916
   74CHL1  H24B 7946   6.256   5.505   8.082 -0.2940  1.0078 -0.8738
   74CHL1   C25 7947   6.280   5.306   7.991  0.6517  0.2353  0.4477
   74CHL1   H25 7948   6.324   5.278   7.893  0.7521  0.2543  0.4872
   74CHL1   C26 7949   6.340   5.229   8.104 -0.0480  0.5021  0.2305
   74CHL1  H26A 7950   6.338   5.303   8.187  0.6536 -0.2216  0.9082
   74CHL1  H26B 7951   6.271   5.146   8.130  1.5653 -0.0688  3.1637
   74CHL1  H26C 7952   6.443   5.208   8.069 -0.0564 -2.0074  1.5075
   74CHL1   C27 7953   6.125   5.285   7.978  0.0925  0.2762  0.0925
   74CHL1  H27A 7954   6.091   5.341   7.889  1.4329  0.6547 -0.2098
   74CHL1  H27B 7955   6.108   5.175   7.967 -0.2148  0.2583  0.7113
   74CHL1  H27C 7956   6.090   5.322   8.076 -0.2767  0.6370 -0.1764
   75CHL1    C3 7957   3.658   6.383   6.758 -0.5998  0.6181  0.2318
   75CHL1    H3 7958   3.674   6.485   6.799  0.8435  1.8337 -2.9651
   75CHL1    O3 7959   3.687   6.400   6.621 -0.4432 -0.0606  0.0885
   75CHL1   H3' 7960   3.782   6.409   6.619 -0.4835  0.5572  0.6353
   75CHL1    C4 7961   3.764   6.281   6.816 -0.3940 -0.1011  0.0636
   75CHL1   H4A 7962   3.768   6.182   6.766  1.7962  0.3282 -0.7487
   75CHL1   H4B 7963   3.862   6.327   6.791 -0.5590 -0.0771 -0.5590
   75CHL1    C5 7964   3.742   6.258   6.969 -0.0747  0.2609 -0.3398
   75CHL1    C6 7965   3.838   6.276   7.071  1.1398  0.1123 -0.3078
   75CHL1    H6 7966   3.934   6.307   7.028  0.5860  0.7283 -1.1568
   75CHL1    C7 7967   3.823   6.248   7.217  0.5451  0.4196 -1.2520
   75CHL1   H7A 7968   3.902   6.188   7.268 -1.8616 -3.3034 -1.4749
   75CHL1   H7B 7969   3.811   6.344   7.272  0.8844 -0.0112 -0.3898
   75CHL1    C8 7970   3.689   6.176   7.253  0.2048 -0.9013  0.1173
   75CHL1    H8 7971   3.694   6.065   7.250  0.2090 -0.9175  0.6640
   75CHL1   C14 7972   3.650   6.199   7.401  0.3529 -0.0902 -0.0933
   75CHL1   H14 7973   3.624   6.307   7.408 -0.0320 -0.0227 -1.9745
   75CHL1   C15 7974   3.756   6.186   7.508 -0.2420 -0.9017  0.3569
   75CHL1  H15A 7975   3.804   6.090   7.481  1.1731  0.5039 -2.6546
   75CHL1  H15B 7976   3.828   6.271   7.504 -1.2064 -0.0556  0.5282
   75CHL1   C16 7977   3.681   6.182   7.641  0.1775  0.1144  0.6247
   75CHL1  H16A 7978   3.698   6.083   7.689 -0.6639  0.2482  1.2234
   75CHL1  H16B 7979   3.702   6.265   7.711 -1.5452  1.2431 -0.1119
   75CHL1   C17 7980   3.530   6.180   7.599  0.6387 -0.0832  0.1733
   75CHL1   H17 7981   3.497   6.286   7.602 -2.3360 -0.9142  0.1863
   75CHL1   C13 7982   3.524   6.132   7.451  0.0445 -0.4703  0.1247
   75CHL1   C18 7983   3.537   5.976   7.453  0.5089 -0.5537  0.0868
   75CHL1  H18A 7984   3.553   5.936   7.351 -1.0875 -1.6966  0.2592
   75CHL1  H18B 7985   3.613   5.938   7.525 -0.3421  1.9096  2.4595
   75CHL1  H18C 7986   3.436   5.949   7.490  0.5050 -1.7404 -0.7263
   75CHL1   C12 7987   3.411   6.174   7.359  0.1553  0.6061 -0.0627
   75CHL1  H12A 7988   3.320   6.115   7.385  2.1238 -2.0909  1.2570
   75CHL1  H12B 7989   3.388   6.281   7.378  2.0467  1.6027 -2.7293
   75CHL1   C11 7990   3.446   6.153   7.208 -0.3915  0.0132  0.2254
   75CHL1  H11A 7991   3.450   6.045   7.182 -0.0556  0.1776 -0.4304
   75CHL1  H11B 7992   3.356   6.185   7.150 -1.3523 -1.0302  1.0916
   75CHL1    C9 7993   3.577   6.229   7.161 -0.7079  0.6279 -0.3931
   75CHL1    H9 7994   3.560   6.336   7.185 -0.6480  1.0379 -2.0188
   75CHL1   C10 7995   3.598   6.220   7.014  0.2318  0.2128 -0.4391
   75CHL1   C19 7996   3.580   6.076   6.965  0.6931  0.1410  0.2290
   75CHL1  H19A 7997   3.476   6.037   6.960  0.4987 -0.0367  3.4403
   75CHL1  H19B 7998   3.621   6.054   6.864  0.7061 -1.8800  0.6355
   75CHL1  H19C 7999   3.635   6.007   7.032 -0.4817  1.4037  2.6274
   75CHL1    C1 8000   3.494   6.311   6.934 -0.5484 -0.4478 -0.8453
   75CHL1   H1A 8001   3.397   6.261   6.956 -1.6348  0.3389 -3.4522
   75CHL1   H1B 8002   3.489   6.410   6.984 -0.1499 -0.2663 -1.1544
   75CHL1    C2 8003   3.514   6.335   6.782 -0.1517  0.2613  0.3521
   75CHL1   H2A 8004   3.437   6.407   6.745 -2.0280 -0.3868  2.7128
   75CHL1   H2B 8005   3.497   6.232   6.746  0.8740 -0.1036  0.8813
   75CHL1   C20 8006   3.442   6.108   7.701  0.2261  0.0429  0.2369
   75CHL1   H20 8007   3.472   6.001   7.693 -1.0319 -0.5048  2.0691
   75CHL1   C21 8008   3.294   6.133   7.672  0.0483 -0.0771 -0.1585
   75CHL1  H21A 8009   3.225   6.085   7.745 -0.0385 -1.3142 -1.0235
   75CHL1  H21B 8010   3.270   6.087   7.573 -0.1834  1.1522 -0.6914
   75CHL1  H21C 8011   3.268   6.241   7.672 -2.0509 -0.4825  2.4935
   75CHL1   C22 8012   3.470   6.133   7.853  0.1547 -0.7681  0.0732
   75CHL1  H22A 8013   3.387   6.085   7.910  1.5240  0.8488  3.7293
   75CHL1  H22B 8014   3.564   6.078   7.877  0.4173 -1.6888 -2.7497
   75CHL1   C23 8015   3.472   6.287   7.891 -0.5652  0.3742 -0.5807
   75CHL1  H23A 8016   3.535   6.347   7.822 -0.3013  1.2029  0.3594
   75CHL1  H23B 8017   3.369   6.331   7.890 -1.4483 -1.5881 -1.5146
   75CHL1   C24 8018   3.524   6.290   8.038 -0.0917 -0.5161 -0.6922
   75CHL1  H24A 8019   3.443   6.237   8.091 -0.5391  0.3249 -0.5086
   75CHL1  H24B 8020   3.620   6.237   8.055 -0.8996 -2.1703 -1.1059
   75CHL1   C25 8021   3.539   6.428   8.097 -0.1968 -0.0417  0.5230
   75CHL1   H25 8022   3.446   6.488   8.084  1.3454  2.8545  1.7334
   75CHL1   C26 8023   3.566   6.427   8.248  0.0436  0.0915 -0.2313
   75CHL1  H26A 8024   3.479   6.376   8.294  1.6256 -2.4762  0.1144
   75CHL1  H26B 8025   3.657   6.368   8.272 -0.1916  0.4777  1.7776
   75CHL1  H26C 8026   3.572   6.533   8.282 -0.7213  0.6159 -1.6166
   75CHL1   C27 8027   3.652   6.509   8.033 -0.0804 -0.2122  0.5869
   75CHL1  H27A 8028   3.635   6.521   7.924 -0.2808 -0.1785  0.6217
   75CHL1  H27B 8029   3.651   6.609   8.080 -0.3204 -0.0926  0.3255
   75CHL1  H27C 8030   3.744   6.446   8.041 -0.3021 -1.0015 -2.0497
   76CHL1    C3 8031   0.145   6.621   7.253  1.0116 -0.1735  0.1119
   76CHL1    H3 8032   0.192   6.720   7.272 -1.1035  0.8038  0.4523
   76CHL1    O3 8033   0.153   6.584   7.113 -0.3899  0.2781 -0.4224
   76CHL1   H3' 8034   0.142   6.667   7.066 -0.8541  0.3325 -0.2190
   76CHL1    C4 8035   0.210   6.511   7.334 -0.3158  0.5356 -0.6175
   76CHL1   H4A 8036   0.172   6.415   7.294 -0.4072  0.6037 -0.6964
   76CHL1   H4B 8037   0.319   6.518   7.311  0.1527 -0.1352  1.2729
   76CHL1    C5 8038   0.191   6.538   7.482  0.0192  0.4183  0.5860
   76CHL1    C6 8039   0.301   6.555   7.566 -0.3623 -0.1420 -0.2662
   76CHL1    H6 8040   0.401   6.539   7.523 -0.7208 -1.6408 -0.5935
   76CHL1    C7 8041   0.278   6.581   7.714  0.4163  0.8855  0.6021
   76CHL1   H7A 8042   0.356   6.539   7.781  2.3939 -0.2312 -2.2020
   76CHL1   H7B 8043   0.306   6.688   7.729  3.1846  0.4925 -1.0196
   76CHL1    C8 8044   0.139   6.546   7.770  0.0745 -0.6133 -0.7950
   76CHL1    H8 8045   0.132   6.436   7.784  2.9202 -0.5426  2.2862
   76CHL1   C14 8046   0.114   6.611   7.899  0.4711  0.8231 -0.7516
   76CHL1   H14 8047   0.124   6.721   7.884 -1.4694  1.0481 -0.7534
   76CHL1   C15 8048   0.229   6.584   8.015  0.8221 -0.1565  0.5367
   76CHL1  H15A 8049   0.263   6.478   8.013  0.6954 -0.1961 -0.9334
   76CHL1  H15B 8050   0.320   6.642   7.988 -0.4587  1.0383 -1.4795
   76CHL1   C16 8051   0.155   6.604   8.148  0.4584 -0.5135  0.2290
   76CHL1  H16A 8052   0.174   6.519   8.217  1.3545 -0.5374 -0.0387
   76CHL1  H16B 8053   0.198   6.692   8.199 -0.2167  0.8094 -1.3960
   76CHL1   C17 8054   0.005   6.639   8.119  0.0132  0.3716  0.1227
   76CHL1   H17 8055  -0.015   6.748   8.113 -0.2604  0.3697  0.8467
   76CHL1   C13 8056  -0.019   6.585   7.968  0.3037  0.0739  0.4127
   76CHL1   C18 8057  -0.049   6.437   7.968  0.1470  0.1331  0.1201
   76CHL1  H18A 8058  -0.082   6.398   7.870  0.0113 -0.0772  0.2475
   76CHL1  H18B 8059   0.041   6.387   8.010 -0.0375 -0.4568 -0.1721
   76CHL1  H18C 8060  -0.134   6.408   8.034  1.0732  0.0369  1.3122
   76CHL1   C12 8061  -0.122   6.669   7.882 -0.1195  0.4896  0.2778
   76CHL1  H12A 8062  -0.227   6.649   7.912 -0.4507  0.1051 -1.0716
   76CHL1  H12B 8063  -0.115   6.780   7.896  1.1972  0.5482 -0.6676
   76CHL1   C11 8064  -0.115   6.627   7.733  0.3667  0.7787 -0.2107
   76CHL1  H11A 8065  -0.160   6.526   7.721  1.4653  0.1715  0.5962
   76CHL1  H11B 8066  -0.171   6.703   7.675  0.5937  0.8675 -0.3154
   76CHL1    C9 8067   0.041   6.613   7.677  0.1852  0.2623 -0.2447
   76CHL1    H9 8068   0.070   6.719   7.665 -1.3118  0.6497 -0.5867
   76CHL1   C10 8069   0.047   6.559   7.531  0.4842 -0.4110 -0.4028
   76CHL1   C19 8070  -0.022   6.422   7.528  0.0369 -0.0949  0.3773
   76CHL1  H19A 8071   0.026   6.345   7.592  1.1349  0.0141 -0.2774
   76CHL1  H19B 8072  -0.130   6.423   7.553 -0.6676  0.2052 -2.3786
   76CHL1  H19C 8073  -0.027   6.381   7.425  0.4846 -0.0772  0.3455
   76CHL1    C1 8074  -0.024   6.658   7.433  0.2277 -0.3978 -0.1976
   76CHL1   H1A 8075  -0.132   6.666   7.457  0.1020  0.7015 -1.0647
   76CHL1   H1B 8076   0.016   6.761   7.445 -1.3067  0.1381  0.5342
   76CHL1    C2 8077  -0.006   6.622   7.285 -1.2765 -0.1335 -0.0137
   76CHL1   H2A 8078  -0.050   6.705   7.225  1.1799  1.0542 -0.2960
   76CHL1   H2B 8079  -0.049   6.526   7.251  0.0062 -1.1675  1.1857
   76CHL1   C20 8080  -0.092   6.601   8.231 -0.2265  0.8939 -0.2329
   76CHL1   H20 8081  -0.099   6.490   8.226  0.6133  0.8777 -1.4041
   76CHL1   C21 8082  -0.231   6.655   8.204 -0.7202 -0.0717 -0.6976
   76CHL1  H21A 8083  -0.226   6.765   8.194  1.2609 -0.0806 -0.2340
   76CHL1  H21B 8084  -0.298   6.637   8.290 -0.2336 -2.8145 -0.7987
   76CHL1  H21C 8085  -0.277   6.613   8.111 -0.8855 -0.5428 -0.4090
   76CHL1   C22 8086  -0.038   6.632   8.375  0.9913  0.5219  0.5324
   76CHL1  H22A 8087   0.067   6.596   8.381  0.3618 -1.6583 -0.6129
   76CHL1  H22B 8088  -0.022   6.741   8.385 -0.5737  0.7724  0.5729
   76CHL1   C23 8089  -0.133   6.589   8.483 -0.2761  0.5080 -0.3130
   76CHL1  H23A 8090  -0.226   6.650   8.484 -1.6598 -1.4909  0.5146
   76CHL1  H23B 8091  -0.162   6.487   8.448 -1.5256  0.3764  0.9846
   76CHL1   C24 8092  -0.068   6.602   8.619  1.0256  0.0414 -0.3027
   76CHL1  H24A 8093   0.033   6.556   8.616  0.2674 -1.6470 -2.5751
   76CHL1  H24B 8094  -0.052   6.712   8.624  0.6513  0.1460 -1.2416
   76CHL1   C25 8095  -0.145   6.552   8.747 -0.5615 -0.1997  0.2618
   76CHL1   H25 8096  -0.247   6.597   8.747 -0.3024  0.3905  0.9538
   76CHL1   C26 8097  -0.151   6.402   8.724  0.1786 -0.3245 -0.2104
   76CHL1  H26A 8098  -0.199   6.352   8.811 -1.8138  0.3952 -0.8461
   76CHL1  H26B 8099  -0.219   6.368   8.643  1.1544 -1.6450 -0.5087
   76CHL1  H26C 8100  -0.050   6.357   8.717  1.0825  1.8320 -2.0584
   76CHL1   C27 8101  -0.081   6.582   8.878 -0.6111  0.2348 -0.0771
   76CHL1  H27A 8102  -0.082   6.692   8.897 -2.2240  0.3699 -0.7534
   76CHL1  H27B 8103  -0.128   6.533   8.966  0.1931 -0.4240 -0.0006
   76CHL1  H27C 8104   0.024   6.546   8.880 -1.2833 -1.8758  2.0751
   77CHL1    C3 8105   0.545   6.124   7.216 -0.0107  0.3843  0.5008
   77CHL1    H3 8106   0.637   6.181   7.241  0.2812  0.2518 -0.2759
   77CHL1    O3 8107   0.539   6.100   7.076  0.4960  0.6718 -0.3057
   77CHL1   H3' 8108   0.554   6.188   7.039 -0.9437  0.9076 -0.4046
   77CHL1    C4 8109   0.539   5.984   7.278 -0.1483 -0.8229  0.0956
   77CHL1   H4A 8110   0.465   5.912   7.238 -0.4395  1.2178 -3.5012
   77CHL1   H4B 8111   0.640   5.947   7.252  0.5271  2.3487 -2.5292
   77CHL1    C5 8112   0.527   5.988   7.434 -0.1203  0.3860 -0.6093
   77CHL1    C6 8113   0.608   5.910   7.507  0.7647  0.1858 -0.0917
   77CHL1    H6 8114   0.684   5.849   7.456  0.4861 -0.3948  0.1879
   77CHL1    C7 8115   0.591   5.904   7.660  0.0718 -0.0566 -0.6361
   77CHL1   H7A 8116   0.578   5.799   7.696  0.6596  0.7597  2.1991
   77CHL1   H7B 8117   0.684   5.945   7.705  2.0975  1.0831 -5.2037
   77CHL1    C8 8118   0.462   5.976   7.721 -0.0120  0.1307  1.2423
   77CHL1    H8 8119   0.385   5.897   7.707  0.0222  0.4876 -1.5599
   77CHL1   C14 8120   0.491   6.015   7.861 -0.4740 -0.5684  0.7382
   77CHL1   H14 8121   0.560   6.102   7.867 -0.2148 -0.5493 -1.5070
   77CHL1   C15 8122   0.561   5.916   7.954 -0.1127  0.1278  0.0766
   77CHL1  H15A 8123   0.519   5.817   7.924 -0.5037  0.7644 -1.5977
   77CHL1  H15B 8124   0.671   5.900   7.954 -0.1196 -0.1275  1.8123
   77CHL1   C16 8125   0.510   5.957   8.095  0.0314  0.2890  0.2388
   77CHL1  H16A 8126   0.451   5.877   8.143 -0.5657  0.0267 -0.9008
   77CHL1  H16B 8127   0.603   5.979   8.152  0.3532 -1.5477  0.4832
   77CHL1   C17 8128   0.414   6.080   8.076 -0.1407  0.4421  0.1259
   77CHL1   H17 8129   0.476   6.172   8.087 -0.2550  0.3230  2.3527
   77CHL1   C13 8130   0.360   6.064   7.932  0.3593  0.2213  0.9848
   77CHL1   C18 8131   0.248   5.956   7.930 -0.1178  0.1144  0.5071
   77CHL1  H18A 8132   0.157   5.978   7.990 -0.4237 -1.1245  0.5259
   77CHL1  H18B 8133   0.225   5.948   7.822  4.9738  1.5433 -0.9540
   77CHL1  H18C 8134   0.293   5.856   7.952 -2.1066 -1.0619 -0.5057
   77CHL1   C12 8135   0.313   6.198   7.864  0.3702 -0.0346  0.0357
   77CHL1  H12A 8136   0.216   6.230   7.906  0.3736  0.3855 -0.2665
   77CHL1  H12B 8137   0.389   6.273   7.895  0.3938 -0.1530  0.2720
   77CHL1   C11 8138   0.302   6.186   7.713  0.2170 -0.1044 -0.0110
   77CHL1  H11A 8139   0.206   6.133   7.698 -0.1779  1.0132 -1.7722
   77CHL1  H11B 8140   0.289   6.288   7.670 -0.3372 -0.5720 -0.9723
   77CHL1    C9 8141   0.421   6.105   7.650 -0.3988  0.0590  0.3355
   77CHL1    H9 8142   0.502   6.179   7.666 -0.6792  0.0646  1.8935
   77CHL1   C10 8143   0.410   6.081   7.487 -0.2182 -0.9431 -0.7334
   77CHL1   C19 8144   0.270   6.012   7.467 -0.5976  0.4373  0.3189
   77CHL1  H19A 8145   0.252   5.936   7.546 -0.3253  0.5089  0.4478
   77CHL1  H19B 8146   0.187   6.085   7.480 -0.0905  0.6961  2.4085
   77CHL1  H19C 8147   0.245   5.984   7.362  0.6447 -0.7095  0.3052
   77CHL1    C1 8148   0.406   6.215   7.413  0.2224 -0.1200  1.1241
   77CHL1   H1A 8149   0.301   6.249   7.429  0.1283 -0.6625  1.6997
   77CHL1   H1B 8150   0.472   6.290   7.459  0.7926  1.0222 -1.3799
   77CHL1    C2 8151   0.419   6.207   7.256 -0.7070 -0.1970  0.0965
   77CHL1   H2A 8152   0.427   6.308   7.210 -0.3486 -0.6368 -0.8289
   77CHL1   H2B 8153   0.328   6.152   7.225 -2.3993  1.3870  1.9484
   77CHL1   C20 8154   0.314   6.070   8.195 -0.0486 -0.1689  0.0205
   77CHL1   H20 8155   0.262   5.971   8.194  0.1905 -0.3047  0.6422
   77CHL1   C21 8156   0.219   6.188   8.182  0.1020 -0.0617  0.0379
   77CHL1  H21A 8157   0.263   6.289   8.169  1.6128 -0.9014 -1.8871
   77CHL1  H21B 8158   0.157   6.208   8.272  0.1451 -2.6540  0.7310
   77CHL1  H21C 8159   0.144   6.173   8.101 -1.7196  2.2565  1.1621
   77CHL1   C22 8160   0.388   6.080   8.334 -0.5216 -0.0436 -0.9873
   77CHL1  H22A 8161   0.464   6.000   8.326 -0.3893 -0.0549  0.1802
   77CHL1  H22B 8162   0.440   6.177   8.339  0.1873 -0.4753  0.9235
   77CHL1   C23 8163   0.289   6.059   8.453  0.2277 -0.5430  0.0147
   77CHL1  H23A 8164   0.225   6.149   8.452 -0.0555 -0.7451 -0.5370
   77CHL1  H23B 8165   0.228   5.969   8.430 -0.0982 -0.0871 -0.9788
   77CHL1   C24 8166   0.362   6.045   8.591  0.0416 -0.2413 -0.0612
   77CHL1  H24A 8167   0.281   5.996   8.649  0.5078 -2.5174 -1.2176
   77CHL1  H24B 8168   0.448   5.974   8.595  1.8264  1.8002  0.0154
   77CHL1   C25 8169   0.413   6.173   8.662  0.3349  0.8158  0.7061
   77CHL1   H25 8170   0.431   6.142   8.767 -0.8757  0.2274  0.7518
   77CHL1   C26 8171   0.531   6.248   8.594  0.2397  0.1891 -0.5580
   77CHL1  H26A 8172   0.497   6.309   8.507 -0.7127 -2.8369 -2.4610
   77CHL1  H26B 8173   0.576   6.315   8.670 -0.3604  1.1951 -1.0604
   77CHL1  H26C 8174   0.607   6.175   8.560  0.8568 -0.1244  1.3730
   77CHL1   C27 8175   0.292   6.270   8.673 -0.2507 -0.7654 -0.3389
   77CHL1  H27A 8176   0.206   6.206   8.700 -0.9743  0.2766 -0.0830
   77CHL1  H27B 8177   0.311   6.351   8.748  1.8487 -1.3158 -0.2051
   77CHL1  H27C 8178   0.263   6.310   8.574  0.1234 -0.9984 -0.5453
   78CHL1    C3 8179   4.555   0.645   6.681  0.6240  0.0033 -0.9512
   78CHL1    H3 8180   4.648   0.706   6.686 -0.6549  2.0138 -0.8157
   78CHL1    O3 8181   4.508   0.628   6.550 -0.6730 -0.7492  0.5463
   78CHL1   H3' 8182   4.577   0.592   6.493 -1.6108  0.8374 -1.7080
   78CHL1    C4 8183   4.566   0.507   6.751 -0.2778  0.7555  0.6524
   78CHL1   H4A 8184   4.474   0.449   6.727  0.7366 -2.4681  3.6284
   78CHL1   H4B 8185   4.651   0.452   6.706 -1.9903 -1.5133 -0.0061
   78CHL1    C5 8186   4.594   0.509   6.900 -0.2520 -0.8439 -0.3026
   78CHL1    C6 8187   4.706   0.450   6.955 -0.2491 -0.6240 -0.1657
   78CHL1    H6 8188   4.757   0.384   6.883 -0.4233 -0.7699 -0.1553
   78CHL1    C7 8189   4.749   0.456   7.100 -0.5277 -0.1373  0.1416
   78CHL1   H7A 8190   4.788   0.355   7.124  1.8701 -0.0018 -2.6540
   78CHL1   H7B 8191   4.831   0.529   7.114  2.5820 -3.3254 -0.0714
   78CHL1    C8 8192   4.631   0.507   7.187 -0.0345  0.7247  0.0199
   78CHL1    H8 8193   4.569   0.416   7.195  0.0006  0.5868 -1.0818
   78CHL1   C14 8194   4.680   0.540   7.326 -0.4622 -0.7499 -0.0262
   78CHL1   H14 8195   4.744   0.629   7.308  0.5975 -1.5565 -0.3640
   78CHL1   C15 8196   4.770   0.440   7.401 -0.1231 -0.1634 -0.1413
   78CHL1  H15A 8197   4.717   0.343   7.388 -2.1566  1.1786 -2.8689
   78CHL1  H15B 8198   4.871   0.430   7.357 -0.5147 -0.1337 -1.0684
   78CHL1   C16 8199   4.773   0.490   7.544  1.0727  0.4974  0.5878
   78CHL1  H16A 8200   4.735   0.412   7.613  0.8722  0.1475  0.0929
   78CHL1  H16B 8201   4.870   0.527   7.583  0.8727  1.2546  0.3882
   78CHL1   C17 8202   4.669   0.606   7.546  0.0273 -0.2473 -0.9041
   78CHL1   H17 8203   4.722   0.698   7.513 -2.3279  0.4847 -2.9275
   78CHL1   C13 8204   4.573   0.592   7.421 -0.2965  0.0253  0.2824
   78CHL1   C18 8205   4.461   0.496   7.448  0.1853 -0.4546  0.4334
   78CHL1  H18A 8206   4.508   0.403   7.487  1.8131  0.3164  0.3962
   78CHL1  H18B 8207   4.387   0.534   7.522  2.0704  1.4962  1.4299
   78CHL1  H18C 8208   4.400   0.473   7.358  0.7023 -0.2566  0.0285
   78CHL1   C12 8209   4.519   0.721   7.368  0.7189 -0.3635  0.3975
   78CHL1  H12A 8210   4.432   0.765   7.423  0.3633 -0.9230  0.2932
   78CHL1  H12B 8211   4.595   0.801   7.383  0.4025 -0.4733  3.1690
   78CHL1   C11 8212   4.466   0.700   7.223 -0.0698 -0.3561  0.8825
   78CHL1  H11A 8213   4.375   0.637   7.228  1.1367 -2.5103 -1.5931
   78CHL1  H11B 8214   4.437   0.795   7.174 -1.8510 -1.8013 -1.0048
   78CHL1    C9 8215   4.563   0.624   7.123 -0.2419 -0.8386  0.2643
   78CHL1    H9 8216   4.649   0.694   7.112 -0.4250 -0.6237  0.1882
   78CHL1   C10 8217   4.508   0.599   6.980  0.2113 -0.7142  0.1391
   78CHL1   C19 8218   4.368   0.525   6.994 -0.2148  0.0843 -0.0497
   78CHL1  H19A 8219   4.379   0.435   7.058  0.3960  1.2710  1.5743
   78CHL1  H19B 8220   4.289   0.588   7.039  1.2614  0.1892  2.5855
   78CHL1  H19C 8221   4.330   0.489   6.896  0.5738 -0.9532  0.0072
   78CHL1    C1 8222   4.483   0.739   6.911 -0.7719 -0.4685 -0.4730
   78CHL1   H1A 8223   4.405   0.788   6.972 -0.2782 -0.1905 -0.0574
   78CHL1   H1B 8224   4.577   0.795   6.931 -1.0557 -0.0670 -0.2563
   78CHL1    C2 8225   4.450   0.727   6.767 -0.3504  0.5618  0.9868
   78CHL1   H2A 8226   4.438   0.827   6.720 -0.3311 -0.2738 -0.8627
   78CHL1   H2B 8227   4.349   0.681   6.755 -0.9453  2.0910 -0.2441
   78CHL1   C20 8228   4.607   0.635   7.679  0.6521  0.2091  0.1059
   78CHL1   H20 8229   4.525   0.708   7.663 -0.3850 -0.9167  0.1473
   78CHL1   C21 8230   4.707   0.714   7.766  0.1740 -0.1365  0.2926
   78CHL1  H21A 8231   4.761   0.792   7.707 -0.9590  1.2475  1.0119
   78CHL1  H21B 8232   4.783   0.644   7.807 -0.9531 -1.9546 -0.6114
   78CHL1  H21C 8233   4.650   0.764   7.848 -0.7634 -0.9353  0.1404
   78CHL1   C22 8234   4.543   0.523   7.759  0.2042 -0.0110 -0.3629
   78CHL1  H22A 8235   4.491   0.450   7.693 -0.0347 -0.0689 -0.1121
   78CHL1  H22B 8236   4.624   0.465   7.807  1.3296 -1.2511 -3.4764
   78CHL1   C23 8237   4.447   0.574   7.872 -0.1043  0.3744  0.3446
   78CHL1  H23A 8238   4.508   0.635   7.943  2.0309 -2.0120  0.6785
   78CHL1  H23B 8239   4.365   0.636   7.830  0.8205  0.1916 -1.8771
   78CHL1   C24 8240   4.380   0.450   7.938 -0.5603  0.3695  0.0747
   78CHL1  H24A 8241   4.316   0.396   7.865  1.3462 -1.9111 -0.0127
   78CHL1  H24B 8242   4.458   0.374   7.959 -1.3339 -1.2773 -2.5264
   78CHL1   C25 8243   4.306   0.478   8.062  0.0415  0.0179 -1.1745
   78CHL1   H25 8244   4.217   0.541   8.040  1.4067  2.0526 -1.1572
   78CHL1   C26 8245   4.244   0.342   8.112 -0.2262 -0.8044 -0.1249
   78CHL1  H26A 8246   4.190   0.352   8.209  0.5922 -2.2888  0.5263
   78CHL1  H26B 8247   4.169   0.316   8.034 -1.3062  1.2586  0.1348
   78CHL1  H26C 8248   4.322   0.265   8.128  2.1462  1.2613 -1.0110
   78CHL1   C27 8249   4.384   0.530   8.180  0.2677 -0.3000 -0.2155
   78CHL1  H27A 8250   4.445   0.617   8.146 -0.0840 -0.6169 -1.7215
   78CHL1  H27B 8251   4.310   0.576   8.250 -0.0620  0.3047 -0.9404
   78CHL1  H27C 8252   4.447   0.454   8.230  2.7333  2.0476  0.4921
   79CHL1    C3 8253   1.415   5.407   7.451 -0.3304 -0.0380  0.2508
   79CHL1    H3 8254   1.319   5.355   7.468 -0.0942  0.1555  2.4866
   79CHL1    O3 8255   1.406   5.463   7.322 -0.3443  0.0479  0.2056
   79CHL1   H3' 8256   1.454   5.398   7.270  1.3847  0.5484  1.1070
   79CHL1    C4 8257   1.411   5.525   7.549 -0.3242 -0.1278 -0.5453
   79CHL1   H4A 8258   1.493   5.595   7.522 -0.3620 -0.0192 -0.3817
   79CHL1   H4B 8259   1.316   5.579   7.531 -1.1846 -1.4243 -0.0754
   79CHL1    C5 8260   1.433   5.480   7.698 -0.3737 -0.5218  0.0062
   79CHL1    C6 8261   1.338   5.515   7.784 -0.2800  0.3457  0.2769
   79CHL1    H6 8262   1.250   5.573   7.753 -1.2839 -1.7572 -1.0640
   79CHL1    C7 8263   1.352   5.489   7.927  0.0490  0.8756 -0.1818
   79CHL1   H7A 8264   1.338   5.572   7.999  1.2388  0.3837  0.6674
   79CHL1   H7B 8265   1.284   5.412   7.968 -1.9301  3.9332  2.8013
   79CHL1    C8 8266   1.500   5.439   7.953 -0.1430 -0.1952  0.3380
   79CHL1    H8 8267   1.565   5.528   7.943  0.9799 -0.9598  0.7106
   79CHL1   C14 8268   1.509   5.375   8.093 -0.2538 -0.4420  0.8168
   79CHL1   H14 8269   1.459   5.277   8.079  1.1551 -0.9453 -1.2098
   79CHL1   C15 8270   1.435   5.439   8.210 -0.5796  0.3231 -0.5032
   79CHL1  H15A 8271   1.455   5.548   8.208 -1.2500  0.4511 -0.4987
   79CHL1  H15B 8272   1.326   5.420   8.208 -0.8249  1.3193  1.3175
   79CHL1   C16 8273   1.505   5.375   8.333  0.2984 -0.4176  0.3834
   79CHL1  H16A 8274   1.529   5.454   8.407  1.0453  1.8930 -2.1812
   79CHL1  H16B 8275   1.422   5.317   8.378 -0.6960  0.0155 -0.8334
   79CHL1   C17 8276   1.623   5.286   8.283  1.1662 -0.0487  0.1702
   79CHL1   H17 8277   1.581   5.183   8.271  2.7051 -0.4765 -1.9929
   79CHL1   C13 8278   1.649   5.334   8.144  0.3046  0.5063 -0.3312
   79CHL1   C18 8279   1.734   5.464   8.160 -0.4908  0.8350 -0.0433
   79CHL1  H18A 8280   1.832   5.439   8.206 -0.5248 -0.4408 -0.6240
   79CHL1  H18B 8281   1.765   5.499   8.059  1.3717  0.2279  0.2791
   79CHL1  H18C 8282   1.674   5.535   8.222 -0.9587 -0.1659  0.6763
   79CHL1   C12 8283   1.702   5.223   8.048 -0.3221  0.1331  0.0237
   79CHL1  H12A 8284   1.807   5.193   8.068 -0.0087  1.3528  0.2978
   79CHL1  H12B 8285   1.641   5.132   8.067  1.6797 -1.0770  0.9260
   79CHL1   C11 8286   1.696   5.276   7.903  0.3402 -0.6000  0.0671
   79CHL1  H11A 8287   1.768   5.361   7.901  2.1037 -2.0705 -0.8655
   79CHL1  H11B 8288   1.729   5.197   7.832  0.6335 -1.2634  0.9352
   79CHL1    C9 8289   1.557   5.335   7.861 -0.0996 -0.5234 -0.5395
   79CHL1    H9 8290   1.492   5.244   7.863  2.4342 -2.4160  1.6515
   79CHL1   C10 8291   1.559   5.391   7.719  0.3116 -0.0145  0.4572
   79CHL1   C19 8292   1.683   5.473   7.688 -0.0647 -0.6318  0.4140
   79CHL1  H19A 8293   1.773   5.411   7.672  0.7300  0.7708 -0.8712
   79CHL1  H19B 8294   1.670   5.524   7.590  2.2663  0.1068  0.4368
   79CHL1  H19C 8295   1.702   5.534   7.779  0.5445 -1.6872  1.0004
   79CHL1    C1 8296   1.547   5.271   7.610 -0.1534  0.3409  0.5609
   79CHL1   H1A 8297   1.637   5.210   7.631 -0.6007 -0.6737 -0.4069
   79CHL1   H1B 8298   1.461   5.213   7.650  0.6587 -0.2936  1.4135
   79CHL1    C2 8299   1.535   5.313   7.469 -0.8052  0.3116 -0.2621
   79CHL1   H2A 8300   1.527   5.218   7.412  0.1058 -0.0352  0.1630
   79CHL1   H2B 8301   1.630   5.358   7.432  0.8720 -4.1761 -2.1474
   79CHL1   C20 8302   1.733   5.262   8.388 -0.4226  0.3787 -0.2443
   79CHL1   H20 8303   1.806   5.343   8.371 -1.6974  1.5193 -0.4294
   79CHL1   C21 8304   1.792   5.120   8.360  0.5982 -0.1226 -0.3097
   79CHL1  H21A 8305   1.840   5.118   8.260 -2.0437 -0.8351 -1.6500
   79CHL1  H21B 8306   1.707   5.048   8.362 -0.8305  1.4874 -1.2087
   79CHL1  H21C 8307   1.863   5.082   8.437  0.7806 -1.0012 -0.9004
   79CHL1   C22 8308   1.689   5.277   8.537  0.2404 -0.4996 -0.2558
   79CHL1  H22A 8309   1.646   5.379   8.547  1.2359  0.0116 -1.0186
   79CHL1  H22B 8310   1.610   5.203   8.562  0.1584 -0.6321 -0.8770
   79CHL1   C23 8311   1.798   5.270   8.646 -0.1871  0.1502  0.1646
   79CHL1  H23A 8312   1.826   5.169   8.681  1.1360  1.1610  2.2640
   79CHL1  H23B 8313   1.892   5.319   8.614  0.1196  0.0600  0.9009
   79CHL1   C24 8314   1.764   5.347   8.776  0.7618 -0.3038 -0.4506
   79CHL1  H24A 8315   1.668   5.319   8.826  1.1520  1.0280  1.1528
   79CHL1  H24B 8316   1.846   5.310   8.841  1.0605  0.1167 -0.5916
   79CHL1   C25 8317   1.771   5.502   8.786  0.1053  0.3123  0.7735
   79CHL1   H25 8318   1.671   5.540   8.756  0.4282  0.9969  0.5534
   79CHL1   C26 8319   1.785   5.547   8.932  0.2288 -0.0972 -0.6128
   79CHL1  H26A 8320   1.760   5.652   8.961 -1.6810 -0.8398  0.5845
   79CHL1  H26B 8321   1.724   5.475   8.990 -1.9340  1.5896 -0.6461
   79CHL1  H26C 8322   1.889   5.534   8.968  0.7672 -0.5185 -2.2311
   79CHL1   C27 8323   1.868   5.562   8.689  0.5342  0.2118  0.0788
   79CHL1  H27A 8324   1.847   5.527   8.585 -0.7898 -3.4620  1.4491
   79CHL1  H27B 8325   1.884   5.672   8.682  2.2535  0.0508  0.8681
   79CHL1  H27C 8326   1.967   5.518   8.715  0.7988  2.1294  2.6247
   80CHL1    C3 8327   6.492   0.227   7.352 -0.8776 -0.0853  0.3400
   80CHL1    H3 8328   6.472   0.119   7.341  0.2560 -0.2869  0.0993
   80CHL1    O3 8329   6.518   0.267   7.221  0.2813 -0.6184 -0.2703
   80CHL1   H3' 8330   6.449   0.330   7.200  1.1767  1.0222  1.3512
   80CHL1    C4 8331   6.379   0.312   7.404  0.3085  0.4624  0.6343
   80CHL1   H4A 8332   6.409   0.419   7.401  2.0403 -0.0137 -0.0166
   80CHL1   H4B 8333   6.295   0.302   7.332  0.4680 -2.7242  0.7439
   80CHL1    C5 8334   6.341   0.276   7.548  0.0591 -1.2175  0.1888
   80CHL1    C6 8335   6.219   0.234   7.578 -0.4004  0.4901 -0.2793
   80CHL1    H6 8336   6.141   0.227   7.500 -1.9540 -1.0898  1.3190
   80CHL1    C7 8337   6.165   0.195   7.717  0.1356 -0.2118  0.0875
   80CHL1   H7A 8338   6.070   0.245   7.744  0.0202  0.1411 -0.9440
   80CHL1   H7B 8339   6.147   0.086   7.729  0.2194 -0.1944  0.3919
   80CHL1    C8 8340   6.275   0.227   7.820  0.1365 -0.3778  0.1137
   80CHL1    H8 8341   6.277   0.335   7.846  0.7842 -0.2865 -0.2904
   80CHL1   C14 8342   6.245   0.151   7.948  0.2953  0.8123 -0.1107
   80CHL1   H14 8343   6.235   0.045   7.917 -0.7535  0.6457  0.7566
   80CHL1   C15 8344   6.100   0.170   8.013  0.1736 -0.4464  0.5071
   80CHL1  H15A 8345   6.073   0.277   8.006 -0.2589 -0.4945  1.2456
   80CHL1  H15B 8346   6.037   0.105   7.948  1.2188  1.3556 -2.4676
   80CHL1   C16 8347   6.109   0.116   8.152 -0.4589  0.2575  0.1878
   80CHL1  H16A 8348   6.078   0.190   8.229 -0.3043 -0.0837  0.5806
   80CHL1  H16B 8349   6.040   0.033   8.176  2.2550 -1.5913  2.3142
   80CHL1   C17 8350   6.259   0.071   8.167  0.5749 -0.6332  0.6905
   80CHL1   H17 8351   6.265  -0.029   8.119  0.9224 -0.2564 -0.0803
   80CHL1   C13 8352   6.332   0.161   8.064 -0.4824  0.7397 -0.4605
   80CHL1   C18 8353   6.341   0.310   8.114  0.6124 -0.1306  0.2366
   80CHL1  H18A 8354   6.250   0.339   8.171  0.1231  0.8363 -0.9980
   80CHL1  H18B 8355   6.428   0.314   8.183  2.4001  2.8365 -2.0190
   80CHL1  H18C 8356   6.352   0.384   8.033  0.3698  0.0723  0.3886
   80CHL1   C12 8357   6.469   0.116   8.014 -0.3225  0.5848  0.1664
   80CHL1  H12A 8358   6.536   0.119   8.102  0.8269  1.1633 -0.6897
   80CHL1  H12B 8359   6.474   0.011   7.977 -2.9186 -0.3377  2.1081
   80CHL1   C11 8360   6.518   0.201   7.895  0.5439  0.0929  0.3577
   80CHL1  H11A 8361   6.530   0.305   7.932 -1.8472  0.1318  1.2623
   80CHL1  H11B 8362   6.616   0.160   7.863 -0.2349 -0.6917 -1.1033
   80CHL1    C9 8363   6.417   0.192   7.775  0.2530  0.3067  0.0349
   80CHL1    H9 8364   6.410   0.084   7.749 -1.4297  0.1311  1.0837
   80CHL1   C10 8365   6.463   0.271   7.647 -0.7158  0.2977 -0.4185
   80CHL1   C19 8366   6.504   0.412   7.699 -1.2756 -0.1490  0.0938
   80CHL1  H19A 8367   6.433   0.438   7.780 -1.7779 -2.6917  0.5506
   80CHL1  H19B 8368   6.605   0.410   7.747 -2.1738  1.1829  2.1600
   80CHL1  H19C 8369   6.511   0.482   7.612 -0.8498 -2.6430 -2.0184
   80CHL1    C1 8370   6.584   0.202   7.579 -0.2420  0.0151  0.6890
   80CHL1   H1A 8371   6.666   0.223   7.650  1.4103  1.3426 -1.4774
   80CHL1   H1B 8372   6.566   0.093   7.586 -1.0817 -0.0045 -1.0469
   80CHL1    C2 8373   6.618   0.247   7.437  0.1262  0.4016  0.3283
   80CHL1   H2A 8374   6.714   0.197   7.412  1.1955  2.4555  0.1554
   80CHL1   H2B 8375   6.644   0.354   7.437 -0.9924  0.7542 -2.1432
   80CHL1   C20 8376   6.305   0.064   8.313 -0.3482  0.9074  0.9005
   80CHL1   H20 8377   6.416   0.071   8.308 -0.2102 -1.4885 -0.8569
   80CHL1   C21 8378   6.279  -0.086   8.357 -0.5862 -0.3735  0.1859
   80CHL1  H21A 8379   6.313  -0.105   8.461 -0.7887 -0.3968  0.2481
   80CHL1  H21B 8380   6.326  -0.163   8.292  0.2065 -0.4303  0.8147
   80CHL1  H21C 8381   6.169  -0.100   8.360 -0.7937  0.9275 -0.5674
   80CHL1   C22 8382   6.257   0.166   8.420 -0.6005  0.0626 -0.0536
   80CHL1  H22A 8383   6.271   0.273   8.397 -3.8929  0.4551 -0.7700
   80CHL1  H22B 8384   6.146   0.152   8.420 -0.9838  2.5760 -1.0053
   80CHL1   C23 8385   6.315   0.144   8.565  0.4215  0.3701 -0.0118
   80CHL1  H23A 8386   6.291   0.046   8.609  0.7173  1.4621  2.7769
   80CHL1  H23B 8387   6.426   0.153   8.562  0.4018  0.4225 -1.0628
   80CHL1   C24 8388   6.273   0.261   8.656  0.2758 -0.6049  0.4121
   80CHL1  H24A 8389   6.285   0.360   8.607 -2.6284  0.0402  0.8588
   80CHL1  H24B 8390   6.165   0.248   8.674  0.3116  0.0775  1.1491
   80CHL1   C25 8391   6.359   0.260   8.774 -0.2341 -0.6473 -0.0227
   80CHL1   H25 8392   6.465   0.235   8.750 -0.6403 -1.5509 -0.9468
   80CHL1   C26 8393   6.355   0.390   8.853  0.0811 -0.6826 -0.2911
   80CHL1  H26A 8394   6.392   0.477   8.794  0.5981  0.8175  2.0551
   80CHL1  H26B 8395   6.251   0.403   8.889 -0.4243 -1.3787 -1.4917
   80CHL1  H26C 8396   6.424   0.383   8.941  2.1376  2.0288 -1.5250
   80CHL1   C27 8397   6.320   0.152   8.870 -1.0411 -0.3395 -0.2391
   80CHL1  H27A 8398   6.378   0.154   8.965 -1.0090  0.3848 -0.2705
   80CHL1  H27B 8399   6.212   0.156   8.893 -0.7433  0.1789  1.1635
   80CHL1  H27C 8400   6.340   0.057   8.816  0.9046  0.1136 -0.3863
   81CHL1    C3 8401   5.048   4.653   6.913 -0.5034 -0.1518  0.5146
   81CHL1    H3 8402   5.038   4.764   6.923  4.0636  0.7160 -1.8887
   81CHL1    O3 8403   5.057   4.624   6.768  0.7942 -0.7086 -0.6053
   81CHL1   H3' 8404   5.151   4.627   6.747  1.6670 -1.7346  2.5510
   81CHL1    C4 8405   5.176   4.596   6.977  0.2141 -0.4054 -1.1381
   81CHL1   H4A 8406   5.196   4.496   6.932  0.3628 -1.1508  0.5078
   81CHL1   H4B 8407   5.273   4.646   6.956  0.8958 -0.8143  0.8054
   81CHL1    C5 8408   5.169   4.595   7.130 -0.0434  0.8334 -0.4834
   81CHL1    C6 8409   5.271   4.639   7.204 -0.2779  0.6741 -0.2193
   81CHL1    H6 8410   5.367   4.660   7.155  0.7779 -2.6160  0.2191
   81CHL1    C7 8411   5.273   4.643   7.351  0.1407 -0.2572 -0.5409
   81CHL1   H7A 8412   5.371   4.617   7.396 -0.1194  0.5376  0.5374
   81CHL1   H7B 8413   5.256   4.744   7.396  1.9175 -0.9298  1.7981
   81CHL1    C8 8414   5.163   4.553   7.408  0.7639 -0.2955  0.0609
   81CHL1    H8 8415   5.198   4.448   7.406 -0.6091 -0.9021  2.7810
   81CHL1   C14 8416   5.137   4.581   7.562  0.4901 -0.6041  0.0336
   81CHL1   H14 8417   5.102   4.687   7.560  0.2164 -0.6981 -1.4689
   81CHL1   C15 8418   5.263   4.567   7.653 -0.3024 -0.2994 -0.2368
   81CHL1  H15A 8419   5.324   4.481   7.619 -1.3138 -0.1089 -2.8252
   81CHL1  H15B 8420   5.310   4.667   7.645 -0.2377 -0.4641 -2.4938
   81CHL1   C16 8421   5.197   4.545   7.787  0.3509 -0.5006 -0.3712
   81CHL1  H16A 8422   5.208   4.447   7.837 -1.7367 -0.1060  1.0302
   81CHL1  H16B 8423   5.223   4.613   7.871 -0.7156 -2.3108  1.5153
   81CHL1   C17 8424   5.043   4.564   7.768 -0.0240 -0.4145 -0.5887
   81CHL1   H17 8425   5.015   4.671   7.761 -0.4772 -0.5710 -1.2524
   81CHL1   C13 8426   5.022   4.508   7.630 -0.7951  0.2165  0.2815
   81CHL1   C18 8427   5.043   4.352   7.649  0.2786  0.4309  0.5600
   81CHL1  H18A 8428   4.954   4.297   7.685  2.0819 -2.6087  0.7621
   81CHL1  H18B 8429   5.077   4.309   7.552  3.2248 -2.4406  2.6587
   81CHL1  H18C 8430   5.123   4.326   7.722  1.4892  2.8862  0.2158
   81CHL1   C12 8431   4.891   4.533   7.558  0.6380  0.1792 -0.0283
   81CHL1  H12A 8432   4.807   4.481   7.609  0.8235  0.5171  0.6389
   81CHL1  H12B 8433   4.868   4.641   7.568  1.4655  0.2147  1.9620
   81CHL1   C11 8434   4.907   4.502   7.406  0.3620  0.8953 -0.5890
   81CHL1  H11A 8435   4.932   4.394   7.406 -2.7958  0.0284  1.2456
   81CHL1  H11B 8436   4.810   4.523   7.355 -0.3033 -0.5734  0.0074
   81CHL1    C9 8437   5.025   4.577   7.338 -0.7370 -0.2071 -0.6039
   81CHL1    H9 8438   5.009   4.686   7.348  0.4184 -0.0707 -0.0126
   81CHL1   C10 8439   5.036   4.547   7.188  0.0858 -0.5543  0.0566
   81CHL1   C19 8440   5.031   4.396   7.160 -0.5493 -0.4339 -0.0480
   81CHL1  H19A 8441   5.102   4.340   7.224  0.5632  0.4581 -0.4618
   81CHL1  H19B 8442   4.930   4.362   7.191 -2.0627  1.2575 -2.6786
   81CHL1  H19C 8443   5.045   4.365   7.054  1.9702 -0.2329  0.1739
   81CHL1    C1 8444   4.918   4.608   7.115 -0.5195 -0.8940  0.4068
   81CHL1   H1A 8445   4.825   4.564   7.157 -0.4488  0.3096  1.8906
   81CHL1   H1B 8446   4.917   4.717   7.136  0.3354 -0.8005 -0.0179
   81CHL1    C2 8447   4.915   4.593   6.961  0.2128 -0.0256 -0.1643
   81CHL1   H2A 8448   4.828   4.640   6.911 -1.0165 -2.0335 -0.0461
   81CHL1   H2B 8449   4.902   4.487   6.929  1.9431 -0.2921 -0.1118
   81CHL1   C20 8450   4.953   4.512   7.884 -0.3191 -0.7363  0.0858
   81CHL1   H20 8451   4.914   4.408   7.875 -0.6277 -0.6366  0.2441
   81CHL1   C21 8452   4.828   4.599   7.889  0.2009 -0.4743 -0.1965
   81CHL1  H21A 8453   4.745   4.547   7.942 -0.7445  2.8595  1.9164
   81CHL1  H21B 8454   4.785   4.629   7.791  0.5463 -1.7568 -0.7655
   81CHL1  H21C 8455   4.853   4.695   7.938  0.8654 -0.1097 -1.2118
   81CHL1   C22 8456   5.018   4.523   8.031  0.6412  0.3069  0.5613
   81CHL1  H22A 8457   5.109   4.459   8.036 -0.0615 -0.8880 -1.1468
   81CHL1  H22B 8458   5.051   4.628   8.050  0.2824  1.2693 -3.2632
   81CHL1   C23 8459   4.932   4.457   8.141 -0.4323  0.4976  0.3953
   81CHL1  H23A 8460   4.846   4.525   8.156 -0.3134  0.8537 -0.5181
   81CHL1  H23B 8461   4.887   4.360   8.110  1.2252  0.0557 -0.7846
   81CHL1   C24 8462   5.006   4.454   8.272  0.1667 -0.1264  0.1504
   81CHL1  H24A 8463   5.113   4.423   8.270  0.1553 -0.5301  2.6716
   81CHL1  H24B 8464   5.016   4.559   8.305 -0.9653  0.4284 -1.1645
   81CHL1   C25 8465   4.942   4.373   8.394 -0.0066  0.1500 -0.0755
   81CHL1   H25 8466   4.955   4.264   8.374 -0.4075 -0.4214  2.3562
   81CHL1   C26 8467   5.030   4.396   8.522 -0.1314 -0.0479  0.3118
   81CHL1  H26A 8468   4.998   4.340   8.613  1.2121 -1.8482 -0.2482
   81CHL1  H26B 8469   5.130   4.353   8.500 -0.0646  1.4019 -2.7518
   81CHL1  H26C 8470   5.042   4.504   8.545  2.0579 -0.4425  1.2756
   81CHL1   C27 8471   4.801   4.405   8.410  0.3875 -1.1063  0.1307
   81CHL1  H27A 8472   4.782   4.515   8.410  1.8428 -0.8429 -0.3238
   81CHL1  H27B 8473   4.752   4.367   8.318  0.2257 -0.8116  0.0935
   81CHL1  H27C 8474   4.757   4.343   8.491 -0.2250 -1.0646 -0.1620
   82CHL1    C3 8475   0.163   5.557   7.259 -1.0546 -0.5682 -0.2667
   82CHL1    H3 8476   0.218   5.461   7.274 -0.1591 -0.0433 -0.0870
   82CHL1    O3 8477   0.153   5.598   7.126  0.2104  0.3594 -0.1460
   82CHL1   H3' 8478   0.086   5.666   7.130 -1.4000 -1.1411 -0.3202
   82CHL1    C4 8479   0.019   5.548   7.311 -0.7630 -0.5378  0.8272
   82CHL1   H4A 8480  -0.035   5.645   7.299 -1.5993 -0.9143  1.4795
   82CHL1   H4B 8481  -0.047   5.478   7.255  0.9598 -1.5869  0.0229
   82CHL1    C5 8482   0.032   5.522   7.458  0.4103  0.7581 -0.0288
   82CHL1    C6 8483  -0.030   5.401   7.499 -0.7240  0.6337 -0.0053
   82CHL1    H6 8484  -0.079   5.338   7.424  1.6812 -0.9434 -0.3361
   82CHL1    C7 8485  -0.039   5.355   7.644 -0.1527  0.5596  0.0534
   82CHL1   H7A 8486  -0.145   5.327   7.665 -0.1282  1.0158  0.8294
   82CHL1   H7B 8487   0.030   5.271   7.661 -3.2220 -2.1610  0.1004
   82CHL1    C8 8488   0.006   5.469   7.740 -0.4482 -0.0924 -0.3628
   82CHL1    H8 8489  -0.078   5.540   7.750 -0.6262 -0.4041  0.4597
   82CHL1   C14 8490   0.035   5.395   7.866 -0.0012 -0.4339  0.4619
   82CHL1   H14 8491   0.115   5.322   7.844 -1.1612 -2.3429  2.1318
   82CHL1   C15 8492  -0.079   5.314   7.932  0.0314 -0.1045 -0.6109
   82CHL1  H15A 8493  -0.168   5.381   7.941  1.3995  1.8931 -1.3014
   82CHL1  H15B 8494  -0.102   5.222   7.874  2.5757 -0.2919 -1.4621
   82CHL1   C16 8495  -0.026   5.295   8.082 -0.2979 -0.2955  0.6334
   82CHL1  H16A 8496  -0.105   5.331   8.152  0.7158  2.3532  0.5621
   82CHL1  H16B 8497   0.006   5.190   8.100  1.8886  0.2450  0.2309
   82CHL1   C17 8498   0.102   5.378   8.092 -1.2297 -0.1074 -0.1822
   82CHL1   H17 8499   0.182   5.304   8.069  0.0665  0.6259  1.6603
   82CHL1   C13 8500   0.103   5.479   7.979  0.1405 -0.4855  0.0147
   82CHL1   C18 8501   0.014   5.603   8.029  0.1719  0.1459  0.1847
   82CHL1  H18A 8502  -0.040   5.667   7.956  0.7108  1.9581  1.2917
   82CHL1  H18B 8503  -0.055   5.560   8.105  0.5657  0.9116  0.9970
   82CHL1  H18C 8504   0.080   5.680   8.075  1.7221  1.1899 -3.3927
   82CHL1   C12 8505   0.241   5.533   7.918  0.1762  0.2916  0.8851
   82CHL1  H12A 8506   0.293   5.596   7.994 -1.5751  1.7577  0.9486
   82CHL1  H12B 8507   0.301   5.444   7.890 -3.5312 -2.2425  0.2758
   82CHL1   C11 8508   0.211   5.622   7.796  0.3851  0.8138  0.6096
   82CHL1  H11A 8509   0.143   5.706   7.818  2.0903  2.1667  0.8756
   82CHL1  H11B 8510   0.303   5.675   7.764 -0.4472  2.1288  0.3108
   82CHL1    C9 8511   0.142   5.533   7.689  0.2503  1.2307  0.0504
   82CHL1    H9 8512   0.215   5.450   7.675 -0.4044  0.6971 -0.3181
   82CHL1   C10 8513   0.121   5.601   7.550 -0.2971 -0.4355  0.7098
   82CHL1   C19 8514   0.045   5.734   7.563 -0.1785 -0.2238 -0.0048
   82CHL1  H19A 8515   0.097   5.803   7.633  2.3770 -1.9142 -0.1097
   82CHL1  H19B 8516   0.034   5.782   7.463 -2.1722 -0.0588  0.2549
   82CHL1  H19C 8517  -0.053   5.725   7.614 -0.9616 -0.8068 -1.5496
   82CHL1    C1 8518   0.259   5.619   7.477 -0.4191 -0.2151 -0.2740
   82CHL1   H1A 8519   0.329   5.687   7.529  0.8737 -1.4231 -0.3652
   82CHL1   H1B 8520   0.302   5.517   7.467 -1.3501 -0.8381  1.5800
   82CHL1    C2 8521   0.239   5.665   7.331 -0.5367  0.3393  0.7388
   82CHL1   H2A 8522   0.343   5.663   7.291 -1.2313 -1.9866 -1.1813
   82CHL1   H2B 8523   0.199   5.764   7.300  0.8162 -0.1692 -3.0712
   82CHL1   C20 8524   0.126   5.416   8.243 -0.1311 -1.4225 -0.3676
   82CHL1   H20 8525   0.047   5.492   8.260  0.2155 -1.2845  0.6675
   82CHL1   C21 8526   0.263   5.498   8.249 -0.5195  0.0653 -0.0300
   82CHL1  H21A 8527   0.301   5.516   8.352  0.1703  0.1551 -0.2967
   82CHL1  H21B 8528   0.250   5.598   8.201  0.5675 -0.5278 -1.6497
   82CHL1  H21C 8529   0.343   5.440   8.198 -0.8045 -0.8230  0.5143
   82CHL1   C22 8530   0.108   5.299   8.341 -0.1719  0.0829  0.6693
   82CHL1  H22A 8531   0.138   5.339   8.440 -0.9089  2.3436  0.0387
   82CHL1  H22B 8532   0.001   5.272   8.347  0.1823 -1.5359  0.2772
   82CHL1   C23 8533   0.191   5.169   8.332  0.3040  0.6130 -0.0883
   82CHL1  H23A 8534   0.197   5.137   8.225 -1.5422 -0.7922  0.1745
   82CHL1  H23B 8535   0.299   5.181   8.353  0.6105  0.1820 -1.3073
   82CHL1   C24 8536   0.148   5.051   8.420 -0.1817 -0.1938  0.5484
   82CHL1  H24A 8537   0.236   5.001   8.465 -0.2864 -1.1215 -0.2573
   82CHL1  H24B 8538   0.086   5.088   8.504 -1.6196 -2.5632  0.6192
   82CHL1   C25 8539   0.050   4.952   8.351 -0.2196 -0.3741  0.4841
   82CHL1   H25 8540  -0.018   5.017   8.294  1.0073  0.7471  0.2492
   82CHL1   C26 8541   0.122   4.861   8.246 -0.2172 -0.9465  0.1240
   82CHL1  H26A 8542   0.207   4.813   8.299  2.0290  1.7847 -0.7967
   82CHL1  H26B 8543   0.063   4.775   8.209 -0.5461 -0.0540 -1.5452
   82CHL1  H26C 8544   0.151   4.918   8.155 -2.0950  0.0163  0.0746
   82CHL1   C27 8545  -0.024   4.864   8.453 -0.5984  0.2299 -0.3219
   82CHL1  H27A 8546   0.040   4.792   8.509  0.2904 -1.3550 -3.1240
   82CHL1  H27B 8547  -0.066   4.940   8.522  0.1664  1.3533 -1.0544
   82CHL1  H27C 8548  -0.104   4.799   8.411  2.3671 -2.7237 -1.9063
   83CHL1    C3 8549   2.832   0.402   6.835 -0.1410  0.1228  0.2835
   83CHL1    H3 8550   2.763   0.315   6.840  0.1528 -0.0518  2.7911
   83CHL1    O3 8551   2.825   0.461   6.707  0.9168 -0.4821  0.1918
   83CHL1   H3' 8552   2.878   0.413   6.643  1.2156  1.5229 -1.1532
   83CHL1    C4 8553   2.790   0.501   6.939 -0.2054  0.3878 -0.4127
   83CHL1   H4A 8554   2.859   0.586   6.921  1.2990 -0.9003 -0.9975
   83CHL1   H4B 8555   2.684   0.529   6.923 -0.5992  0.7372  2.3435
   83CHL1    C5 8556   2.817   0.460   7.088  0.2090  0.0783 -0.3312
   83CHL1    C6 8557   2.731   0.485   7.188  0.7183 -0.7635 -0.3616
   83CHL1    H6 8558   2.642   0.543   7.160  1.5086  0.1744 -1.0372
   83CHL1    C7 8559   2.755   0.446   7.328  0.2534 -0.1606 -0.3169
   83CHL1   H7A 8560   2.729   0.528   7.399 -0.5935  1.0420 -1.9280
   83CHL1   H7B 8561   2.677   0.373   7.357  0.6598  0.7096  3.4455
   83CHL1    C8 8562   2.892   0.394   7.362 -0.0180 -0.1125 -0.4569
   83CHL1    H8 8563   2.964   0.476   7.383  0.6951 -1.1548  1.3288
   83CHL1   C14 8564   2.887   0.308   7.499  0.6713  0.1752  0.6469
   83CHL1   H14 8565   2.834   0.213   7.479 -0.1318  0.7136  0.1841
   83CHL1   C15 8566   2.806   0.373   7.607  0.1180 -0.3866 -0.1440
   83CHL1  H15A 8567   2.828   0.479   7.634  3.0121 -0.3348 -2.3071
   83CHL1  H15B 8568   2.698   0.367   7.582  0.2096  2.6960 -1.7859
   83CHL1   C16 8569   2.841   0.287   7.728 -0.8875 -0.1177  0.2028
   83CHL1  H16A 8570   2.867   0.347   7.818 -0.6387  1.8443 -1.1361
   83CHL1  H16B 8571   2.749   0.227   7.749 -2.6110  2.9684  2.2142
   83CHL1   C17 8572   2.964   0.198   7.687  0.0867  0.6295 -0.4896
   83CHL1   H17 8573   2.922   0.099   7.661  0.9613  0.5755 -1.8259
   83CHL1   C13 8574   3.018   0.260   7.548  0.6373 -0.2939  0.0378
   83CHL1   C18 8575   3.107   0.384   7.573  1.1445  0.6463  0.2413
   83CHL1  H18A 8576   3.181   0.361   7.654 -1.0980  0.0087  2.2393
   83CHL1  H18B 8577   3.157   0.422   7.482 -0.9033  0.5355 -0.9873
   83CHL1  H18C 8578   3.061   0.470   7.627 -1.2124 -0.0641 -0.5109
   83CHL1   C12 8579   3.075   0.166   7.436 -0.1182 -0.9518  0.2167
   83CHL1  H12A 8580   3.178   0.147   7.472 -0.0627  1.2169  1.3574
   83CHL1  H12B 8581   3.008   0.078   7.429 -1.6237  0.2375 -1.3199
   83CHL1   C11 8582   3.080   0.234   7.298 -0.2718  0.0585 -0.0553
   83CHL1  H11A 8583   3.163   0.307   7.288 -0.8358  0.6406 -0.5211
   83CHL1  H11B 8584   3.085   0.157   7.218  1.2599  1.5145 -1.4318
   83CHL1    C9 8585   2.949   0.303   7.252  0.7799 -0.6060  1.1820
   83CHL1    H9 8586   2.869   0.227   7.239 -0.6541  0.8803  0.9340
   83CHL1   C10 8587   2.950   0.381   7.114  0.6250 -0.1336  0.8978
   83CHL1   C19 8588   3.065   0.489   7.123  1.0246  0.4340 -0.1580
   83CHL1  H19A 8589   3.039   0.563   7.045 -0.0536 -1.2940 -1.5018
   83CHL1  H19B 8590   3.069   0.533   7.225 -2.4918 -2.4124  1.4156
   83CHL1  H19C 8591   3.162   0.439   7.100  1.2189  0.8407 -0.2378
   83CHL1    C1 8592   2.988   0.285   6.996  0.6780 -0.3047 -0.1721
   83CHL1   H1A 8593   3.092   0.255   7.018  0.6325  0.0428  0.5591
   83CHL1   H1B 8594   2.916   0.202   7.012 -1.4936  1.0958 -1.9053
   83CHL1    C2 8595   2.974   0.346   6.856 -0.0967  0.3407 -0.4850
   83CHL1   H2A 8596   2.988   0.266   6.780  0.4583 -0.2153  0.1915
   83CHL1   H2B 8597   3.047   0.427   6.838 -0.6172  0.9091 -0.0788
   83CHL1   C20 8598   3.070   0.190   7.794 -0.1550  0.3316 -0.2848
   83CHL1   H20 8599   3.105   0.294   7.814  0.3469  0.1942 -0.4330
   83CHL1   C21 8600   3.191   0.109   7.742 -0.3640  0.6082  0.4953
   83CHL1  H21A 8601   3.150   0.011   7.709  1.2603 -0.4436  1.4660
   83CHL1  H21B 8602   3.270   0.092   7.819 -1.2392 -1.0131  1.0952
   83CHL1  H21C 8603   3.240   0.161   7.657 -0.7892 -0.3939 -0.3919
   83CHL1   C22 8604   3.007   0.128   7.922 -0.4382  0.2568 -0.3857
   83CHL1  H22A 8605   2.921   0.187   7.960 -1.0633 -1.2970  0.7272
   83CHL1  H22B 8606   2.978   0.023   7.901  1.1462  0.2208 -2.6955
   83CHL1   C23 8607   3.094   0.127   8.048  0.3629 -0.3498  0.7372
   83CHL1  H23A 8608   3.172   0.047   8.046 -0.0563 -0.7508 -0.5747
   83CHL1  H23B 8609   3.142   0.227   8.048 -0.6227  0.1386  0.5252
   83CHL1   C24 8610   3.008   0.108   8.173  0.2291 -0.0285  0.0831
   83CHL1  H24A 8611   2.939   0.193   8.190  2.4356  2.1449 -1.2370
   83CHL1  H24B 8612   2.943   0.019   8.163  1.1181 -0.5285 -1.6495
   83CHL1   C25 8613   3.101   0.093   8.292  0.5853 -0.1529 -0.7586
   83CHL1   H25 8614   3.032   0.060   8.373  0.6250  1.0663 -0.2063
   83CHL1   C26 8615   3.200  -0.020   8.270 -0.0540 -0.3546 -0.4345
   83CHL1  H26A 8616   3.236  -0.053   8.370  0.4021  0.0530 -0.4642
   83CHL1  H26B 8617   3.160  -0.104   8.209  2.0345 -0.7837 -1.2871
   83CHL1  H26C 8618   3.295   0.014   8.224 -0.7732  0.8663 -1.0601
   83CHL1   C27 8619   3.166   0.225   8.348  0.0772  0.2011  0.1120
   83CHL1  H27A 8620   3.217   0.210   8.446 -0.3470  0.9354  0.4519
   83CHL1  H27B 8621   3.245   0.249   8.273 -0.7615  1.1015 -0.5005
   83CHL1  H27C 8622   3.088   0.302   8.364  0.8213  0.5213  2.6962
   84CHL1    C3 8623   4.464   4.980   6.871  0.0861  0.1966  0.7720
   84CHL1    H3 8624   4.565   5.002   6.911 -0.8802  3.5563  1.6663
   84CHL1    O3 8625   4.466   5.019   6.738 -0.0897  0.4037 -0.2068
   84CHL1   H3' 8626   4.536   4.978   6.688 -1.2650 -0.3058 -1.3426
   84CHL1    C4 8627   4.454   4.824   6.874  0.4930  0.3007 -0.5632
   84CHL1   H4A 8628   4.368   4.796   6.811  0.5556 -2.0473  0.3081
   84CHL1   H4B 8629   4.538   4.775   6.821  0.0724 -1.2518  0.1514
   84CHL1    C5 8630   4.444   4.778   7.018  0.4571  0.2328  0.2098
   84CHL1    C6 8631   4.538   4.689   7.064 -0.4081  0.1591  0.3687
   84CHL1    H6 8632   4.615   4.640   7.002  0.3952  0.8057  0.8352
   84CHL1    C7 8633   4.521   4.643   7.204 -0.0687  0.0230 -0.5833
   84CHL1   H7A 8634   4.556   4.540   7.226 -0.0054  0.4700  1.7331
   84CHL1   H7B 8635   4.584   4.712   7.264 -0.0635 -0.7876  0.3843
   84CHL1    C8 8636   4.377   4.661   7.264 -0.0726 -0.1108  0.4939
   84CHL1    H8 8637   4.304   4.589   7.222 -0.2366  0.9080 -1.0779
   84CHL1   C14 8638   4.387   4.638   7.415  0.5144 -0.7007 -0.2943
   84CHL1   H14 8639   4.445   4.726   7.450 -0.7612  1.0714 -2.4267
   84CHL1   C15 8640   4.439   4.502   7.466  0.2336 -0.1304  0.4706
   84CHL1  H15A 8641   4.391   4.420   7.409 -2.2889  0.5627  1.4920
   84CHL1  H15B 8642   4.550   4.511   7.459  0.1181  0.3365 -3.5356
   84CHL1   C16 8643   4.391   4.490   7.610  0.4163  0.3032 -0.4660
   84CHL1  H16A 8644   4.334   4.395   7.614  1.1898 -0.1331  0.9860
   84CHL1  H16B 8645   4.469   4.489   7.690  0.3761 -0.2280 -0.4327
   84CHL1   C17 8646   4.298   4.610   7.630 -0.2376 -0.3547 -0.3724
   84CHL1   H17 8647   4.355   4.696   7.671  0.3079 -0.3289 -1.1517
   84CHL1   C13 8648   4.254   4.655   7.485 -0.4773  0.4783  0.0291
   84CHL1   C18 8649   4.140   4.561   7.434 -0.2020  0.0647 -0.1614
   84CHL1  H18A 8650   4.167   4.454   7.441 -1.1806 -0.1156  1.1068
   84CHL1  H18B 8651   4.054   4.572   7.502 -0.8722  1.5289 -1.1889
   84CHL1  H18C 8652   4.106   4.587   7.331  2.1328  1.1147 -0.7481
   84CHL1   C12 8653   4.219   4.807   7.478 -0.0419 -0.8541  0.0087
   84CHL1  H12A 8654   4.115   4.824   7.513 -1.3411  1.5077 -4.2853
   84CHL1  H12B 8655   4.289   4.871   7.536 -0.3270  0.2286 -0.8211
   84CHL1   C11 8656   4.211   4.846   7.322 -0.3912  0.4351  0.0056
   84CHL1  H11A 8657   4.127   4.782   7.285 -0.9054  2.2620 -2.2700
   84CHL1  H11B 8658   4.181   4.952   7.311 -0.4881  0.1786 -3.3821
   84CHL1    C9 8659   4.334   4.806   7.240 -0.1927 -0.5329 -0.0368
   84CHL1    H9 8660   4.419   4.870   7.273 -0.8999  0.6076 -0.3741
   84CHL1   C10 8661   4.331   4.847   7.094 -0.3702  0.5264 -0.5559
   84CHL1   C19 8662   4.199   4.795   7.022  0.6059  0.2742 -0.7649
   84CHL1  H19A 8663   4.189   4.687   7.049 -0.1998  0.6385  0.4970
   84CHL1  H19B 8664   4.109   4.844   7.064  0.6290 -1.4695  1.5430
   84CHL1  H19C 8665   4.193   4.820   6.914  0.7156 -0.8999 -1.0654
   84CHL1    C1 8666   4.339   4.998   7.088 -0.3089 -0.1894  0.5126
   84CHL1   H1A 8667   4.245   5.042   7.127  0.3152  1.7253 -0.0454
   84CHL1   H1B 8668   4.426   5.037   7.146 -0.6621 -0.1742  1.0393
   84CHL1    C2 8669   4.351   5.050   6.942 -0.5958 -0.2236  0.0722
   84CHL1   H2A 8670   4.377   5.157   6.956 -2.2527  0.0541  1.4236
   84CHL1   H2B 8671   4.262   5.031   6.879 -0.8098 -0.6421  0.4922
   84CHL1   C20 8672   4.184   4.573   7.730 -0.2021 -0.3722 -0.0443
   84CHL1   H20 8673   4.116   4.497   7.688 -0.4595  0.1117 -0.5122
   84CHL1   C21 8674   4.095   4.696   7.757  0.5251  0.1265 -0.0779
   84CHL1  H21A 8675   4.011   4.664   7.822 -0.1473 -0.0253 -1.0026
   84CHL1  H21B 8676   4.040   4.727   7.666 -0.5931  0.3512  0.6572
   84CHL1  H21C 8677   4.145   4.783   7.805  0.1650 -0.3580  1.2280
   84CHL1   C22 8678   4.241   4.518   7.866 -0.6673 -0.2497  0.4717
   84CHL1  H22A 8679   4.325   4.447   7.850 -0.6241  0.2268 -1.6995
   84CHL1  H22B 8680   4.280   4.602   7.928  2.6927 -0.8643 -0.6437
   84CHL1   C23 8681   4.144   4.448   7.965  0.0608  0.3988  0.5159
   84CHL1  H23A 8682   4.067   4.526   7.977  1.8292  2.2706  0.2649
   84CHL1  H23B 8683   4.096   4.353   7.934  1.5323 -1.0214  2.2859
   84CHL1   C24 8684   4.204   4.410   8.104 -0.3963 -0.0922  0.1986
   84CHL1  H24A 8685   4.295   4.347   8.091 -1.0935 -1.1977  0.6067
   84CHL1  H24B 8686   4.240   4.504   8.153  1.4788 -1.4973  1.6899
   84CHL1   C25 8687   4.110   4.330   8.200 -0.1782 -0.5860 -0.3347
   84CHL1   H25 8688   4.165   4.328   8.296  1.6629  1.0447 -1.2608
   84CHL1   C26 8689   3.979   4.411   8.212  0.5681 -0.2824  0.2460
   84CHL1  H26A 8690   3.925   4.398   8.115  0.7406  0.3669  0.0562
   84CHL1  H26B 8691   3.919   4.366   8.294  1.0716 -1.4513 -0.0007
   84CHL1  H26C 8692   3.998   4.519   8.230  1.1946 -0.3056 -0.2448
   84CHL1   C27 8693   4.091   4.185   8.155 -0.0496  0.2867 -0.2862
   84CHL1  H27A 8694   4.060   4.190   8.049  2.4815 -1.0955 -1.1859
   84CHL1  H27B 8695   4.191   4.136   8.163 -0.1653 -0.4274 -2.5871
   84CHL1  H27C 8696   4.011   4.132   8.210 -0.3394 -0.1806 -1.1543
   85CHL1    C3 8697   2.099   4.159   6.634  0.2313 -0.1829 -0.6499
   85CHL1    H3 8698   2.197   4.157   6.686 -0.4951 -2.3617  0.7916
   85CHL1    O3 8699   2.115   4.158   6.494 -0.6685 -0.3386 -0.1633
   85CHL1   H3' 8700   2.188   4.217   6.476  0.2035 -1.5177 -0.6424
   85CHL1    C4 8701   2.015   4.043   6.677 -0.0936 -0.0267 -0.1696
   85CHL1   H4A 8702   1.916   4.040   6.626  0.6678  3.0926 -2.0627
   85CHL1   H4B 8703   2.072   3.953   6.647  1.5623  0.9333 -0.0080
   85CHL1    C5 8704   1.998   4.055   6.833 -0.1610 -0.7447  0.2303
   85CHL1    C6 8705   2.057   3.961   6.914 -0.2766 -0.1880  0.2842
   85CHL1    H6 8706   2.110   3.872   6.877  0.8394  0.2081  0.8717
   85CHL1    C7 8707   2.037   3.959   7.072 -0.4219  0.2449  0.7429
   85CHL1   H7A 8708   2.008   3.856   7.104 -0.1159 -0.4504 -1.0928
   85CHL1   H7B 8709   2.142   3.977   7.101 -0.2649  1.2002 -0.3378
   85CHL1    C8 8710   1.938   4.071   7.124 -0.7121 -0.0480  0.9831
   85CHL1    H8 8711   1.842   4.019   7.105 -1.1527  1.3141 -0.8059
   85CHL1   C14 8712   1.953   4.095   7.264 -0.4940  0.1105 -0.6345
   85CHL1   H14 8713   2.048   4.146   7.290 -0.7173 -0.9386  2.7095
   85CHL1   C15 8714   1.963   3.967   7.352 -0.1362 -0.2418  0.0209
   85CHL1  H15A 8715   1.880   3.900   7.322  0.4779 -0.7485 -0.5790
   85CHL1  H15B 8716   2.050   3.898   7.348 -0.5899 -0.8424  0.3357
   85CHL1   C16 8717   1.946   4.009   7.496 -0.2596 -0.4111  0.2909
   85CHL1  H16A 8718   1.869   3.947   7.547 -1.2227 -0.5753 -1.2900
   85CHL1  H16B 8719   2.039   4.008   7.556  0.1604 -1.1207 -0.3645
   85CHL1   C17 8720   1.900   4.157   7.480 -0.4905  1.2609  0.7378
   85CHL1   H17 8721   1.993   4.217   7.489  0.6250 -0.1026 -1.0746
   85CHL1   C13 8722   1.849   4.179   7.329 -0.3750 -0.0990 -0.0287
   85CHL1   C18 8723   1.708   4.121   7.310 -0.3016 -0.2806 -0.5991
   85CHL1  H18A 8724   1.702   4.038   7.385  2.1938  0.8073  0.9145
   85CHL1  H18B 8725   1.630   4.195   7.338 -3.4697 -3.1477 -1.1727
   85CHL1  H18C 8726   1.688   4.097   7.203  0.7278 -2.9684 -0.2703
   85CHL1   C12 8727   1.872   4.316   7.261  0.3191 -0.9770 -0.2777
   85CHL1  H12A 8728   1.808   4.393   7.309 -0.5081 -2.2869  0.7871
   85CHL1  H12B 8729   1.971   4.360   7.287 -0.2873  0.9584 -1.1179
   85CHL1   C11 8730   1.843   4.309   7.113  0.1279  0.5001  0.0603
   85CHL1  H11A 8731   1.742   4.269   7.090  0.5766 -0.5733 -0.1123
   85CHL1  H11B 8732   1.850   4.408   7.063 -2.9512  0.5684 -0.4405
   85CHL1    C9 8733   1.946   4.207   7.046  0.1013  0.2467  0.6112
   85CHL1    H9 8734   2.050   4.243   7.059 -0.8549  2.8368  1.7932
   85CHL1   C10 8735   1.931   4.190   6.885  0.2198  0.3024  0.3449
   85CHL1   C19 8736   1.783   4.186   6.849 -0.0753  0.3437 -0.1210
   85CHL1  H19A 8737   1.735   4.275   6.894  2.9157  2.4089 -0.7378
   85CHL1  H19B 8738   1.758   4.188   6.741 -1.4209  0.1352  0.1704
   85CHL1  H19C 8739   1.738   4.103   6.909  0.2044  0.2784  0.0003
   85CHL1    C1 8740   2.010   4.302   6.813 -0.1953  0.7435 -0.2947
   85CHL1   H1A 8741   1.969   4.402   6.839 -0.5273  0.8174 -1.0581
   85CHL1   H1B 8742   2.111   4.291   6.858 -0.1192 -0.6129 -0.7330
   85CHL1    C2 8743   2.037   4.286   6.661  0.4536 -0.6995  0.0252
   85CHL1   H2A 8744   2.099   4.375   6.639 -0.4445 -0.3405 -1.1436
   85CHL1   H2B 8745   1.941   4.296   6.607 -0.4153 -1.7234  1.3071
   85CHL1   C20 8746   1.811   4.192   7.601 -0.5911 -0.6254  0.6268
   85CHL1   H20 8747   1.715   4.137   7.591 -0.8102 -0.1098 -0.1995
   85CHL1   C21 8748   1.761   4.344   7.586  0.1770 -0.0916 -0.7395
   85CHL1  H21A 8749   1.737   4.374   7.691 -0.6512 -1.4434 -0.5127
   85CHL1  H21B 8750   1.673   4.353   7.519 -0.6288  2.5879  0.4969
   85CHL1  H21C 8751   1.837   4.418   7.554  1.7188 -0.0590  2.5513
   85CHL1   C22 8752   1.865   4.172   7.743 -0.1765 -0.7827  0.0543
   85CHL1  H22A 8753   1.789   4.211   7.814  0.9333  0.2525  0.7157
   85CHL1  H22B 8754   1.860   4.065   7.773 -1.1301 -0.3940  1.3829
   85CHL1   C23 8755   2.013   4.220   7.770 -0.2670 -0.2866  0.5324
   85CHL1  H23A 8756   2.076   4.154   7.707  1.3432  0.1262  1.6170
   85CHL1  H23B 8757   2.027   4.317   7.717 -0.5539  0.0024  0.9809
   85CHL1   C24 8758   2.071   4.209   7.906 -0.0897  0.0201 -0.7118
   85CHL1  H24A 8759   2.074   4.100   7.928  0.0048 -0.0578 -1.0934
   85CHL1  H24B 8760   2.177   4.241   7.905 -0.0228  0.1234  2.2214
   85CHL1   C25 8761   1.991   4.276   8.017 -0.2219  0.3665 -0.0960
   85CHL1   H25 8762   1.886   4.244   8.035  0.0563  0.3851  1.8537
   85CHL1   C26 8763   2.058   4.243   8.152  0.0238  0.0857  0.8659
   85CHL1  H26A 8764   2.044   4.327   8.223  0.5559 -0.9397  2.2302
   85CHL1  H26B 8765   2.008   4.152   8.189  1.8454 -0.5105  1.9835
   85CHL1  H26C 8766   2.164   4.220   8.127 -0.5718 -0.3529 -1.5919
   85CHL1   C27 8767   1.983   4.419   7.991  0.1792 -0.3182  0.1755
   85CHL1  H27A 8768   2.083   4.463   8.011 -0.6805  0.6909  2.5576
   85CHL1  H27B 8769   1.954   4.450   7.888  1.3368 -0.1395 -0.1138
   85CHL1  H27C 8770   1.910   4.458   8.065 -0.1378 -3.6836  1.7911
   86CHL1    C3 8771   5.794   0.312   7.008 -0.4482 -0.2128 -0.0986
   86CHL1    H3 8772   5.775   0.202   7.008  0.7137 -0.4387 -0.9325
   86CHL1    O3 8773   5.831   0.362   6.881 -0.0503 -0.2628  0.3849
   86CHL1   H3' 8774   5.837   0.456   6.896  2.0641 -0.1093 -0.9448
   86CHL1    C4 8775   5.664   0.374   7.049  0.2400  0.7321 -0.2450
   86CHL1   H4A 8776   5.675   0.484   7.058 -1.6283  0.9213  0.1823
   86CHL1   H4B 8777   5.583   0.352   6.976  0.5940  2.6916 -1.3021
   86CHL1    C5 8778   5.636   0.327   7.190  0.0776 -0.1664 -0.1382
   86CHL1    C6 8779   5.527   0.246   7.214 -0.8575  0.0564  0.4439
   86CHL1    H6 8780   5.461   0.220   7.129 -0.8468 -5.4109  1.7624
   86CHL1    C7 8781   5.491   0.195   7.355 -0.0375 -0.4378  0.5380
   86CHL1   H7A 8782   5.380   0.186   7.366  0.1303 -1.1277  1.9587
   86CHL1   H7B 8783   5.537   0.098   7.382  2.4682  0.6838  0.5858
   86CHL1    C8 8784   5.541   0.296   7.458 -0.1060  0.4234  0.1011
   86CHL1    H8 8785   5.484   0.391   7.455  1.3454  1.3390  0.3833
   86CHL1   C14 8786   5.511   0.247   7.601  0.5530  0.3593 -0.2532
   86CHL1   H14 8787   5.570   0.153   7.607 -0.1835 -0.0622  0.5479
   86CHL1   C15 8788   5.375   0.208   7.640  0.2233  0.0465  0.8341
   86CHL1  H15A 8789   5.308   0.282   7.590  2.4163 -0.5208 -3.4604
   86CHL1  H15B 8790   5.342   0.113   7.594 -1.4868  1.4562 -1.0605
   86CHL1   C16 8791   5.369   0.200   7.801 -0.1100 -0.6938  1.1084
   86CHL1  H16A 8792   5.283   0.257   7.840  1.9778  0.8202  3.8912
   86CHL1  H16B 8793   5.352   0.098   7.841 -0.9647 -0.3511  1.6478
   86CHL1   C17 8794   5.504   0.258   7.843  0.1958  0.1973  0.3173
   86CHL1   H17 8795   5.573   0.171   7.838  1.0884  0.9218 -0.4164
   86CHL1   C13 8796   5.552   0.333   7.722 -0.5392  0.4831 -0.0095
   86CHL1   C18 8797   5.486   0.479   7.724 -0.0406  0.7348 -0.6418
   86CHL1  H18A 8798   5.506   0.539   7.632  1.3893  1.3848  0.0492
   86CHL1  H18B 8799   5.378   0.472   7.747  0.2869  0.1306  0.8304
   86CHL1  H18C 8800   5.529   0.539   7.808 -0.7268 -1.7246  1.5968
   86CHL1   C12 8801   5.705   0.350   7.704 -0.8997  0.2626  0.2046
   86CHL1  H12A 8802   5.735   0.421   7.784 -3.2611 -0.7477  2.1157
   86CHL1  H12B 8803   5.759   0.255   7.727 -2.0536 -0.4866 -0.1145
   86CHL1   C11 8804   5.738   0.404   7.564 -0.1023 -0.4498  0.0399
   86CHL1  H11A 8805   5.694   0.506   7.555 -2.9035 -1.6531 -0.7596
   86CHL1  H11B 8806   5.849   0.417   7.560  0.0177 -1.7341 -1.5597
   86CHL1    C9 8807   5.694   0.317   7.442  0.9834 -0.4777  0.0837
   86CHL1    H9 8808   5.745   0.219   7.450  1.5179 -0.2847 -0.7956
   86CHL1   C10 8809   5.728   0.366   7.295 -0.9865 -0.2060 -0.0748
   86CHL1   C19 8810   5.762   0.523   7.298  0.3516  0.2097 -0.1367
   86CHL1  H19A 8811   5.851   0.549   7.360  0.0874  0.9847 -0.0761
   86CHL1  H19B 8812   5.774   0.572   7.199 -2.5127  2.2849  0.4306
   86CHL1  H19C 8813   5.678   0.583   7.340 -1.7718 -1.6770 -1.4738
   86CHL1    C1 8814   5.860   0.297   7.253  0.2496 -0.4005 -0.2498
   86CHL1   H1A 8815   5.945   0.309   7.323 -0.4485  0.3505  0.4952
   86CHL1   H1B 8816   5.840   0.188   7.253 -0.1828 -0.3241 -0.4224
   86CHL1    C2 8817   5.909   0.329   7.111 -0.2777  0.5978  0.1390
   86CHL1   H2A 8818   5.997   0.263   7.093 -1.2767 -0.4130 -1.2473
   86CHL1   H2B 8819   5.943   0.434   7.103  4.3765 -0.7646 -1.1003
   86CHL1   C20 8820   5.506   0.326   7.982  0.4740  0.5362 -0.4126
   86CHL1   H20 8821   5.446   0.417   7.964  0.1507 -0.2669 -4.6110
   86CHL1   C21 8822   5.651   0.367   8.026 -0.2938 -0.0627 -0.6509
   86CHL1  H21A 8823   5.728   0.291   7.999 -1.5219 -1.2375 -0.9212
   86CHL1  H21B 8824   5.652   0.397   8.133 -1.3519 -0.1057 -0.6205
   86CHL1  H21C 8825   5.674   0.454   7.961 -1.8525  0.4624 -0.5223
   86CHL1   C22 8826   5.442   0.230   8.078 -0.3148 -0.4280 -1.2511
   86CHL1  H22A 8827   5.331   0.235   8.065 -0.8746  0.5890  2.6951
   86CHL1  H22B 8828   5.475   0.125   8.063  0.1100 -0.4863  0.0160
   86CHL1   C23 8829   5.466   0.265   8.229 -0.2867 -0.4382  0.2426
   86CHL1  H23A 8830   5.572   0.267   8.262 -0.1020  1.9413 -0.3321
   86CHL1  H23B 8831   5.408   0.357   8.254  1.5330  0.6579  0.5665
   86CHL1   C24 8832   5.413   0.155   8.319  0.2854  0.4903 -0.2041
   86CHL1  H24A 8833   5.303   0.169   8.325  0.4409  2.5139 -1.1906
   86CHL1  H24B 8834   5.432   0.067   8.254 -0.4690  1.1571 -1.3731
   86CHL1   C25 8835   5.483   0.145   8.452 -0.1663  0.5841 -0.1846
   86CHL1   H25 8836   5.591   0.123   8.436 -0.6349 -2.4934  0.2352
   86CHL1   C26 8837   5.461   0.273   8.539 -0.0255  1.0599 -0.7663
   86CHL1  H26A 8838   5.356   0.306   8.555 -0.5992 -1.6852  2.0242
   86CHL1  H26B 8839   5.505   0.248   8.638  0.0750 -2.3985 -1.5681
   86CHL1  H26C 8840   5.519   0.359   8.497  1.8678  0.9246  1.3399
   86CHL1   C27 8841   5.424   0.028   8.541  0.5309  0.2900 -0.9273
   86CHL1  H27A 8842   5.401  -0.069   8.491  1.4538  0.0467 -0.9129
   86CHL1  H27B 8843   5.469   0.013   8.641 -0.9378  0.0478 -0.2768
   86CHL1  H27C 8844   5.328   0.069   8.579  2.5686  2.5293  2.2813
   87CHL1    C3 8845   0.991   2.004   7.051  0.1011  0.1250  0.1512
   87CHL1    H3 8846   0.896   1.968   7.097 -0.4296  2.3725  0.9696
   87CHL1    O3 8847   0.970   2.062   6.922  0.1343 -0.3165 -0.1017
   87CHL1   H3' 8848   1.057   2.062   6.882  0.8033 -2.0742  1.2349
   87CHL1    C4 8849   1.055   2.114   7.144  0.7489  0.0207  0.2180
   87CHL1   H4A 8850   1.148   2.163   7.108 -0.1767  2.9441  1.4403
   87CHL1   H4B 8851   0.995   2.207   7.153  1.0007  0.4359 -1.8414
   87CHL1    C5 8852   1.079   2.045   7.280  0.2224  0.4006 -0.0432
   87CHL1    C6 8853   1.006   2.095   7.387  0.3948 -0.3376 -0.1323
   87CHL1    H6 8854   0.933   2.173   7.362  1.1787 -0.3381 -2.7342
   87CHL1    C7 8855   1.020   2.056   7.531  0.3570  0.3839 -0.3843
   87CHL1   H7A 8856   1.046   2.143   7.594 -2.5167 -0.1260  1.7338
   87CHL1   H7B 8857   0.920   2.015   7.559  0.9466 -0.7961  0.0476
   87CHL1    C8 8858   1.123   1.944   7.554 -0.3062  0.6019  0.6075
   87CHL1    H8 8859   1.220   1.997   7.563 -0.5969  0.8688  2.4166
   87CHL1   C14 8860   1.091   1.866   7.679  0.3084 -0.7738  0.3710
   87CHL1   H14 8861   0.993   1.819   7.657 -0.0608  0.8842 -1.8924
   87CHL1   C15 8862   1.084   1.950   7.808  0.2733  0.0908 -0.3431
   87CHL1  H15A 8863   1.167   2.024   7.815  1.2530 -0.9017 -0.9932
   87CHL1  H15B 8864   0.992   2.011   7.815 -0.5453 -1.2284  0.6921
   87CHL1   C16 8865   1.095   1.847   7.919 -0.0309  0.1330  0.1121
   87CHL1  H16A 8866   1.165   1.885   7.997  0.8883  2.7599 -1.8731
   87CHL1  H16B 8867   0.999   1.824   7.970  1.9511 -3.1065  2.7865
   87CHL1   C17 8868   1.136   1.711   7.853 -0.1646  0.5395  0.1213
   87CHL1   H17 8869   1.041   1.658   7.833  0.1154 -0.2627  0.8274
   87CHL1   C13 8870   1.183   1.755   7.714  0.4330  0.1979  0.4577
   87CHL1   C18 8871   1.330   1.805   7.733  0.0183 -0.1837  0.5507
   87CHL1  H18A 8872   1.395   1.718   7.754  1.2699  0.8062  0.9681
   87CHL1  H18B 8873   1.364   1.852   7.638 -0.5726  3.4018  1.9187
   87CHL1  H18C 8874   1.344   1.888   7.806  2.1028 -0.0722  0.0946
   87CHL1   C12 8875   1.187   1.653   7.598  0.0240  0.6509  0.0735
   87CHL1  H12A 8876   1.261   1.572   7.605 -1.7140 -0.9067  1.4914
   87CHL1  H12B 8877   1.081   1.622   7.584  0.7804 -1.8546 -0.5353
   87CHL1   C11 8878   1.218   1.722   7.460  0.2108  0.5685 -0.7634
   87CHL1  H11A 8879   1.327   1.738   7.462  0.2489  0.2025  0.6734
   87CHL1  H11B 8880   1.200   1.640   7.388 -1.0249 -1.8255  2.0718
   87CHL1    C9 8881   1.124   1.849   7.430  0.0144  0.0941 -0.0383
   87CHL1    H9 8882   1.020   1.810   7.422 -0.2004  0.8511 -1.1664
   87CHL1   C10 8883   1.156   1.913   7.288 -0.5187  0.6483  0.4079
   87CHL1   C19 8884   1.319   1.934   7.277  0.4252 -0.0168  0.4781
   87CHL1  H19A 8885   1.356   1.980   7.372 -0.3471  1.0000  0.3033
   87CHL1  H19B 8886   1.369   1.836   7.264  0.2829 -0.0020 -0.2426
   87CHL1  H19C 8887   1.353   2.001   7.195 -2.0982 -0.6512 -1.1775
   87CHL1    C1 8888   1.111   1.811   7.171 -0.1520 -1.0051  0.1384
   87CHL1   H1A 8889   1.192   1.738   7.149  2.3519  1.8722 -0.7943
   87CHL1   H1B 8890   1.017   1.760   7.200  0.3626 -1.1655  1.5777
   87CHL1    C2 8891   1.086   1.884   7.040 -0.0454 -0.2006 -0.0638
   87CHL1   H2A 8892   1.038   1.806   6.978  0.5184 -0.9078  0.3654
   87CHL1   H2B 8893   1.183   1.915   6.995 -0.7651  1.3109 -0.6380
   87CHL1   C20 8894   1.224   1.614   7.943  0.4311  0.0375 -0.1105
   87CHL1   H20 8895   1.325   1.659   7.945  0.1474  0.8623 -1.9991
   87CHL1   C21 8896   1.239   1.478   7.877  0.4143  0.0849 -0.2556
   87CHL1  H21A 8897   1.141   1.452   7.832 -0.1548  0.3849  0.7995
   87CHL1  H21B 8898   1.272   1.393   7.939 -0.4677 -2.0336 -2.5218
   87CHL1  H21C 8899   1.321   1.500   7.805  2.2430  0.2547  1.7952
   87CHL1   C22 8900   1.167   1.608   8.088 -0.0276  0.1580 -0.0397
   87CHL1  H22A 8901   1.170   1.705   8.140 -0.1845 -0.4043  1.0404
   87CHL1  H22B 8902   1.066   1.564   8.101  0.0553 -0.0167  0.0191
   87CHL1   C23 8903   1.262   1.528   8.191  0.5245  0.5502  0.7694
   87CHL1  H23A 8904   1.243   1.419   8.178 -0.2798  0.9000 -1.3578
   87CHL1  H23B 8905   1.366   1.562   8.170  0.3600 -0.0996 -1.3506
   87CHL1   C24 8906   1.223   1.558   8.340 -0.1868 -0.1346  0.0034
   87CHL1  H24A 8907   1.218   1.666   8.365  1.0291 -0.1133  0.2206
   87CHL1  H24B 8908   1.121   1.515   8.346 -0.1569 -0.1769  0.2352
   87CHL1   C25 8909   1.316   1.478   8.427 -0.5024 -0.3372 -0.4690
   87CHL1   H25 8910   1.417   1.512   8.395 -0.1237 -0.4698  0.5550
   87CHL1   C26 8911   1.303   1.523   8.572 -0.0053 -0.6278 -1.1440
   87CHL1  H26A 8912   1.385   1.474   8.629  1.6388  0.9704 -2.0163
   87CHL1  H26B 8913   1.313   1.634   8.580 -3.3761 -0.3081  0.3858
   87CHL1  H26C 8914   1.199   1.510   8.608 -0.3070  3.3202 -0.0432
   87CHL1   C27 8915   1.299   1.327   8.419  0.5354 -0.1014  0.3094
   87CHL1  H27A 8916   1.195   1.290   8.429  1.1887 -2.1384  0.1481
   87CHL1  H27B 8917   1.326   1.282   8.321  1.0739 -1.0652  0.8913
   87CHL1  H27C 8918   1.362   1.283   8.499  0.2747 -1.8252 -0.3942
   88CHL1    C3 8919   2.709   6.728   6.743  0.1453  0.4040  0.0545
   88CHL1    H3 8920   2.602   6.713   6.717 -0.2877 -1.0501  2.3866
   88CHL1    O3 8921   2.779   6.733   6.619 -0.1618 -0.8760 -0.0425
   88CHL1   H3' 8922   2.854   6.790   6.632 -0.7945  0.3989 -1.6325
   88CHL1    C4 8923   2.725   6.856   6.817  0.8221 -0.0367 -0.0321
   88CHL1   H4A 8924   2.831   6.884   6.835  0.9921  0.7454 -1.9392
   88CHL1   H4B 8925   2.676   6.933   6.752  0.7862 -0.3605 -0.3948
   88CHL1    C5 8926   2.666   6.854   6.955  0.2772 -0.3428  1.3803
   88CHL1    C6 8927   2.576   6.953   6.989 -0.2029  0.3281 -0.4812
   88CHL1    H6 8928   2.551   7.041   6.928  0.2933 -0.1103 -1.3390
   88CHL1    C7 8929   2.517   6.948   7.123  0.9468 -0.1993  0.1642
   88CHL1   H7A 8930   2.501   7.049   7.168  2.5659  1.6235 -3.0147
   88CHL1   H7B 8931   2.412   6.915   7.114  0.9892 -1.2562  2.6507
   88CHL1    C8 8932   2.584   6.850   7.225  0.3314 -0.5403  0.1943
   88CHL1    H8 8933   2.683   6.895   7.249  0.2289  0.2533 -0.8121
   88CHL1   C14 8934   2.503   6.837   7.349  0.3208  0.4065 -0.3055
   88CHL1   H14 8935   2.407   6.803   7.305  1.9220  0.4962 -4.2921
   88CHL1   C15 8936   2.474   6.963   7.429  0.6342 -0.5578  0.1314
   88CHL1  H15A 8937   2.571   7.018   7.427 -0.6941  1.9161 -2.5011
   88CHL1  H15B 8938   2.394   7.029   7.390  0.4109 -1.6843 -1.3968
   88CHL1   C16 8939   2.439   6.911   7.571 -0.2984  0.4641 -0.0084
   88CHL1  H16A 8940   2.474   6.962   7.663 -1.1610 -1.4294  1.4380
   88CHL1  H16B 8941   2.328   6.919   7.583 -0.2518  0.3039  0.5687
   88CHL1   C17 8942   2.461   6.763   7.567 -0.5327 -0.2625 -0.2809
   88CHL1   H17 8943   2.366   6.731   7.520 -0.7565 -0.4317  0.2782
   88CHL1   C13 8944   2.560   6.732   7.457  0.3218 -0.1589 -0.5807
   88CHL1   C18 8945   2.703   6.774   7.495  0.3942 -0.3584  0.5597
   88CHL1  H18A 8946   2.769   6.763   7.407 -1.7982 -2.2493 -0.9678
   88CHL1  H18B 8947   2.688   6.874   7.541 -2.3886 -1.1638  1.6300
   88CHL1  H18C 8948   2.732   6.701   7.574 -0.7041  0.0613  1.3866
   88CHL1   C12 8949   2.560   6.590   7.397 -0.4153  0.3033  0.6070
   88CHL1  H12A 8950   2.619   6.517   7.457 -0.4800 -1.9367 -1.8492
   88CHL1  H12B 8951   2.460   6.550   7.368  0.7246 -2.9243  0.7078
   88CHL1   C11 8952   2.637   6.602   7.260 -0.3826 -0.4936 -0.1716
   88CHL1  H11A 8953   2.747   6.604   7.280 -0.8900  0.6763  3.0681
   88CHL1  H11B 8954   2.624   6.506   7.205  1.5172 -0.9884  0.1373
   88CHL1    C9 8955   2.607   6.715   7.161 -0.4570  0.0896 -0.9496
   88CHL1    H9 8956   2.503   6.693   7.129 -1.7253  5.1682 -1.1892
   88CHL1   C10 8957   2.690   6.727   7.037  0.2682  0.3107  1.2192
   88CHL1   C19 8958   2.834   6.737   7.086 -0.1247  0.0746  0.0526
   88CHL1  H19A 8959   2.912   6.765   7.013  0.3434  1.4329  1.0323
   88CHL1  H19B 8960   2.855   6.813   7.165  0.7082 -0.6556  0.5546
   88CHL1  H19C 8961   2.876   6.638   7.115  0.4105  0.6576  1.3457
   88CHL1    C1 8962   2.663   6.602   6.946  0.0216  0.3597 -0.0057
   88CHL1   H1A 8963   2.672   6.509   7.005 -2.3715  0.7105  1.0283
   88CHL1   H1B 8964   2.558   6.607   6.910  0.6663  0.2621 -2.0250
   88CHL1    C2 8965   2.750   6.603   6.821 -0.0042 -0.5731 -0.3139
   88CHL1   H2A 8966   2.736   6.513   6.757  2.2892 -0.3515 -1.2146
   88CHL1   H2B 8967   2.857   6.599   6.851 -0.2437  2.1835  1.2210
   88CHL1   C20 8968   2.477   6.691   7.704 -0.1955  0.0983 -0.2611
   88CHL1   H20 8969   2.508   6.589   7.674  3.4544  1.4176 -1.4873
   88CHL1   C21 8970   2.331   6.703   7.759 -0.1796 -0.0640  0.1725
   88CHL1  H21A 8971   2.311   6.808   7.788  0.1951 -0.3344  1.4643
   88CHL1  H21B 8972   2.312   6.636   7.845 -0.8850 -0.7174 -0.4707
   88CHL1  H21C 8973   2.259   6.681   7.676  2.5019 -1.0369 -2.0470
   88CHL1   C22 8974   2.582   6.737   7.802 -0.0929  0.4351 -0.2585
   88CHL1  H22A 8975   2.688   6.728   7.770 -0.2926 -0.9625 -0.5707
   88CHL1  H22B 8976   2.562   6.846   7.813 -0.5925  0.4916 -1.5254
   88CHL1   C23 8977   2.570   6.676   7.939 -0.4011 -0.0030 -0.1351
   88CHL1  H23A 8978   2.475   6.687   7.996  1.0795  2.5436  2.0986
   88CHL1  H23B 8979   2.562   6.566   7.928 -0.4992 -0.6623  4.4225
   88CHL1   C24 8980   2.689   6.711   8.027 -0.1667  0.3039 -0.3218
   88CHL1  H24A 8981   2.786   6.682   7.979 -0.1501  0.6937 -0.5294
   88CHL1  H24B 8982   2.686   6.822   8.035 -1.2946  0.1535  1.9054
   88CHL1   C25 8983   2.681   6.643   8.166 -0.0088 -0.4052 -0.8419
   88CHL1   H25 8984   2.583   6.674   8.207  1.7000 -0.9551  4.5177
   88CHL1   C26 8985   2.681   6.491   8.158 -0.4695 -0.8811 -0.0511
   88CHL1  H26A 8986   2.759   6.452   8.090 -1.0255 -0.7726 -0.7559
   88CHL1  H26B 8987   2.679   6.432   8.253 -1.2349 -2.8289 -1.2179
   88CHL1  H26C 8988   2.587   6.470   8.102 -1.4222  1.9949  0.3392
   88CHL1   C27 8989   2.782   6.689   8.280  0.2191 -0.2454 -0.2563
   88CHL1  H27A 8990   2.762   6.795   8.309  0.7378 -0.2169  0.0064
   88CHL1  H27B 8991   2.754   6.641   8.375  0.2765 -1.6085 -0.9087
   88CHL1  H27C 8992   2.891   6.667   8.271  0.2717  0.1808 -0.7408
   89CHL1    C3 8993   3.718   5.132   6.875 -0.0717 -0.7662 -0.9798
   89CHL1    H3 8994   3.624   5.087   6.914  0.0182 -0.2416 -0.1260
   89CHL1    O3 8995   3.738   5.139   6.733  0.5856 -0.5016 -0.2308
   89CHL1   H3' 8996   3.833   5.135   6.719  0.1905 -1.5796 -3.2339
   89CHL1    C4 8997   3.730   5.270   6.936 -0.3983  0.4672  0.6092
   89CHL1   H4A 8998   3.824   5.313   6.896  1.5595 -1.6023  2.6372
   89CHL1   H4B 8999   3.640   5.327   6.905 -0.5425 -0.7553 -1.4312
   89CHL1    C5 9000   3.733   5.265   7.091  0.2502 -0.4290  0.5444
   89CHL1    C6 9001   3.642   5.336   7.159 -0.4961  0.0858 -0.2816
   89CHL1    H6 9002   3.583   5.412   7.105  0.4220 -0.2376 -1.8140
   89CHL1    C7 9003   3.638   5.336   7.309 -0.1554  0.3373 -0.8227
   89CHL1   H7A 9004   3.640   5.441   7.347 -2.7458 -0.2661  1.3175
   89CHL1   H7B 9005   3.542   5.294   7.346  0.4289  0.5708  1.0997
   89CHL1    C8 9006   3.761   5.267   7.378  0.1548  0.4249 -0.3897
   89CHL1    H8 9007   3.852   5.331   7.375  0.1073  0.5499  0.5975
   89CHL1   C14 9008   3.749   5.248   7.532 -0.3616 -0.1457  0.4445
   89CHL1   H14 9009   3.662   5.179   7.539 -0.6813  0.1676 -0.3204
   89CHL1   C15 9010   3.720   5.372   7.627  0.1357  0.9034  0.2137
   89CHL1  H15A 9011   3.804   5.444   7.617  0.5416  0.6214  1.4256
   89CHL1  H15B 9012   3.620   5.415   7.610  0.1573  0.6515 -0.5870
   89CHL1   C16 9013   3.725   5.304   7.765 -0.1891  0.1914 -0.9488
   89CHL1  H16A 9014   3.764   5.383   7.833 -0.3511  0.7320 -1.4705
   89CHL1  H16B 9015   3.626   5.282   7.810 -0.1261 -1.8096 -1.7152
   89CHL1   C17 9016   3.811   5.170   7.757  0.0840  0.0566 -0.3023
   89CHL1   H17 9017   3.743   5.085   7.775 -0.6234  0.8645  1.0389
   89CHL1   C13 9018   3.861   5.175   7.608 -0.0231 -0.2122  0.5290
   89CHL1   C18 9019   3.996   5.255   7.597  0.4718 -0.2707 -0.0001
   89CHL1  H18A 9020   3.992   5.344   7.663 -1.7982  0.1110 -0.5743
   89CHL1  H18B 9021   4.079   5.193   7.637 -0.7421 -1.7699  0.3048
   89CHL1  H18C 9022   4.027   5.283   7.494 -1.2982  1.6097 -0.0807
   89CHL1   C12 9023   3.879   5.036   7.535 -0.2048  0.2677 -0.4282
   89CHL1  H12A 9024   3.957   4.969   7.576 -0.8853 -2.0259 -2.6724
   89CHL1  H12B 9025   3.774   5.001   7.546 -1.1651  3.0396  0.2454
   89CHL1   C11 9026   3.903   5.056   7.388  0.0523 -0.4115 -0.1431
   89CHL1  H11A 9027   4.004   5.103   7.381 -0.0447 -0.3108 -1.1209
   89CHL1  H11B 9028   3.912   4.956   7.340 -0.2410 -0.3753 -0.2767
   89CHL1    C9 9029   3.798   5.136   7.312  0.0501 -0.9119  0.6051
   89CHL1    H9 9030   3.706   5.075   7.319 -0.5343 -0.2583 -0.9451
   89CHL1   C10 9031   3.833   5.162   7.155 -0.5776  0.1125 -0.2293
   89CHL1   C19 9032   3.973   5.229   7.139  0.4656  0.1126  0.0081
   89CHL1  H19A 9033   3.989   5.317   7.205  0.4108 -0.0498  0.2424
   89CHL1  H19B 9034   4.043   5.153   7.179 -1.4963 -1.8380 -0.0446
   89CHL1  H19C 9035   3.998   5.265   7.037  2.9915 -1.8174 -0.1469
   89CHL1    C1 9036   3.835   5.027   7.072  0.3363 -0.5117 -0.4624
   89CHL1   H1A 9037   3.920   4.966   7.111  0.4290  0.0298  0.1867
   89CHL1   H1B 9038   3.750   4.962   7.101 -0.3776  0.7911  0.4311
   89CHL1    C2 9039   3.829   5.040   6.925 -0.1461  0.0555 -0.2593
   89CHL1   H2A 9040   3.822   4.940   6.877  1.3343 -0.2872  0.1976
   89CHL1   H2B 9041   3.924   5.085   6.890  0.6269  0.5614  2.2638
   89CHL1   C20 9042   3.912   5.152   7.870 -1.2519 -0.0622 -0.4370
   89CHL1   H20 9043   3.983   5.238   7.866 -3.6319  2.0513  0.1440
   89CHL1   C21 9044   4.002   5.019   7.849 -0.0726 -0.3120  0.4972
   89CHL1  H21A 9045   4.075   5.022   7.765 -0.3836  0.0979  0.2370
   89CHL1  H21B 9046   3.938   4.928   7.854 -1.2906  0.5926  2.3971
   89CHL1  H21C 9047   4.066   5.018   7.939  0.3520  3.3844  0.3903
   89CHL1   C22 9048   3.839   5.145   7.999 -0.6195  0.1310 -0.4820
   89CHL1  H22A 9049   3.770   5.232   8.003 -2.3037 -1.0395 -2.2089
   89CHL1  H22B 9050   3.775   5.054   7.993 -0.3728 -0.0808  0.0643
   89CHL1   C23 9051   3.928   5.136   8.133  0.9488  0.5648  0.4641
   89CHL1  H23A 9052   3.996   5.048   8.132  2.6009  1.7785  1.5413
   89CHL1  H23B 9053   3.995   5.224   8.142  2.0374  0.1861 -2.6132
   89CHL1   C24 9054   3.834   5.139   8.255  0.1694  0.6514 -0.0481
   89CHL1  H24A 9055   3.766   5.227   8.251 -1.1978 -0.3594 -0.0833
   89CHL1  H24B 9056   3.762   5.054   8.259 -0.5800  1.3265  2.7074
   89CHL1   C25 9057   3.904   5.136   8.391  0.1541  0.2342  0.1364
   89CHL1   H25 9058   3.982   5.056   8.388 -0.2564 -0.1476 -1.5964
   89CHL1   C26 9059   3.965   5.269   8.428 -0.7163  0.0574  0.7025
   89CHL1  H26A 9060   4.041   5.301   8.353 -0.0402 -4.1541 -0.6550
   89CHL1  H26B 9061   3.886   5.347   8.421 -0.1039  0.6771  0.5776
   89CHL1  H26C 9062   3.996   5.259   8.534  0.5044  0.9260  0.4506
   89CHL1   C27 9063   3.811   5.094   8.504  0.0122  0.0592 -0.6124
   89CHL1  H27A 9064   3.721   5.151   8.533 -1.3392 -1.7401 -1.1103
   89CHL1  H27B 9065   3.778   4.990   8.483 -1.2754  0.8797 -2.9742
   89CHL1  H27C 9066   3.878   5.096   8.593  0.5340  0.7023 -1.0139
   90CHL1    C3 9067   1.110   5.018   6.960  0.2284  0.9330 -0.6070
   90CHL1    H3 9068   1.221   5.017   6.971  0.1410  0.1179  0.2960
   90CHL1    O3 9069   1.072   4.982   6.827 -0.4552  0.1086  0.0604
   90CHL1   H3' 9070   0.979   5.004   6.832 -0.0695  1.6495  1.0475
   90CHL1    C4 9071   1.081   4.905   7.062  0.0603  0.4494 -0.7225
   90CHL1   H4A 9072   0.972   4.887   7.047  0.0269  0.5883 -0.6418
   90CHL1   H4B 9073   1.136   4.813   7.033 -1.6126 -0.5830 -0.7558
   90CHL1    C5 9074   1.104   4.947   7.205 -0.4755 -0.1435 -1.1374
   90CHL1    C6 9075   1.183   4.876   7.286 -0.6333  0.4010  0.3870
   90CHL1    H6 9076   1.219   4.782   7.241 -0.5094  0.3609  0.5684
   90CHL1    C7 9077   1.196   4.897   7.433 -0.2684 -0.3575 -0.7832
   90CHL1   H7A 9078   1.168   4.805   7.488 -1.7494  0.8914  0.6581
   90CHL1   H7B 9079   1.301   4.924   7.461 -0.5924  0.3409 -0.2155
   90CHL1    C8 9080   1.095   4.997   7.494 -0.4116  0.0482  0.6027
   90CHL1    H8 9081   0.999   4.942   7.483 -0.8547  0.5079  2.0029
   90CHL1   C14 9082   1.141   5.042   7.626 -0.5656  0.1026 -0.0672
   90CHL1   H14 9083   1.234   5.096   7.595  0.5506 -1.6669  0.0676
   90CHL1   C15 9084   1.173   4.930   7.731 -0.2221 -0.6800 -0.6742
   90CHL1  H15A 9085   1.096   4.851   7.718  0.1243 -1.6418  2.2066
   90CHL1  H15B 9086   1.277   4.893   7.719  0.6419  1.5820 -0.5704
   90CHL1   C16 9087   1.160   5.002   7.863  0.4205  0.6476 -0.1300
   90CHL1  H16A 9088   1.077   4.954   7.919  0.7611 -0.3247 -0.4430
   90CHL1  H16B 9089   1.246   4.996   7.933  0.9021 -1.3360 -0.8222
   90CHL1   C17 9090   1.107   5.146   7.840  0.0390 -0.4809 -0.5287
   90CHL1   H17 9091   1.195   5.212   7.824  0.6911 -0.8902  1.1939
   90CHL1   C13 9092   1.051   5.142   7.697  0.2287 -0.6106  0.1116
   90CHL1   C18 9093   0.912   5.069   7.707  0.3895 -0.6085 -1.2934
   90CHL1  H18A 9094   0.834   5.130   7.759  2.6460  2.8423 -1.6538
   90CHL1  H18B 9095   0.871   5.051   7.605 -2.0075 -0.3159 -0.4615
   90CHL1  H18C 9096   0.924   4.976   7.766  2.1783  0.3098 -0.0997
   90CHL1   C12 9097   1.028   5.263   7.608  0.7274 -0.0457  0.0759
   90CHL1  H12A 9098   0.953   5.335   7.648  1.8362  1.1721  0.0454
   90CHL1  H12B 9099   1.120   5.325   7.614  2.1466 -2.2143  3.1017
   90CHL1   C11 9100   0.989   5.226   7.459 -0.1757 -0.6696  0.4076
   90CHL1  H11A 9101   0.884   5.190   7.461  0.8273 -4.3016 -2.5265
   90CHL1  H11B 9102   0.978   5.311   7.388 -0.9222 -0.7451  0.4271
   90CHL1    C9 9103   1.081   5.114   7.398  0.2924  0.1649 -0.2676
   90CHL1    H9 9104   1.184   5.155   7.389  0.9029 -1.0448  0.9019
   90CHL1   C10 9105   1.034   5.069   7.252  0.6595 -0.9903  0.1660
   90CHL1   C19 9106   0.876   5.048   7.261 -0.6735  0.1345 -0.2226
   90CHL1  H19A 9107   0.837   5.152   7.267 -0.5946  0.2052 -0.8755
   90CHL1  H19B 9108   0.836   5.008   7.166 -0.8397  0.9782 -0.5173
   90CHL1  H19C 9109   0.855   4.982   7.348  1.1466 -0.7761 -0.4160
   90CHL1    C1 9110   1.069   5.192   7.152  0.1119  0.0320 -0.2987
   90CHL1   H1A 9111   1.016   5.288   7.171 -2.5415 -1.2543 -0.7407
   90CHL1   H1B 9112   1.175   5.221   7.170  0.5066  0.4817 -2.8858
   90CHL1    C2 9113   1.050   5.151   7.005 -0.0792  0.1396  0.3122
   90CHL1   H2A 9114   1.092   5.238   6.950 -0.1540  1.0703  1.6714
   90CHL1   H2B 9115   0.940   5.150   6.987  0.1487  1.0522 -1.2828
   90CHL1   C20 9116   1.021   5.201   7.955 -0.4941 -0.1217  0.4098
   90CHL1   H20 9117   0.930   5.137   7.951  0.1860 -1.1176  0.3934
   90CHL1   C21 9118   0.979   5.344   7.913 -0.2974  0.1519  0.4277
   90CHL1  H21A 9119   0.940   5.400   8.000 -1.4720 -0.3163  0.2171
   90CHL1  H21B 9120   0.892   5.337   7.844 -0.1814  1.2422  0.1512
   90CHL1  H21C 9121   1.068   5.395   7.869 -0.7933 -0.7236 -1.6874
   90CHL1   C22 9122   1.092   5.191   8.093 -0.3489  0.0268  0.3367
   90CHL1  H22A 9123   1.126   5.086   8.102 -1.0141 -0.3117 -0.8768
   90CHL1  H22B 9124   1.171   5.266   8.113  0.1815  0.1515 -1.9891
   90CHL1   C23 9125   0.995   5.218   8.208  0.2183  0.1538  0.1634
   90CHL1  H23A 9126   0.934   5.309   8.188 -0.7372 -0.4824  0.1141
   90CHL1  H23B 9127   0.928   5.131   8.217  0.6119 -0.3644 -1.5326
   90CHL1   C24 9128   1.085   5.216   8.330  0.0969  0.0746 -0.0206
   90CHL1  H24A 9129   1.141   5.121   8.344 -0.3277  0.0692  2.0898
   90CHL1  H24B 9130   1.164   5.294   8.319  0.4160 -0.3382 -0.7118
   90CHL1   C25 9131   1.016   5.232   8.468  0.5237 -0.2113  0.3548
   90CHL1   H25 9132   1.104   5.269   8.526  0.1424 -0.2871  0.9956
   90CHL1   C26 9133   0.911   5.339   8.478  0.2612  0.2973 -0.3058
   90CHL1  H26A 9134   0.831   5.313   8.406 -1.5199  2.5175  0.7585
   90CHL1  H26B 9135   0.863   5.344   8.578  2.1001 -2.3484  0.8314
   90CHL1  H26C 9136   0.958   5.440   8.469 -1.1565  0.8982 -1.4401
   90CHL1   C27 9137   0.971   5.102   8.530 -0.3003 -0.8656 -0.2763
   90CHL1  H27A 9138   1.053   5.028   8.531 -0.3643 -0.9348  0.0187
   90CHL1  H27B 9139   0.941   5.125   8.635  0.5499 -2.0656  0.2476
   90CHL1  H27C 9140   0.883   5.058   8.479 -0.1915 -2.8726  1.1581
   91CHL1    C3 9141   0.416   0.313   7.157  0.0492 -0.0814  0.4312
   91CHL1    H3 9142   0.463   0.213   7.172  0.0495 -0.2379 -0.5423
   91CHL1    O3 9143   0.421   0.339   7.015 -0.0681  0.2359  0.4614
   91CHL1   H3' 9144   0.339   0.386   6.998 -1.2784 -0.6912  3.2077
   91CHL1    C4 9145   0.273   0.307   7.211  0.1756  0.0976 -0.4931
   91CHL1   H4A 9146   0.227   0.407   7.196 -0.2266  0.5863  3.1048
   91CHL1   H4B 9147   0.217   0.234   7.149  3.6718 -2.4123 -0.9789
   91CHL1    C5 9148   0.274   0.289   7.363  0.4416  0.6076 -0.3604
   91CHL1    C6 9149   0.209   0.182   7.420 -0.1394  0.3089  0.1602
   91CHL1    H6 9150   0.142   0.131   7.350  0.1010  1.0058 -0.5919
   91CHL1    C7 9151   0.193   0.169   7.568  0.0518 -0.1745 -1.0591
   91CHL1   H7A 9152   0.084   0.157   7.588  0.2854 -1.3358 -0.3300
   91CHL1   H7B 9153   0.240   0.075   7.606 -1.0924 -1.8146 -3.4552
   91CHL1    C8 9154   0.240   0.288   7.649  0.5345 -0.3944  0.2334
   91CHL1    H8 9155   0.167   0.371   7.644  2.2145  1.0992 -0.5418
   91CHL1   C14 9156   0.255   0.275   7.802  0.2543 -0.1186  0.9199
   91CHL1   H14 9157   0.343   0.207   7.811  2.9447  2.5881 -2.5519
   91CHL1   C15 9158   0.134   0.205   7.861  0.0496  0.0608  0.1831
   91CHL1  H15A 9159   0.035   0.242   7.824 -1.2510 -2.6074  0.7455
   91CHL1  H15B 9160   0.125   0.097   7.838 -0.0526  0.5140 -2.2153
   91CHL1   C16 9161   0.139   0.236   8.014 -0.4188  0.0777  0.6274
   91CHL1  H16A 9162   0.053   0.303   8.032 -0.2770  0.4550 -0.0476
   91CHL1  H16B 9163   0.122   0.148   8.079 -2.5265  0.1651  0.2592
   91CHL1   C17 9164   0.270   0.314   8.031 -0.5777  0.3137  0.3077
   91CHL1   H17 9165   0.346   0.234   8.041  0.0292 -0.0109 -4.3432
   91CHL1   C13 9166   0.287   0.389   7.893 -0.0387  0.3615 -0.1927
   91CHL1   C18 9167   0.183   0.496   7.880  0.4687 -0.0938  0.0436
   91CHL1  H18A 9168   0.214   0.582   7.943  2.2751 -0.2232 -0.6068
   91CHL1  H18B 9169   0.154   0.534   7.779 -3.7846  0.0269  1.1259
   91CHL1  H18C 9170   0.084   0.469   7.921  0.9266  0.9322  1.9385
   91CHL1   C12 9171   0.432   0.427   7.858  0.4004 -0.1985 -0.1241
   91CHL1  H12A 9172   0.470   0.509   7.923 -2.0637  0.2154  0.9106
   91CHL1  H12B 9173   0.496   0.339   7.879  1.6969  1.1329  1.8480
   91CHL1   C11 9174   0.434   0.450   7.698  0.0224  0.5139 -0.8077
   91CHL1  H11A 9175   0.381   0.547   7.696  0.8275  1.0352  1.0810
   91CHL1  H11B 9176   0.539   0.468   7.663  0.8284 -2.5458 -0.2556
   91CHL1    C9 9177   0.371   0.345   7.594  0.2143 -0.7784 -0.0102
   91CHL1    H9 9178   0.439   0.257   7.598  0.6085 -0.4619  0.3430
   91CHL1   C10 9179   0.356   0.395   7.449 -0.9874  0.0548  0.6314
   91CHL1   C19 9180   0.285   0.534   7.445 -0.3986 -0.3277  0.1873
   91CHL1  H19A 9181   0.261   0.556   7.339  0.2712  0.0491  0.1075
   91CHL1  H19B 9182   0.193   0.533   7.507 -0.6068 -0.8828 -0.1282
   91CHL1  H19C 9183   0.347   0.617   7.486  1.4236 -1.1289 -0.8424
   91CHL1    C1 9184   0.499   0.402   7.382  0.0468 -0.2143  0.1650
   91CHL1   H1A 9185   0.555   0.488   7.423  1.4173 -1.2286  0.4860
   91CHL1   H1B 9186   0.555   0.311   7.411  0.5517 -0.1579 -0.5830
   91CHL1    C2 9187   0.493   0.425   7.233  0.6310  1.1404 -0.2815
   91CHL1   H2A 9188   0.595   0.426   7.190 -0.2914 -1.0235 -2.7975
   91CHL1   H2B 9189   0.432   0.517   7.221 -0.3376  0.6154  0.4794
   91CHL1   C20 9190   0.279   0.399   8.157 -0.6715  0.6118  0.5293
   91CHL1   H20 9191   0.230   0.493   8.125  0.3309  0.2037 -2.5041
   91CHL1   C21 9192   0.427   0.425   8.196 -0.4243 -0.3915 -1.2848
   91CHL1  H21A 9193   0.479   0.327   8.201  0.5834  0.1460 -0.9584
   91CHL1  H21B 9194   0.444   0.454   8.302  0.5872 -1.8489 -1.0181
   91CHL1  H21C 9195   0.487   0.490   8.129 -0.9158  0.4215 -0.9523
   91CHL1   C22 9196   0.204   0.340   8.279  0.3062 -0.2816 -0.6773
   91CHL1  H22A 9197   0.201   0.231   8.260 -0.1643 -0.3820 -0.0482
   91CHL1  H22B 9198   0.266   0.342   8.371 -2.6050 -3.7071  1.6701
   91CHL1   C23 9199   0.067   0.412   8.314 -0.0792  0.1032  0.4786
   91CHL1  H23A 9200   0.090   0.520   8.315  0.2657  0.0300  0.6813
   91CHL1  H23B 9201   0.000   0.389   8.228 -1.3760  0.8000  1.2728
   91CHL1   C24 9202   0.012   0.355   8.444 -0.3845 -0.4745  0.1764
   91CHL1  H24A 9203   0.010   0.244   8.441  1.3412 -0.5046 -1.5265
   91CHL1  H24B 9204   0.094   0.375   8.516 -0.5189 -1.3689  0.5923
   91CHL1   C25 9205  -0.124   0.419   8.477 -0.2243  0.7905  1.2858
   91CHL1   H25 9206  -0.131   0.527   8.451  0.0772  0.7202  0.9123
   91CHL1   C26 9207  -0.229   0.348   8.386  0.1815 -0.0450 -0.3270
   91CHL1  H26A 9208  -0.329   0.382   8.422 -0.0502 -0.0386 -0.9601
   91CHL1  H26B 9209  -0.219   0.380   8.280  1.3676  1.0498  0.0973
   91CHL1  H26C 9210  -0.231   0.237   8.395  1.6830 -0.0166  0.5718
   91CHL1   C27 9211  -0.168   0.392   8.625  0.3518  1.0914  0.0638
   91CHL1  H27A 9212  -0.091   0.425   8.698  1.0051 -2.5688  1.2213
   91CHL1  H27B 9213  -0.265   0.442   8.647 -0.3940  0.5158 -1.7373
   91CHL1  H27C 9214  -0.189   0.284   8.640  1.0708  0.9182 -0.1525
   92CHL1    C3 9215   2.915   2.149   6.683  0.3405 -0.3310  0.2655
   92CHL1    H3 9216   2.981   2.062   6.703 -0.0209 -0.1394  2.5415
   92CHL1    O3 9217   2.898   2.164   6.544 -0.3731  0.1879  0.7024
   92CHL1   H3' 9218   2.863   2.251   6.524  0.2655 -0.0072 -1.4424
   92CHL1    C4 9219   2.776   2.118   6.749  0.7024  0.1621 -0.2310
   92CHL1   H4A 9220   2.701   2.199   6.736 -1.2110 -1.6758 -1.2815
   92CHL1   H4B 9221   2.739   2.029   6.695 -0.1960  0.2676  0.1948
   92CHL1    C5 9222   2.805   2.088   6.898  0.8511  1.2384  0.7189
   92CHL1    C6 9223   2.765   1.967   6.950  0.3410  0.4244 -0.3050
   92CHL1    H6 9224   2.700   1.898   6.895 -1.2114 -0.5284  2.5265
   92CHL1    C7 9225   2.756   1.939   7.096  0.2095  0.5570  0.1389
   92CHL1   H7A 9226   2.651   1.907   7.110 -0.5818  1.7329 -2.4361
   92CHL1   H7B 9227   2.823   1.855   7.123  0.0565  0.4143  0.0736
   92CHL1    C8 9228   2.798   2.054   7.185 -0.1296 -0.5103 -0.7209
   92CHL1    H8 9229   2.709   2.120   7.194 -0.4191 -1.1193  1.1829
   92CHL1   C14 9230   2.852   1.996   7.316  0.2696 -0.5942  0.0536
   92CHL1   H14 9231   2.939   1.937   7.280  0.6801  0.2010 -0.2707
   92CHL1   C15 9232   2.748   1.904   7.383  0.3319  0.2298  0.2663
   92CHL1  H15A 9233   2.646   1.949   7.390 -0.4828 -1.6049  0.9824
   92CHL1  H15B 9234   2.741   1.807   7.329  0.6171  0.7666 -0.7635
   92CHL1   C16 9235   2.808   1.891   7.533  0.0636  0.2885  0.5188
   92CHL1  H16A 9236   2.733   1.934   7.602 -0.3444 -1.2083  1.0416
   92CHL1  H16B 9237   2.832   1.787   7.564 -2.0158 -0.4708 -0.2655
   92CHL1   C17 9238   2.939   1.987   7.531 -0.0294  1.0059 -0.3995
   92CHL1   H17 9239   3.024   1.926   7.493  0.4613  2.6287 -2.0828
   92CHL1   C13 9240   2.905   2.095   7.420  0.1873  0.4840  0.6075
   92CHL1   C18 9241   2.794   2.190   7.469  0.6823  0.1253  1.3544
   92CHL1  H18A 9242   2.727   2.126   7.530 -0.8822 -2.2812 -2.5790
   92CHL1  H18B 9243   2.832   2.275   7.531 -0.0612  0.7843  0.9176
   92CHL1  H18C 9244   2.745   2.236   7.381 -1.5965 -0.3120  2.3267
   92CHL1   C12 9245   3.014   2.172   7.352  0.6449 -0.6481 -1.1542
   92CHL1  H12A 9246   3.058   2.251   7.417  1.0152 -0.2885 -1.8325
   92CHL1  H12B 9247   3.090   2.102   7.309  2.0068 -0.1443  0.3281
   92CHL1   C11 9248   2.964   2.243   7.223 -0.8649 -0.3808  0.1770
   92CHL1  H11A 9249   2.900   2.331   7.246  0.8190  1.4350 -1.6878
   92CHL1  H11B 9250   3.056   2.290   7.183 -1.2564 -0.8250 -1.2889
   92CHL1    C9 9251   2.908   2.144   7.118  0.4836  0.4920  0.3631
   92CHL1    H9 9252   2.996   2.078   7.107  1.6980  2.2530 -0.9542
   92CHL1   C10 9253   2.877   2.198   6.981 -0.3250  0.3714  0.3785
   92CHL1   C19 9254   2.780   2.317   6.994 -0.5382  0.2831  0.2010
   92CHL1  H19A 9255   2.840   2.405   7.025  2.2253 -1.0126 -1.1442
   92CHL1  H19B 9256   2.748   2.353   6.893  0.3123 -0.7229 -0.4449
   92CHL1  H19C 9257   2.705   2.300   7.074 -2.1332  0.9139 -1.0942
   92CHL1    C1 9258   3.006   2.248   6.904 -0.1099 -0.2655 -0.2105
   92CHL1   H1A 9259   3.046   2.342   6.947 -0.6576  0.9363 -2.1786
   92CHL1   H1B 9260   3.085   2.172   6.922 -1.3762 -1.3475  0.9807
   92CHL1    C2 9261   2.987   2.268   6.750  0.0452 -0.6007 -0.1187
   92CHL1   H2A 9262   3.085   2.285   6.701  1.7438 -1.2867  2.8266
   92CHL1   H2B 9263   2.919   2.355   6.740 -0.8210 -1.1724  0.6002
   92CHL1   C20 9264   2.980   2.032   7.671 -0.4449  0.0083  0.1286
   92CHL1   H20 9265   2.913   2.119   7.688  1.0139  1.2817 -0.3822
   92CHL1   C21 9266   3.123   2.086   7.671 -0.0517 -0.9430 -0.1483
   92CHL1  H21A 9267   3.194   2.001   7.679  0.8470 -0.2801 -0.8647
   92CHL1  H21B 9268   3.137   2.152   7.759 -0.2887 -2.1167  0.8021
   92CHL1  H21C 9269   3.161   2.137   7.580  1.2635  0.0347  0.9114
   92CHL1   C22 9270   2.951   1.935   7.789 -0.4067 -0.4904  0.7504
   92CHL1  H22A 9271   2.841   1.937   7.798 -0.6021 -0.7141 -1.2806
   92CHL1  H22B 9272   2.982   1.834   7.753  0.2307  0.0802 -0.3562
   92CHL1   C23 9273   3.012   1.981   7.925 -0.2498  0.4126  0.0441
   92CHL1  H23A 9274   3.123   1.980   7.919 -0.2313  1.9854 -0.3114
   92CHL1  H23B 9275   2.980   2.084   7.951 -1.5668  0.2448 -0.8166
   92CHL1   C24 9276   2.971   1.895   8.046  0.7055  0.1405  0.4479
   92CHL1  H24A 9277   2.860   1.896   8.053  0.7633 -0.0724  1.7338
   92CHL1  H24B 9278   3.014   1.795   8.022  0.3664  0.5767 -2.1886
   92CHL1   C25 9279   3.009   1.937   8.189  0.2920  0.0839  0.5122
   92CHL1   H25 9280   2.986   2.044   8.208  0.5468 -0.0235  1.5012
   92CHL1   C26 9281   2.926   1.855   8.288 -0.0924  0.0959 -0.1656
   92CHL1  H26A 9282   2.823   1.893   8.303  0.3830  0.8271  1.4686
   92CHL1  H26B 9283   2.914   1.750   8.256 -0.4872  0.5563 -1.6360
   92CHL1  H26C 9284   2.982   1.849   8.384  1.7941  3.0344 -0.9206
   92CHL1   C27 9285   3.155   1.920   8.218 -0.5892 -0.1515 -0.5731
   92CHL1  H27A 9286   3.213   1.991   8.155  1.3510 -1.1407  0.0225
   92CHL1  H27B 9287   3.188   1.935   8.323  1.8484  0.5481 -1.3489
   92CHL1  H27C 9288   3.179   1.818   8.181  2.6137  0.5958 -0.8397
   93CHL1    C3 9289   1.649   6.182   7.075  0.5033  0.2454 -0.0627
   93CHL1    H3 9290   1.722   6.099   7.075  2.5270  1.8991 -1.2456
   93CHL1    O3 9291   1.632   6.242   6.946  0.5550  0.4850  0.0968
   93CHL1   H3' 9292   1.576   6.318   6.963 -0.9470 -0.4274 -0.5390
   93CHL1    C4 9293   1.510   6.129   7.127 -0.5627 -0.7198 -0.6335
   93CHL1   H4A 9294   1.443   6.218   7.122  1.8726  1.3697  1.0787
   93CHL1   H4B 9295   1.477   6.050   7.057  1.1953 -1.3477 -0.8060
   93CHL1    C5 9296   1.519   6.090   7.274 -0.0828  0.1768  0.1736
   93CHL1    C6 9297   1.478   5.964   7.315  0.3305  0.0971  0.1288
   93CHL1    H6 9298   1.434   5.899   7.238 -2.1299  0.5984  1.0268
   93CHL1    C7 9299   1.473   5.917   7.455 -0.3851  0.7212 -0.1081
   93CHL1   H7A 9300   1.381   5.855   7.467 -2.0279  2.7510 -1.4288
   93CHL1   H7B 9301   1.555   5.844   7.471 -1.3128 -1.3295 -3.5838
   93CHL1    C8 9302   1.481   6.045   7.545  0.3891 -0.2305 -0.0649
   93CHL1    H8 9303   1.387   6.102   7.528  0.3147 -0.8168 -1.8966
   93CHL1   C14 9304   1.499   6.003   7.690  0.2517 -0.1748  0.5092
   93CHL1   H14 9305   1.601   5.960   7.676  0.4890  1.0882 -2.3190
   93CHL1   C15 9306   1.406   5.901   7.748  0.7125  0.3345  0.4240
   93CHL1  H15A 9307   1.303   5.938   7.729 -0.5894 -0.6670  4.4062
   93CHL1  H15B 9308   1.416   5.799   7.707 -0.6427  0.5569 -0.5203
   93CHL1   C16 9309   1.431   5.906   7.901  0.8013 -0.3369  0.1345
   93CHL1  H16A 9310   1.341   5.933   7.959  0.7951 -2.4096  1.1926
   93CHL1  H16B 9311   1.470   5.806   7.930 -2.8796 -2.0454 -0.2371
   93CHL1   C17 9312   1.534   6.023   7.916  0.1689  0.0600  0.2221
   93CHL1   H17 9313   1.635   5.976   7.913 -0.1189 -0.5338 -0.2487
   93CHL1   C13 9314   1.517   6.116   7.797  0.0387  0.4793  0.0206
   93CHL1   C18 9315   1.389   6.202   7.815  0.0469 -0.3581 -0.2291
   93CHL1  H18A 9316   1.364   6.227   7.710  1.0579  0.5274 -0.2638
   93CHL1  H18B 9317   1.296   6.152   7.852 -0.4068 -0.0601 -0.9486
   93CHL1  H18C 9318   1.395   6.297   7.873 -0.1825 -0.2488 -0.3831
   93CHL1   C12 9319   1.646   6.192   7.760 -0.0458  0.0594  0.9445
   93CHL1  H12A 9320   1.664   6.280   7.827  0.3288 -0.6241  1.7654
   93CHL1  H12B 9321   1.724   6.113   7.760 -0.9963 -0.8947  0.3714
   93CHL1   C11 9322   1.644   6.243   7.613  0.7398 -0.1759  0.3962
   93CHL1  H11A 9323   1.574   6.330   7.608  0.6186 -0.3403 -1.6762
   93CHL1  H11B 9324   1.738   6.302   7.598  2.0670 -2.0851  0.9030
   93CHL1    C9 9325   1.594   6.137   7.506  0.5698 -0.5895 -0.3817
   93CHL1    H9 9326   1.685   6.075   7.491  0.9018 -0.1697 -0.1428
   93CHL1   C10 9327   1.573   6.202   7.369  0.3531  0.2105  0.1947
   93CHL1   C19 9328   1.462   6.313   7.366 -0.0905  0.3346  0.7034
   93CHL1  H19A 9329   1.503   6.392   7.433  1.8831  0.4638 -0.5774
   93CHL1  H19B 9330   1.450   6.356   7.265  1.6293 -1.7600 -0.4677
   93CHL1  H19C 9331   1.367   6.272   7.405  0.6555 -1.2586  0.9341
   93CHL1    C1 9332   1.708   6.258   7.318 -0.2088 -0.9532  0.6125
   93CHL1   H1A 9333   1.732   6.351   7.374 -0.5965  0.7024 -1.8235
   93CHL1   H1B 9334   1.785   6.179   7.335  2.1430  1.1628  0.3996
   93CHL1    C2 9335   1.708   6.296   7.164 -0.4982  0.2190 -0.4266
   93CHL1   H2A 9336   1.811   6.311   7.126 -0.0777  1.1736  1.0242
   93CHL1   H2B 9337   1.648   6.388   7.147  0.2813  0.9278  0.5810
   93CHL1   C20 9338   1.522   6.088   8.061 -0.3518  0.1277 -0.6991
   93CHL1   H20 9339   1.416   6.118   8.075 -0.7202 -1.1574 -0.6897
   93CHL1   C21 9340   1.608   6.211   8.076  0.6552  0.3213 -0.3727
   93CHL1  H21A 9341   1.709   6.193   8.033  0.4326  0.3165 -0.8960
   93CHL1  H21B 9342   1.617   6.247   8.181 -0.5984  0.2463 -0.2225
   93CHL1  H21C 9343   1.565   6.293   8.014 -1.1713  0.2370  0.7141
   93CHL1   C22 9344   1.546   5.985   8.180 -0.1084 -0.9109  0.7129
   93CHL1  H22A 9345   1.500   5.889   8.147 -0.2321 -1.3409  2.0772
   93CHL1  H22B 9346   1.655   5.966   8.187  0.0173 -1.2765 -1.3732
   93CHL1   C23 9347   1.489   6.033   8.311  0.6075 -0.3850 -0.1055
   93CHL1  H23A 9348   1.525   6.135   8.338 -0.5773 -0.0405  0.2426
   93CHL1  H23B 9349   1.380   6.044   8.297  0.6826  1.9486  0.5735
   93CHL1   C24 9350   1.514   5.940   8.433  0.0719  0.0071 -0.0487
   93CHL1  H24A 9351   1.455   5.846   8.421  2.7754 -1.5268 -2.5484
   93CHL1  H24B 9352   1.622   5.913   8.433 -0.1341 -1.0813  2.3388
   93CHL1   C25 9353   1.479   5.995   8.581 -0.0226  0.1359 -0.1536
   93CHL1   H25 9354   1.535   6.091   8.585  1.0896 -0.5294  0.7488
   93CHL1   C26 9355   1.332   6.019   8.601 -0.8455  0.6086  0.1277
   93CHL1  H26A 9356   1.295   6.096   8.530 -0.3121 -0.7861 -1.7401
   93CHL1  H26B 9357   1.288   5.917   8.587 -2.6900  1.2523  0.8091
   93CHL1  H26C 9358   1.299   6.061   8.699 -1.4198 -0.5938  0.4804
   93CHL1   C27 9359   1.534   5.905   8.687 -0.2424  0.2154 -0.6592
   93CHL1  H27A 9360   1.503   5.798   8.680  0.5487 -0.1570  0.9633
   93CHL1  H27B 9361   1.644   5.911   8.677 -0.2455 -0.0469 -0.8499
   93CHL1  H27C 9362   1.508   5.956   8.782 -2.4748 -0.5945 -0.7756
   94CHL1    C3 9363   5.344   3.355   7.005  0.0489 -0.4637 -0.9886
   94CHL1    H3 9364   5.399   3.260   7.019 -0.2147 -0.4556  0.2157
   94CHL1    O3 9365   5.335   3.392   6.871 -0.2608  0.0836  0.1768
   94CHL1   H3' 9366   5.421   3.415   6.837 -0.7068 -1.7175 -2.4830
   94CHL1    C4 9367   5.195   3.309   7.057 -0.3479 -0.2819 -0.1144
   94CHL1   H4A 9368   5.122   3.380   7.014 -0.3885 -0.0101  0.3974
   94CHL1   H4B 9369   5.178   3.217   6.997 -0.3873 -1.0678  1.0610
   94CHL1    C5 9370   5.176   3.291   7.199  0.5241  0.1268 -0.4682
   94CHL1    C6 9371   5.141   3.176   7.256 -0.0050 -0.8826  0.5419
   94CHL1    H6 9372   5.122   3.088   7.193  3.5093 -1.3634 -0.0515
   94CHL1    C7 9373   5.116   3.160   7.401  0.1017 -0.0784 -0.6692
   94CHL1   H7A 9374   5.018   3.113   7.426  0.5605 -1.3393 -1.2020
   94CHL1   H7B 9375   5.194   3.093   7.441  0.9852  2.5573  2.4955
   94CHL1    C8 9376   5.120   3.291   7.490  0.1014  0.1375  0.4988
   94CHL1    H8 9377   5.024   3.346   7.480  1.5496  3.1821  2.0892
   94CHL1   C14 9378   5.146   3.267   7.637 -0.1628  0.5439 -0.0572
   94CHL1   H14 9379   5.249   3.226   7.643 -0.6518 -0.7517 -0.1310
   94CHL1   C15 9380   5.063   3.152   7.705  0.5577 -0.2364 -0.4693
   94CHL1  H15A 9381   4.958   3.152   7.667 -0.5677 -0.1531  2.3806
   94CHL1  H15B 9382   5.110   3.055   7.676 -1.0692 -1.3222  0.3783
   94CHL1   C16 9383   5.067   3.195   7.852 -0.7746 -0.6410 -0.0528
   94CHL1  H16A 9384   4.965   3.216   7.889 -1.0804  0.0337 -1.2149
   94CHL1  H16B 9385   5.113   3.121   7.921 -0.9035 -0.8128 -0.1473
   94CHL1   C17 9386   5.158   3.323   7.860 -0.0565 -0.6024 -0.7486
   94CHL1   H17 9387   5.261   3.283   7.867  0.1280  0.0931  0.6519
   94CHL1   C13 9388   5.147   3.395   7.723  0.1493 -1.3572  0.0047
   94CHL1   C18 9389   5.005   3.464   7.710 -0.2066 -0.0344  0.1036
   94CHL1  H18A 9390   5.001   3.509   7.608  0.9155 -2.5444 -1.1733
   94CHL1  H18B 9391   4.923   3.390   7.724  0.0081  0.0094  1.7521
   94CHL1  H18C 9392   4.995   3.538   7.792 -1.1293  0.0205 -0.0458
   94CHL1   C12 9393   5.260   3.485   7.676 -0.1403 -0.1925  0.6605
   94CHL1  H12A 9394   5.250   3.580   7.733 -0.8023 -0.3554  0.8244
   94CHL1  H12B 9395   5.355   3.440   7.713 -0.4935 -0.0262  1.8250
   94CHL1   C11 9396   5.263   3.506   7.520  0.1056 -0.3475  0.2986
   94CHL1  H11A 9397   5.188   3.589   7.519  0.0581 -0.3902  0.3131
   94CHL1  H11B 9398   5.363   3.547   7.494  0.4386 -0.3151  1.5657
   94CHL1    C9 9399   5.235   3.380   7.432 -0.0423  0.2602  0.0040
   94CHL1    H9 9400   5.326   3.318   7.447  1.9325  2.8596 -0.6094
   94CHL1   C10 9401   5.224   3.415   7.278  0.1226  0.9118 -0.6138
   94CHL1   C19 9402   5.114   3.521   7.253 -0.7296 -0.3478  0.0034
   94CHL1  H19A 9403   5.138   3.615   7.307 -0.9538 -0.9924  1.2506
   94CHL1  H19B 9404   5.119   3.551   7.146 -0.0657  0.9068  0.3654
   94CHL1  H19C 9405   5.015   3.483   7.286 -0.6839  0.1527  0.7632
   94CHL1    C1 9406   5.369   3.452   7.236 -0.3812  0.2294 -0.1942
   94CHL1   H1A 9407   5.391   3.551   7.281 -1.5318  0.7400 -0.6953
   94CHL1   H1B 9408   5.449   3.387   7.278  1.4170  1.6445 -1.2661
   94CHL1    C2 9409   5.394   3.476   7.083  0.1942 -0.2241 -0.3496
   94CHL1   H2A 9410   5.502   3.492   7.060  0.7198 -0.5990  1.6133
   94CHL1   H2B 9411   5.345   3.575   7.071 -0.6636 -0.0442  3.3466
   94CHL1   C20 9412   5.130   3.411   7.987  0.2869 -0.1252  0.4607
   94CHL1   H20 9413   5.036   3.467   7.967  0.1863 -1.1748 -2.5975
   94CHL1   C21 9414   5.241   3.511   8.023  0.4946 -0.4541 -0.9008
   94CHL1  H21A 9415   5.226   3.603   7.962  0.2191  0.6447  0.7642
   94CHL1  H21B 9416   5.345   3.474   8.011  0.0634 -3.3938  2.8191
   94CHL1  H21C 9417   5.230   3.554   8.125 -0.8123  2.5076 -2.1647
   94CHL1   C22 9418   5.101   3.325   8.107  0.1422  0.1751 -0.0633
   94CHL1  H22A 9419   5.065   3.389   8.190  0.8891  0.2430  0.2103
   94CHL1  H22B 9420   5.011   3.262   8.086 -0.5901  1.5853 -1.3996
   94CHL1   C23 9421   5.224   3.246   8.153 -0.1183 -0.7347 -0.2353
   94CHL1  H23A 9422   5.262   3.174   8.077  0.2579  0.4922 -1.2415
   94CHL1  H23B 9423   5.314   3.307   8.174 -0.7397  0.0143  0.2873
   94CHL1   C24 9424   5.195   3.173   8.287 -0.8154  1.0675 -0.7967
   94CHL1  H24A 9425   5.109   3.104   8.271 -2.2591  2.7953 -0.7832
   94CHL1  H24B 9426   5.280   3.104   8.306 -0.8436  0.5071 -2.5383
   94CHL1   C25 9427   5.151   3.259   8.411 -0.2695  0.2198 -0.1589
   94CHL1   H25 9428   5.051   3.301   8.386 -0.8029  0.0846  1.6084
   94CHL1   C26 9429   5.128   3.161   8.533 -0.4725 -0.4381  0.6842
   94CHL1  H26A 9430   5.052   3.084   8.507 -1.4350  0.5139  0.6176
   94CHL1  H26B 9431   5.222   3.109   8.561  0.7876  2.1474  1.5631
   94CHL1  H26C 9432   5.094   3.227   8.615 -0.3327  0.6779 -0.1356
   94CHL1   C27 9433   5.255   3.367   8.442 -0.1355  0.0309 -0.6076
   94CHL1  H27A 9434   5.220   3.425   8.530 -2.0299 -0.6058 -0.9041
   94CHL1  H27B 9435   5.348   3.314   8.472 -0.1838  0.9765  1.3542
   94CHL1  H27C 9436   5.269   3.436   8.356  2.4833  1.7022  1.0126
   95CHL1    C3 9437   4.698   1.985   6.777 -0.1463  0.2294  0.2164
   95CHL1    H3 9438   4.604   2.038   6.803  0.9851  1.4685  2.0712
   95CHL1    O3 9439   4.691   1.952   6.637  0.2874 -0.0603 -0.2728
   95CHL1   H3' 9440   4.774   1.905   6.629  0.5592  0.6677 -2.3573
   95CHL1    C4 9441   4.812   2.079   6.806  0.7709 -0.5332  0.3762
   95CHL1   H4A 9442   4.917   2.045   6.793  1.5601  1.6934  0.5351
   95CHL1   H4B 9443   4.807   2.173   6.747 -0.3917 -2.2031 -2.3674
   95CHL1    C5 9444   4.799   2.129   6.953  0.6477 -0.2021 -0.1013
   95CHL1    C6 9445   4.779   2.258   6.990 -0.7453  0.4267  1.6445
   95CHL1    H6 9446   4.789   2.339   6.916 -0.2135  0.5137  1.8060
   95CHL1    C7 9447   4.760   2.304   7.135 -0.0473  0.0463  0.3657
   95CHL1   H7A 9448   4.801   2.405   7.156 -2.2669  0.6643  2.0109
   95CHL1   H7B 9449   4.650   2.308   7.143 -0.0975  0.8745 -0.6051
   95CHL1    C8 9450   4.819   2.201   7.237  0.1913  0.1592 -0.8215
   95CHL1    H8 9451   4.930   2.208   7.248  0.1907 -1.7063  1.2191
   95CHL1   C14 9452   4.768   2.239   7.377  0.5857  0.0581 -0.1443
   95CHL1   H14 9453   4.658   2.226   7.366  0.4650 -0.3438  1.3681
   95CHL1   C15 9454   4.784   2.380   7.414  0.6508 -0.8256 -0.4513
   95CHL1  H15A 9455   4.878   2.422   7.372  0.4411 -2.5547 -2.8624
   95CHL1  H15B 9456   4.705   2.449   7.378  1.8433  0.1726 -1.2765
   95CHL1   C16 9457   4.785   2.379   7.570 -0.1168 -0.7116  0.3801
   95CHL1  H16A 9458   4.884   2.406   7.612 -0.1080 -2.4671  1.6113
   95CHL1  H16B 9459   4.710   2.437   7.630  0.8009 -0.3822  1.2351
   95CHL1   C17 9460   4.755   2.226   7.608  0.3431  0.0020 -0.1588
   95CHL1   H17 9461   4.645   2.212   7.604  0.3783 -0.5445  0.5359
   95CHL1   C13 9462   4.814   2.145   7.493 -0.2244 -0.3545  0.4255
   95CHL1   C18 9463   4.968   2.157   7.509 -0.5357 -0.5422  0.1236
   95CHL1  H18A 9464   5.003   2.256   7.545  0.9152 -1.3159  0.9342
   95CHL1  H18B 9465   4.990   2.070   7.575  0.6343 -0.3548 -0.0019
   95CHL1  H18C 9466   5.024   2.146   7.413  2.7381  2.2373  1.5265
   95CHL1   C12 9467   4.756   2.007   7.451 -0.1927  0.0505 -0.5631
   95CHL1  H12A 9468   4.772   1.928   7.527  0.4743 -0.5101 -1.2664
   95CHL1  H12B 9469   4.645   2.006   7.437 -0.1811 -1.1411 -0.6773
   95CHL1   C11 9470   4.807   1.966   7.314  0.0403 -0.3727 -0.1402
   95CHL1  H11A 9471   4.917   1.964   7.329 -0.0569 -0.2984  0.6049
   95CHL1  H11B 9472   4.773   1.862   7.295  0.5339 -1.2431  3.1067
   95CHL1    C9 9473   4.771   2.064   7.202 -0.0155  0.6200 -0.3934
   95CHL1    H9 9474   4.661   2.076   7.202 -0.1490  0.5028  3.3756
   95CHL1   C10 9475   4.804   2.017   7.059 -0.4635 -0.3048  0.5237
   95CHL1   C19 9476   4.950   1.950   7.062 -0.1347  0.4091  0.0454
   95CHL1  H19A 9477   4.964   1.853   7.115  1.6711  0.6079 -0.0152
   95CHL1  H19B 9478   5.002   1.948   6.964 -0.5877  1.2417 -0.2249
   95CHL1  H19C 9479   5.008   2.021   7.125 -0.1596 -1.3499  2.1521
   95CHL1    C1 9480   4.701   1.911   7.013 -0.1608 -0.4249  0.5310
   95CHL1   H1A 9481   4.703   1.821   7.078 -1.6630 -0.4966  0.5183
   95CHL1   H1B 9482   4.598   1.952   7.019  0.8805  2.2227  1.7925
   95CHL1    C2 9483   4.713   1.860   6.871  0.3332 -0.7174  0.3573
   95CHL1   H2A 9484   4.632   1.785   6.857  0.7249 -1.0054 -0.4315
   95CHL1   H2B 9485   4.817   1.820   6.865  0.6993  0.2058  0.4859
   95CHL1   C20 9486   4.797   2.195   7.750 -0.4777  0.2357  0.2384
   95CHL1   H20 9487   4.908   2.201   7.755 -0.5192  0.8618  0.4269
   95CHL1   C21 9488   4.756   2.051   7.775  0.0774  0.6074  0.3090
   95CHL1  H21A 9489   4.814   1.976   7.717  1.4621  0.9963  1.1452
   95CHL1  H21B 9490   4.652   2.027   7.743  0.3025  1.2193 -0.9602
   95CHL1  H21C 9491   4.768   2.012   7.878  1.0747 -2.1371 -0.7463
   95CHL1   C22 9492   4.730   2.290   7.857 -0.4596  0.0132  0.4145
   95CHL1  H22A 9493   4.749   2.394   7.823  1.3040 -0.8655 -1.5367
   95CHL1  H22B 9494   4.622   2.266   7.852 -0.9258  2.1123 -0.4920
   95CHL1   C23 9495   4.755   2.257   8.002 -0.5883  0.1922 -0.1827
   95CHL1  H23A 9496   4.743   2.148   8.019  1.4844  0.1056  1.0059
   95CHL1  H23B 9497   4.862   2.269   8.030 -0.6206  1.3065 -0.4935
   95CHL1   C24 9498   4.678   2.350   8.099 -0.0069  0.6909  0.2088
   95CHL1  H24A 9499   4.722   2.449   8.079  0.9614  0.5174  1.4060
   95CHL1  H24B 9500   4.567   2.353   8.090  0.0184  0.9459 -0.0374
   95CHL1   C25 9501   4.714   2.318   8.248 -0.4787 -0.4021  0.1568
   95CHL1   H25 9502   4.823   2.301   8.258 -0.3513 -0.3655 -1.1119
   95CHL1   C26 9503   4.674   2.439   8.342 -0.3283  0.0904 -0.3039
   95CHL1  H26A 9504   4.563   2.445   8.348 -0.4988 -0.9811 -1.8424
   95CHL1  H26B 9505   4.705   2.404   8.442 -0.5067 -0.5158 -0.4569
   95CHL1  H26C 9506   4.719   2.536   8.310 -1.8572  1.4219  1.3790
   95CHL1   C27 9507   4.646   2.202   8.313  0.1637  0.0841  0.1324
   95CHL1  H27A 9508   4.535   2.209   8.306  0.2120  2.2703  0.5791
   95CHL1  H27B 9509   4.678   2.107   8.266 -2.0808 -1.2183  1.0506
   95CHL1  H27C 9510   4.669   2.192   8.421 -2.9958  0.6456  0.9509
   96CHL1    C3 9511   3.267   1.768   6.810 -0.1270  0.8016 -0.3006
   96CHL1    H3 9512   3.226   1.665   6.807  0.2611  0.5631  1.6234
   96CHL1    O3 9513   3.244   1.807   6.678  0.1397  0.1230  0.2780
   96CHL1   H3' 9514   3.148   1.807   6.672  0.2159 -0.0387 -1.3728
   96CHL1    C4 9515   3.172   1.838   6.915 -0.2695  0.2367 -0.5064
   96CHL1   H4A 9516   3.202   1.945   6.918 -2.8053  1.0023  0.2766
   96CHL1   H4B 9517   3.067   1.846   6.878  0.0226  3.4394 -0.9584
   96CHL1    C5 9518   3.208   1.791   7.058 -0.2160 -0.2427  0.0625
   96CHL1    C6 9519   3.115   1.755   7.147 -0.1053  0.0907  0.3488
   96CHL1    H6 9520   3.014   1.738   7.106  0.1279 -0.7428  0.1056
   96CHL1    C7 9521   3.137   1.701   7.280 -0.2086  0.0372 -0.1949
   96CHL1   H7A 9522   3.061   1.740   7.351  0.3469  0.5020  0.1603
   96CHL1   H7B 9523   3.117   1.592   7.275 -3.7830  0.3319  3.2485
   96CHL1    C8 9524   3.283   1.735   7.328  0.1629 -0.2034 -0.8057
   96CHL1    H8 9525   3.281   1.845   7.342 -0.5912 -0.2233 -0.7127
   96CHL1   C14 9526   3.316   1.658   7.458 -0.2010 -0.6724  0.2918
   96CHL1   H14 9527   3.304   1.553   7.425  1.6376 -0.3969 -1.4311
   96CHL1   C15 9528   3.216   1.664   7.584  0.1330  0.6683  0.2971
   96CHL1  H15A 9529   3.196   1.767   7.618 -3.0905  0.2969 -0.1789
   96CHL1  H15B 9530   3.124   1.609   7.553  0.6594  1.7453 -3.8033
   96CHL1   C16 9531   3.309   1.591   7.690 -0.2729  0.4066  0.6250
   96CHL1  H16A 9532   3.295   1.639   7.788 -0.1508 -1.2240  1.4796
   96CHL1  H16B 9533   3.291   1.482   7.702 -0.0866  0.0036 -2.0868
   96CHL1   C17 9534   3.457   1.593   7.634  0.3528 -0.8565  0.0297
   96CHL1   H17 9535   3.478   1.493   7.590 -3.2752 -1.5364 -0.4436
   96CHL1   C13 9536   3.462   1.684   7.515 -0.0241 -0.2215  0.3780
   96CHL1   C18 9537   3.473   1.839   7.553  0.7981  0.1363  0.1727
   96CHL1  H18A 9538   3.576   1.863   7.586  0.3571  4.0786 -0.8940
   96CHL1  H18B 9539   3.465   1.913   7.471  1.0591  1.2126  1.1032
   96CHL1  H18C 9540   3.415   1.861   7.645  1.2854 -1.5373  0.9255
   96CHL1   C12 9541   3.560   1.637   7.406 -0.2656  0.6191  0.5743
   96CHL1  H12A 9542   3.662   1.655   7.448  0.3079  2.0074 -1.2774
   96CHL1  H12B 9543   3.544   1.529   7.386 -1.8954  0.6609  1.5234
   96CHL1   C11 9544   3.535   1.715   7.272  0.2164  0.0863  0.2116
   96CHL1  H11A 9545   3.562   1.821   7.292 -0.6586 -0.2102  3.4714
   96CHL1  H11B 9546   3.602   1.663   7.200  0.2773  1.6406 -0.9127
   96CHL1    C9 9547   3.389   1.702   7.217 -0.8713  0.3073 -0.3573
   96CHL1    H9 9548   3.366   1.594   7.203 -0.2384 -0.0276  1.0126
   96CHL1   C10 9549   3.361   1.784   7.089 -0.1415 -0.2327  0.0210
   96CHL1   C19 9550   3.410   1.930   7.110 -0.8992 -0.8317  0.0728
   96CHL1  H19A 9551   3.384   1.993   7.023 -2.4414 -2.8873 -1.0600
   96CHL1  H19B 9552   3.367   1.968   7.205 -2.2266  1.4320 -1.3669
   96CHL1  H19C 9553   3.520   1.943   7.123 -1.2925  1.9416  1.4218
   96CHL1    C1 9554   3.439   1.716   6.971 -0.5020 -0.5642  0.0745
   96CHL1   H1A 9555   3.549   1.728   6.987 -0.4519 -1.4404  0.4588
   96CHL1   H1B 9556   3.412   1.609   6.963 -1.3421 -0.2808 -1.0308
   96CHL1    C2 9557   3.415   1.779   6.839 -0.2005  0.5123  0.0063
   96CHL1   H2A 9558   3.462   1.719   6.759 -2.0505 -1.6975  0.4757
   96CHL1   H2B 9559   3.446   1.886   6.833 -0.4378  0.7614  2.1646
   96CHL1   C20 9560   3.549   1.613   7.752 -0.9910 -0.5834  0.3630
   96CHL1   H20 9561   3.515   1.702   7.808 -2.2367 -0.1645 -1.0007
   96CHL1   C21 9562   3.700   1.638   7.704  0.0871 -1.0441 -0.1875
   96CHL1  H21A 9563   3.724   1.554   7.637  1.5029 -1.0129  0.2492
   96CHL1  H21B 9564   3.771   1.640   7.790  1.5357 -0.5066 -1.3606
   96CHL1  H21C 9565   3.713   1.723   7.634 -1.8242  0.1438  0.7938
   96CHL1   C22 9566   3.535   1.502   7.859 -0.2882  0.0270  0.6408
   96CHL1  H22A 9567   3.430   1.503   7.896  0.3108 -1.4233  2.5384
   96CHL1  H22B 9568   3.549   1.408   7.802 -0.8607  0.2080  0.1879
   96CHL1   C23 9569   3.624   1.511   7.988  0.0457  0.0339 -0.5225
   96CHL1  H23A 9570   3.734   1.518   7.970  0.7831  2.8132  3.5243
   96CHL1  H23B 9571   3.597   1.613   8.024  2.5351  0.4665  0.3406
   96CHL1   C24 9572   3.603   1.403   8.101  0.5327 -0.2423  0.4932
   96CHL1  H24A 9573   3.503   1.420   8.145  1.1006  0.9042  1.3760
   96CHL1  H24B 9574   3.602   1.308   8.043 -0.7683  1.1347 -1.8873
   96CHL1   C25 9575   3.714   1.390   8.210  0.2207 -0.3648  0.5860
   96CHL1   H25 9576   3.809   1.352   8.165  0.6464  0.8266  0.4185
   96CHL1   C26 9577   3.752   1.527   8.283  0.3053  0.3892  0.3639
   96CHL1  H26A 9578   3.814   1.522   8.376  1.0438  2.7764  0.0652
   96CHL1  H26B 9579   3.813   1.588   8.213  0.8946 -1.8871 -1.1999
   96CHL1  H26C 9580   3.655   1.572   8.312 -0.6111 -1.1520 -0.1787
   96CHL1   C27 9581   3.669   1.291   8.321  0.5015  0.7824 -0.8704
   96CHL1  H27A 9582   3.646   1.195   8.269  0.3069  0.8677 -0.9415
   96CHL1  H27B 9583   3.751   1.285   8.395 -1.8144  2.6389  2.0421
   96CHL1  H27C 9584   3.580   1.338   8.367 -0.5121 -2.1149  0.4057
   97OSM      N 9585   1.898   6.181  11.022  1.5380 -0.3192  0.3374
   97OSM    C15 9586   1.974   6.294  10.956 -0.0802  0.6759  0.0092
   97OSM   H15A 9587   2.048   6.327  11.027  0.3225  0.7744 -0.4515
   97OSM   H15B 9588   1.910   6.376  10.926 -1.5775  0.3380  2.0296
   97OSM   H15C 9589   2.032   6.258  10.872 -0.2159 -2.1358  1.0152
   97OSM    C14 9590   1.779   6.136  10.937  0.0156 -0.0224 -0.3950
   97OSM   H14A 9591   1.716   6.221  10.916 -1.4253 -0.9141  0.2035
   97OSM   H14B 9592   1.719   6.057  10.979 -0.0219 -0.3866 -1.1222
   97OSM   H14C 9593   1.802   6.088  10.843 -0.1604 -1.2116  0.1515
   97OSM    C13 9594   1.988   6.064  11.027  0.3649  0.3793 -0.7886
   97OSM   H13A 9595   2.020   6.026  10.931  2.0609  1.6613 -0.7823
   97OSM   H13B 9596   1.939   5.983  11.079 -0.1771  1.3671  0.2868
   97OSM   H13C 9597   2.073   6.100  11.084 -1.2817  0.4641  1.8027
   97OSM    C12 9598   1.847   6.220  11.156  0.2268  0.3026 -0.5834
   97OSM   H12A 9599   1.927   6.236  11.228 -0.1462 -0.4927  0.0177
   97OSM   H12B 9600   1.792   6.137  11.196 -0.9350  1.9323  1.4366
   97OSM    C11 9601   1.746   6.336  11.164 -0.2838  0.0015  0.5623
   97OSM   H11A 9602   1.714   6.364  11.267  2.5750  0.9698  1.2790
   97OSM   H11B 9603   1.661   6.292  11.109 -0.1238  0.9100 -0.4434
   97OSM      P 9604   1.704   6.556  11.032 -0.2201  0.1135 -0.3636
   97OSM    O13 9605   1.613   6.616  11.134 -0.3195 -0.0404  0.2993
   97OSM    O14 9606   1.788   6.648  10.960  0.1759 -0.1560  0.3898
   97OSM    O11 9607   1.615   6.461  10.945  0.0485  0.4171  0.2397
   97OSM    O12 9608   1.799   6.452  11.103 -0.6181  0.2881  0.7466
   97OSM    C1S 9609   1.490   6.508  10.892  0.5180 -0.4147  0.3111
   97OSM    H1S 9610   1.445   6.597  10.942 -0.6989 -0.0184 -1.3845
   97OSM    H1T 9611   1.419   6.424  10.907  1.9929 -2.0471 -1.4885
   97OSM     NF 9612   1.397   6.615  10.699  0.7089  0.2503  0.1440
   97OSM    HNF 9613   1.321   6.573  10.650  0.7702 -0.7006  0.8425
   97OSM    C2S 9614   1.506   6.534  10.739  0.0673 -0.3235 -0.0790
   97OSM    H2S 9615   1.599   6.594  10.732  0.7102 -1.1562  1.0110
   97OSM    C3S 9616   1.524   6.402  10.659 -1.2607 -0.1785  0.1335
   97OSM    H3S 9617   1.438   6.338  10.689 -1.1794 -0.1563  0.4249
   97OSM     O3 9618   1.648   6.350  10.710  0.0326  0.1112 -0.0151
   97OSM    HO3 9619   1.638   6.378  10.802 -0.1691  2.7538 -0.7595
   97OSM    C4S 9620   1.533   6.426  10.516  0.4308  0.4300  0.0878
   97OSM    H4S 9621   1.432   6.419  10.472  0.6790 -0.8646 -0.3167
   97OSM    C5S 9622   1.632   6.466  10.438  0.0680 -0.4817  0.6882
   97OSM    H5S 9623   1.735   6.472  10.476  0.9729 -0.4337 -1.5873
   97OSM    C6S 9624   1.639   6.494  10.290 -0.3832  0.6356 -0.2351
   97OSM    H6S 9625   1.740   6.455  10.265 -1.0312 -1.9975  0.9302
   97OSM    H6T 9626   1.640   6.605  10.287  2.4386  0.7069  0.6925
   97OSM    C7S 9627   1.533   6.421  10.205  0.2733  0.6553  0.1746
   97OSM    H7S 9628   1.427   6.437  10.234  0.2385 -0.3190  0.6572
   97OSM    H7T 9629   1.554   6.312  10.213 -1.3090  0.2743 -0.5556
   97OSM    C8S 9630   1.535   6.466  10.053  0.0382  0.5036 -0.0163
   97OSM    H8S 9631   1.517   6.576  10.051  1.2876  0.7631  1.0252
   97OSM    H8T 9632   1.452   6.416  10.000  1.1250 -2.2126  0.6841
   97OSM    C9S 9633   1.665   6.442   9.987 -0.6642 -0.5611  0.2448
   97OSM    H9S 9634   1.695   6.335   9.985  1.7801  0.0460  0.7024
   97OSM    H9T 9635   1.752   6.490  10.038  0.9694 -1.5064 -1.5373
   97OSM   C10S 9636   1.652   6.497   9.838  0.0684 -0.9535 -0.3290
   97OSM   H10S 9637   1.643   6.607   9.844 -0.2482 -1.0189  0.5924
   97OSM   H10T 9638   1.557   6.452   9.801 -0.8695 -0.4891  1.4016
   97OSM   C11S 9639   1.770   6.463   9.749 -0.7572  0.7815  0.0835
   97OSM   H11S 9640   1.751   6.355   9.728 -1.5328  0.6594  1.2804
   97OSM   H11T 9641   1.858   6.479   9.815 -2.3566  0.3538  2.4868
   97OSM   C12S 9642   1.775   6.544   9.612 -0.1310  0.6592 -0.5441
   97OSM   H12S 9643   1.875   6.533   9.564  0.3130  1.3963  0.1867
   97OSM   H12T 9644   1.771   6.655   9.624  2.1689  1.1971 -3.4371
   97OSM   C13S 9645   1.658   6.521   9.515  0.3510  0.1484  0.0954
   97OSM   H13S 9646   1.563   6.566   9.549 -0.1271  0.3431 -1.4504
   97OSM   H13T 9647   1.630   6.416   9.493  0.8183  0.3099 -1.3882
   97OSM   C14S 9648   1.674   6.591   9.383 -0.1615 -0.1893 -0.0504
   97OSM   H14S 9649   1.657   6.698   9.411 -0.6982 -0.3506  0.2534
   97OSM   H14T 9650   1.595   6.564   9.310 -1.4904  0.2559  1.1850
   97OSM   C15S 9651   1.820   6.588   9.325  0.1814  0.3369 -0.2211
   97OSM   H15S 9652   1.868   6.488   9.328  1.5877  0.9436 -1.3182
   97OSM   H15T 9653   1.888   6.655   9.381 -0.8831  0.6628  0.7223
   97OSM   C16S 9654   1.818   6.636   9.179  0.2347 -0.2913 -0.3479
   97OSM   H16S 9655   1.784   6.742   9.183 -0.1282 -0.4225  0.0591
   97OSM   H16T 9656   1.740   6.582   9.122 -1.0664  2.5046 -1.4506
   97OSM   C17S 9657   1.952   6.623   9.093  0.4859  0.5085 -0.0650
   97OSM   H17S 9658   2.037   6.665   9.152 -0.2721  1.1478  0.6148
   97OSM   H17T 9659   1.928   6.681   9.002  0.5984 -0.2042 -0.5521
   97OSM   C18S 9660   1.982   6.479   9.049  0.2733 -0.0343 -0.0842
   97OSM   H18S 9661   2.058   6.460   8.970  1.8551  1.5087  0.9831
   97OSM   H18T 9662   1.894   6.423   9.012  0.0102  0.0987  0.3260
   97OSM   H18U 9663   2.023   6.430   9.140 -0.0900  0.7855  0.5352
   97OSM    C1F 9664   1.404   6.751  10.714  0.6141 -0.4768  0.5970
   97OSM     OF 9665   1.502   6.809  10.762  0.0304 -0.3198 -0.4861
   97OSM    C2F 9666   1.280   6.828  10.683 -0.2671 -0.1037  0.5107
   97OSM    H2F 9667   1.234   6.858  10.779  1.9065 -0.9763  1.9079
   97OSM    H2G 9668   1.202   6.775  10.625  0.2395 -1.8054  1.3071
   97OSM    C3F 9669   1.311   6.966  10.614  0.5750  0.2358 -0.2991
   97OSM    H3F 9670   1.365   7.021  10.694  0.2717  1.2744 -0.7813
   97OSM    H3G 9671   1.220   7.028  10.598  0.4710 -0.3817 -2.3531
   97OSM    C4F 9672   1.395   6.954  10.484 -0.6074 -0.1509  0.5095
   97OSM    H4F 9673   1.495   6.909  10.507 -0.7584 -0.9701 -0.3804
   97OSM    H4G 9674   1.405   7.056  10.442 -0.2871  2.1209  5.3824
   97OSM    C5F 9675   1.350   6.854  10.376 -0.1811 -0.0958  0.0274
   97OSM    H5F 9676   1.240   6.841  10.374 -0.0582 -1.4990  0.9898
   97OSM    H5G 9677   1.397   6.758  10.407  3.0055  1.3465  0.1695
   97OSM    C6F 9678   1.408   6.905  10.244 -0.0266 -0.2607 -0.0385
   97OSM    H6F 9679   1.518   6.890  10.248 -0.1036 -0.6386  0.8192
   97OSM    H6G 9680   1.388   7.012  10.223  0.3117 -0.0649  0.6133
   97OSM    C7F 9681   1.341   6.822  10.135 -0.0602 -0.8346  0.1553
   97OSM    H7F 9682   1.236   6.861  10.141  0.6038  1.2424 -0.5884
   97OSM    H7G 9683   1.336   6.712  10.141 -2.3999 -0.7956 -0.1252
   97OSM    C8F 9684   1.375   6.877   9.992  0.1063 -0.3203 -0.1120
   97OSM    H8F 9685   1.347   6.984   9.983 -0.5769 -0.6910 -3.6437
   97OSM    H8G 9686   1.301   6.823   9.930  0.0458  0.9845 -1.2348
   97OSM    C9F 9687   1.522   6.848   9.956 -0.3799  0.3391  0.5834
   97OSM    H9F 9688   1.579   6.798  10.035 -1.8102 -2.4905 -0.0504
   97OSM   C10F 9689   1.583   6.879   9.846  0.8351 -0.3796  0.5571
   97OSM   H10F 9690   1.687   6.851   9.822  1.0433 -0.3824  1.4424
   97OSM   C11F 9691   1.524   6.957   9.735  0.5642 -1.1054  0.4061
   97OSM   H11F 9692   1.591   7.044   9.719 -0.4426  0.0736  2.2542
   97OSM   H11G 9693   1.429   7.003   9.769  1.0221 -1.3372  2.1079
   97OSM   C12F 9694   1.507   6.884   9.605  1.0433  0.0445  0.4971
   97OSM   H12F 9695   1.432   6.803   9.604  0.7131  0.3046 -1.5659
   97OSM   H12G 9696   1.602   6.842   9.566  0.7243  0.8725 -1.3032
   97OSM   C13F 9697   1.461   6.981   9.491 -0.9954 -0.6090 -1.4619
   97OSM   H13F 9698   1.535   7.063   9.477 -0.7445  0.0313  2.6134
   97OSM   H13G 9699   1.369   7.026   9.533  0.2430 -1.5832  2.7234
   97OSM   C14F 9700   1.438   6.909   9.359 -0.0953 -0.1753  0.3320
   97OSM   H14F 9701   1.357   6.843   9.395 -1.1880  0.9399  0.0107
   97OSM   H14G 9702   1.529   6.848   9.340 -0.0930  0.3966 -1.6800
   97OSM   C15F 9703   1.392   7.007   9.249  0.2061  0.3970  0.0033
   97OSM   H15F 9704   1.474   7.077   9.222  1.0779 -1.0615 -1.3191
   97OSM   H15G 9705   1.310   7.066   9.295  0.0983  0.8735 -0.7865
   97OSM   C16F 9706   1.326   6.931   9.130  0.2382  0.3066  0.1788
   97OSM   H16F 9707   1.272   6.999   9.061  2.4573  2.9001  0.8561
   97OSM   H16G 9708   1.249   6.864   9.176  0.2612 -0.4609 -0.8755
   97OSM   C17F 9709   1.436   6.852   9.054  0.0785  0.6244 -0.0592
   97OSM   H17F 9710   1.498   6.786   9.119  1.3344  0.8949 -0.9510
   97OSM   H17G 9711   1.503   6.919   8.996 -2.3770  2.7265 -0.6804
   97OSM   C18F 9712   1.364   6.750   8.962  0.1261 -0.0887 -0.3574
   97OSM   H18F 9713   1.300   6.801   8.887  2.5859 -0.2939 -2.7385
   97OSM   H18G 9714   1.286   6.693   9.017  0.0176  1.0105  0.6655
   97OSM   H18H 9715   1.422   6.672   8.908 -0.8933 -1.8940  1.0226
   98OSM      N 9716   1.041   2.179  11.152  0.4637 -0.4790  0.3422
   98OSM    C15 9717   1.024   2.328  11.131 -0.8101  0.3491  0.2966
   98OSM   H15A 9718   1.015   2.377  11.226 -4.9742 -1.4683  1.0625
   98OSM   H15B 9719   0.937   2.350  11.070 -1.8836 -2.3621  0.6986
   98OSM   H15C 9720   1.111   2.358  11.074  0.5681 -1.2405  1.4699
   98OSM    C14 9721   1.145   2.156  11.259 -0.8115 -0.4076  0.1345
   98OSM   H14A 9722   1.202   2.064  11.254  1.1672  0.8036 -1.3064
   98OSM   H14B 9723   1.103   2.161  11.359 -1.0674  0.3604 -0.0043
   98OSM   H14C 9724   1.213   2.239  11.268  0.5677 -1.4247 -0.4571
   98OSM    C13 9725   0.912   2.124  11.201  0.2631  0.2656 -0.2070
   98OSM   H13A 9726   0.907   2.027  11.247 -0.2513 -0.5066 -1.8388
   98OSM   H13B 9727   0.842   2.119  11.119 -0.7251 -2.4854  0.6939
   98OSM   H13C 9728   0.872   2.187  11.280  2.0549  1.3237 -0.0952
   98OSM    C12 9729   1.083   2.105  11.026  0.0459 -0.0019  0.1930
   98OSM   H12A 9730   1.083   1.999  11.047  0.4964  0.1081  0.7528
   98OSM   H12B 9731   1.183   2.135  10.998  0.2780 -0.7802  0.1612
   98OSM    C11 9732   0.992   2.121  10.899 -0.1298 -0.1552  1.2387
   98OSM   H11A 9733   1.039   2.062  10.818 -0.3950  0.1774  0.8383
   98OSM   H11B 9734   1.008   2.229  10.876  3.2171 -0.8833 -0.5778
   98OSM      P 9735   0.766   2.132  10.808  0.2594 -0.2423  0.0521
   98OSM    O13 9736   0.659   2.038  10.809 -0.1718  0.0195 -0.0810
   98OSM    O14 9737   0.737   2.272  10.809  0.1629 -0.2894  0.0438
   98OSM    O11 9738   0.843   2.099  10.671 -0.4643 -0.3703 -0.0807
   98OSM    O12 9739   0.857   2.087  10.925  0.3383  0.1878  0.6824
   98OSM    C1S 9740   0.872   1.970  10.624 -0.4928 -0.3670 -0.6067
   98OSM    H1S 9741   0.778   1.920  10.592  1.3187 -3.2739 -1.8198
   98OSM    H1T 9742   0.923   1.913  10.705 -1.1720  0.1847  0.2326
   98OSM     NF 9743   1.005   1.852  10.467 -0.5687  0.5450  0.7297
   98OSM    HNF 9744   1.100   1.841  10.496 -1.2371 -0.7554  2.5996
   98OSM    C2S 9745   0.952   1.980  10.495  0.3198 -0.0701 -0.5978
   98OSM    H2S 9746   0.898   2.021  10.407  3.8142  2.6983 -1.7067
   98OSM    C3S 9747   1.065   2.084  10.516 -0.1579  0.4567 -0.0233
   98OSM    H3S 9748   1.131   2.039  10.593 -0.2510  1.0392  0.4105
   98OSM     O3 9749   1.033   2.217  10.560  0.5915  0.3706  0.1563
   98OSM    HO3 9750   0.945   2.202  10.594  0.5979  0.5612  0.2588
   98OSM    C4S 9751   1.143   2.107  10.395 -0.6111  0.6076  0.3580
   98OSM    H4S 9752   1.222   2.034  10.372 -1.1507  0.4618 -1.1505
   98OSM    C5S 9753   1.131   2.192  10.288 -0.6257  0.5291 -0.6265
   98OSM    H5S 9754   1.048   2.265  10.292 -0.5287  0.5959  2.2236
   98OSM    C6S 9755   1.229   2.202  10.172  0.1348 -0.4868  0.0093
   98OSM    H6S 9756   1.319   2.139  10.190 -0.1032 -0.7160  0.4084
   98OSM    H6T 9757   1.263   2.303  10.142  3.6240 -1.2684  0.9041
   98OSM    C7S 9758   1.160   2.138  10.048  0.5727 -0.2546  0.1565
   98OSM    H7S 9759   1.049   2.150  10.047  0.5285 -0.1511 -2.4959
   98OSM    H7T 9760   1.168   2.027  10.046 -1.5050 -0.5748  3.1849
   98OSM    C8S 9761   1.214   2.200   9.920 -0.2359  0.1192  0.5314
   98OSM    H8S 9762   1.319   2.168   9.910  0.3795  1.8628  1.0371
   98OSM    H8T 9763   1.222   2.309   9.943 -3.9272  1.0834 -1.8557
   98OSM    C9S 9764   1.155   2.176   9.779 -0.2129 -0.5576 -0.2260
   98OSM    H9S 9765   1.055   2.225   9.776  0.6116  1.2723  0.5646
   98OSM    H9T 9766   1.158   2.071   9.742 -1.2958 -0.0430 -1.8519
   98OSM   C10S 9767   1.233   2.264   9.679 -0.1131 -0.2858  0.5413
   98OSM   H10S 9768   1.343   2.250   9.678 -0.0173  0.4295  0.3718
   98OSM   H10T 9769   1.206   2.367   9.711 -1.5468 -0.2160 -0.7302
   98OSM   C11S 9770   1.179   2.236   9.538 -0.2301  0.0100  0.6486
   98OSM   H11S 9771   1.082   2.287   9.525 -1.2239 -1.4171  2.0843
   98OSM   H11T 9772   1.153   2.129   9.524  2.4784 -0.5619 -0.9428
   98OSM   C12S 9773   1.279   2.271   9.422 -0.0203 -0.0725  0.0812
   98OSM   H12S 9774   1.382   2.232   9.433  0.5664  1.3025 -0.2252
   98OSM   H12T 9775   1.289   2.382   9.422 -1.1390  0.0629 -1.3105
   98OSM   C13S 9776   1.225   2.221   9.289 -0.3383  0.0519 -0.2558
   98OSM   H13S 9777   1.121   2.259   9.278  0.8856  3.1790 -2.5831
   98OSM   H13T 9778   1.234   2.111   9.282  1.1157  0.2205 -1.7701
   98OSM   C14S 9779   1.308   2.286   9.167  0.0419 -0.0732 -0.4573
   98OSM   H14S 9780   1.412   2.292   9.204 -0.9909 -0.7793  2.9601
   98OSM   H14T 9781   1.269   2.389   9.157  1.8437  0.7516  0.5333
   98OSM   C15S 9782   1.290   2.206   9.036 -1.1090  0.5847 -0.1753
   98OSM   H15S 9783   1.356   2.117   9.044 -2.3794 -0.2894  1.1251
   98OSM   H15T 9784   1.328   2.268   8.952  4.3794 -1.6771  0.2660
   98OSM   C16S 9785   1.143   2.148   9.010  0.2111  0.2857 -0.3701
   98OSM   H16S 9786   1.079   2.233   8.979 -0.4130 -0.6841 -1.8385
   98OSM   H16T 9787   1.115   2.091   9.102  2.8558 -0.6114 -0.0231
   98OSM   C17S 9788   1.128   2.054   8.883  0.3560 -0.0264 -0.3391
   98OSM   H17S 9789   1.018   2.042   8.876  0.1939  0.7779  0.5665
   98OSM   H17T 9790   1.171   1.955   8.912  0.9156  0.3873  0.2642
   98OSM   C18S 9791   1.179   2.103   8.744  0.3608  0.2016 -0.0377
   98OSM   H18S 9792   1.152   2.022   8.672  1.8855 -1.0855  0.7795
   98OSM   H18T 9793   1.288   2.120   8.737  0.7421 -1.3476  1.5424
   98OSM   H18U 9794   1.118   2.192   8.717 -0.5356  0.0298  1.3393
   98OSM    C1F 9795   0.930   1.759  10.418  1.3255 -0.2626 -0.4235
   98OSM     OF 9796   0.813   1.773  10.388 -0.4424 -0.0767 -0.3097
   98OSM    C2F 9797   0.994   1.623  10.425 -0.1347 -0.7953 -0.4130
   98OSM    H2F 9798   0.911   1.557  10.459 -1.3881  0.8825 -0.0761
   98OSM    H2G 9799   1.074   1.622  10.501 -0.3061 -0.8193 -0.2325
   98OSM    C3F 9800   1.037   1.556  10.286  0.4597 -0.2559  0.0127
   98OSM    H3F 9801   0.941   1.564  10.230 -1.3534  0.6167  3.0272
   98OSM    H3G 9802   1.048   1.445  10.295 -1.8242 -0.4285  1.4753
   98OSM    C4F 9803   1.148   1.634  10.221  1.0942  0.6780 -0.0546
   98OSM    H4F 9804   1.236   1.621  10.287 -0.2342  1.6924  2.0279
   98OSM    H4G 9805   1.128   1.743  10.215  1.2189  0.7976  1.4599
   98OSM    C5F 9806   1.188   1.585  10.084 -0.1267  0.2260 -0.1171
   98OSM    H5F 9807   1.145   1.482  10.073 -3.3522  1.5500 -1.1194
   98OSM    H5G 9808   1.298   1.586  10.072  0.0873  1.9297  1.5852
   98OSM    C6F 9809   1.130   1.675   9.979 -0.1195  0.6340 -0.3056
   98OSM    H6F 9810   1.178   1.775   9.982  1.6955 -0.1832 -0.6062
   98OSM    H6G 9811   1.024   1.693  10.007 -0.2495 -1.7272  1.0909
   98OSM    C7F 9812   1.144   1.614   9.836  0.2888  0.3586 -0.3287
   98OSM    H7F 9813   1.252   1.597   9.819  0.7243 -1.6488  3.3939
   98OSM    H7G 9814   1.110   1.693   9.766 -0.8073  0.2579  0.0674
   98OSM    C8F 9815   1.074   1.480   9.823 -0.1051  0.8251  0.1724
   98OSM    H8F 9816   0.964   1.490   9.817 -0.2041 -0.7713 -1.3806
   98OSM    H8G 9817   1.092   1.396   9.894 -1.0109  0.0302 -0.5180
   98OSM    C9F 9818   1.109   1.414   9.693 -0.1225 -0.2588  0.8911
   98OSM    H9F 9819   1.206   1.364   9.698  0.2889 -0.0247 -2.6367
   98OSM   C10F 9820   1.043   1.425   9.568 -0.0874 -0.5467  0.3051
   98OSM   H10F 9821   1.095   1.379   9.483 -0.2423 -0.3880  0.1257
   98OSM   C11F 9822   0.920   1.500   9.547  0.2497 -0.5334 -0.2363
   98OSM   H11F 9823   0.947   1.607   9.549 -0.9533 -0.1754 -1.7488
   98OSM   H11G 9824   0.839   1.477   9.619  0.1707  1.5066  0.3862
   98OSM   C12F 9825   0.867   1.480   9.407 -0.2073  0.5122  0.1391
   98OSM   H12F 9826   0.762   1.516   9.409  0.7287  3.4878  1.3465
   98OSM   H12G 9827   0.873   1.370   9.388 -2.3479  0.0769  1.6692
   98OSM   C13F 9828   0.952   1.553   9.304  0.2431  0.9297  0.4866
   98OSM   H13F 9829   1.049   1.502   9.290  0.3841  1.2495  0.2595
   98OSM   H13G 9830   0.974   1.654   9.344 -1.1082  0.3308  2.9464
   98OSM   C14F 9831   0.889   1.563   9.159 -0.0284 -0.9823  0.7271
   98OSM   H14F 9832   0.822   1.650   9.178 -0.3409 -1.8163  4.0220
   98OSM   H14G 9833   0.818   1.479   9.144  0.3573 -1.2863  0.5822
   98OSM   C15F 9834   0.987   1.560   9.038  0.1727 -0.4885 -0.0201
   98OSM   H15F 9835   1.007   1.452   9.018 -1.4280 -0.9705  0.8177
   98OSM   H15G 9836   1.075   1.614   9.078 -0.5084 -0.7068  1.8682
   98OSM   C16F 9837   0.928   1.630   8.915  0.3872 -0.3334  0.1164
   98OSM   H16F 9838   0.909   1.735   8.945 -1.1105 -0.9388  1.4162
   98OSM   H16G 9839   0.832   1.588   8.879  0.9658 -0.7717 -0.9785
   98OSM   C17F 9840   1.026   1.637   8.796  0.0647 -0.3669  0.0578
   98OSM   H17F 9841   1.082   1.543   8.778  1.5949  0.5363 -0.0830
   98OSM   H17G 9842   1.108   1.710   8.809  1.2338 -1.6591  0.1667
   98OSM   C18F 9843   0.956   1.676   8.662 -0.1307  0.2100 -0.4919
   98OSM   H18F 9844   1.033   1.699   8.586  0.2552  2.3273  0.4618
   98OSM   H18G 9845   0.881   1.758   8.667 -0.7935 -0.3424 -1.2537
   98OSM   H18H 9846   0.890   1.594   8.628 -0.0332  0.4588 -1.2935
   99OSM      N 9847   1.748   2.648  10.900 -0.0565 -0.2753 -0.2030
   99OSM    C15 9848   1.808   2.774  10.953 -0.5401  0.2272 -0.3487
   99OSM   H15A 9849   1.735   2.853  10.959  0.5286  1.2164  0.2606
   99OSM   H15B 9850   1.885   2.806  10.884  1.2341  0.6542  1.6959
   99OSM   H15C 9851   1.851   2.750  11.049 -1.7817  1.0677  0.4425
   99OSM    C14 9852   1.658   2.586  11.006  0.1677  0.3481  0.4371
   99OSM   H14A 9853   1.597   2.665  11.048  0.7824 -0.2146  2.4914
   99OSM   H14B 9854   1.707   2.541  11.091 -0.5362 -0.6700  0.3239
   99OSM   H14C 9855   1.613   2.497  10.963  1.7529 -0.7491  0.9659
   99OSM    C13 9856   1.668   2.687  10.777  0.0437 -0.2957  0.7710
   99OSM   H13A 9857   1.732   2.726  10.700 -1.7502  0.5398 -0.3808
   99OSM   H13B 9858   1.600   2.763  10.812  0.9954  1.3857 -0.9013
   99OSM   H13C 9859   1.621   2.600  10.733  1.4338 -0.9167  0.4583
   99OSM    C12 9860   1.858   2.548  10.864  0.5378  0.1306 -0.1949
   99OSM   H12A 9861   1.918   2.603  10.793 -1.5859  0.8993 -1.4774
   99OSM   H12B 9862   1.819   2.467  10.805  2.8527 -1.0169 -0.2376
   99OSM    C11 9863   1.942   2.495  10.984 -0.3395 -0.2930  0.8500
   99OSM   H11A 9864   1.869   2.439  11.047 -0.0127  0.6757  2.1372
   99OSM   H11B 9865   1.985   2.575  11.049 -0.4036  0.2699  0.2075
   99OSM      P 9866   2.028   2.287  10.846 -0.3063  0.0412 -0.1727
   99OSM    O13 9867   2.162   2.231  10.818 -0.2421  0.0079  0.2780
   99OSM    O14 9868   1.929   2.192  10.901 -0.1121 -0.1864  0.5769
   99OSM    O11 9869   1.958   2.337  10.709 -0.3427 -0.2377  0.3420
   99OSM    O12 9870   2.053   2.419  10.935  0.5881  0.4028  0.0222
   99OSM    C1S 9871   2.050   2.385  10.603 -0.3550  0.2173 -0.5126
   99OSM    H1S 9872   2.138   2.317  10.603  0.6088  1.2222  2.8925
   99OSM    H1T 9873   2.099   2.482  10.626  1.1424 -0.2134 -1.7696
   99OSM     NF 9874   2.071   2.447  10.356  0.0774 -0.3275  0.1115
   99OSM    HNF 9875   2.037   2.520  10.296  1.8238 -1.6952 -2.7439
   99OSM    C2S 9876   1.985   2.387  10.460 -0.4154  0.3050 -0.0043
   99OSM    H2S 9877   1.967   2.283  10.426  1.2181 -0.4681  1.3726
   99OSM    C3S 9878   1.851   2.456  10.464  0.3117  0.5131 -0.2851
   99OSM    H3S 9879   1.875   2.564  10.466  2.0343  0.1510  0.9403
   99OSM     O3 9880   1.765   2.435  10.575  0.3527  0.2832 -0.0932
   99OSM    HO3 9881   1.824   2.394  10.639  0.2643  0.2660 -0.0234
   99OSM    C4S 9882   1.767   2.431  10.340  0.0026  0.9612  0.2414
   99OSM    H4S 9883   1.800   2.497  10.259  0.9861 -0.3685 -0.4850
   99OSM    C5S 9884   1.668   2.351  10.320  0.8368  0.1322  0.1708
   99OSM    H5S 9885   1.638   2.279  10.398 -0.4524  2.3826  1.8650
   99OSM    C6S 9886   1.591   2.350  10.193 -0.2717 -0.4919  0.2210
   99OSM    H6S 9887   1.491   2.397  10.202 -0.5057 -0.4677 -1.8785
   99OSM    H6T 9888   1.548   2.255  10.155 -3.9902  1.6910 -1.5700
   99OSM    C7S 9889   1.668   2.420  10.080 -0.8718  0.5416 -0.6625
   99OSM    H7S 9890   1.777   2.400  10.070 -0.9082  0.6273 -1.3015
   99OSM    H7T 9891   1.656   2.529  10.101 -1.4760  0.3974 -0.2614
   99OSM    C8S 9892   1.598   2.391   9.945  0.3930  0.0722 -0.0193
   99OSM    H8S 9893   1.507   2.454   9.937  0.7181  0.4114 -1.3275
   99OSM    H8T 9894   1.567   2.285   9.936  1.0093 -0.0739 -0.4649
   99OSM    C9S 9895   1.688   2.437   9.830  0.3119 -0.4888  0.0849
   99OSM    H9S 9896   1.766   2.359   9.820  0.5819 -0.0162 -1.9549
   99OSM    H9T 9897   1.731   2.533   9.866  0.3642  0.0660 -1.3851
   99OSM   C10S 9898   1.607   2.479   9.702 -0.8147 -0.1194  0.2258
   99OSM   H10S 9899   1.521   2.543   9.730 -1.1137 -0.1237 -0.6413
   99OSM   H10T 9900   1.579   2.384   9.651  1.4461 -1.9856  2.2394
   99OSM   C11S 9901   1.701   2.551   9.609 -0.0198 -0.1528  0.8160
   99OSM   H11S 9902   1.790   2.492   9.581 -0.4690 -0.4392 -0.0374
   99OSM   H11T 9903   1.740   2.645   9.655  2.2312  0.6133 -2.3913
   99OSM   C12S 9904   1.628   2.583   9.478  0.1653  0.4934  0.4564
   99OSM   H12S 9905   1.687   2.642   9.405  0.2303  1.0610  0.9625
   99OSM   H12T 9906   1.616   2.479   9.440 -0.4531 -0.2627  2.5716
   99OSM   C13S 9907   1.486   2.642   9.502 -0.1760 -0.1211  0.4029
   99OSM   H13S 9908   1.491   2.718   9.583  0.5821  0.4427 -0.1587
   99OSM   H13T 9909   1.426   2.555   9.534  2.1433 -0.8806  3.1607
   99OSM   C14S 9910   1.424   2.706   9.374 -0.0352 -0.1426  0.1934
   99OSM   H14S 9911   1.428   2.637   9.288  1.2620 -1.1436  1.0207
   99OSM   H14T 9912   1.483   2.796   9.347 -0.1029  0.6299  2.3746
   99OSM   C15S 9913   1.295   2.776   9.406  0.6321 -0.1865 -0.1321
   99OSM   H15S 9914   1.304   2.828   9.504  2.7908 -0.4322 -0.1577
   99OSM   H15T 9915   1.213   2.702   9.414  1.6651 -1.6307 -2.2209
   99OSM   C16S 9916   1.258   2.879   9.297 -0.2077 -0.0682 -0.2402
   99OSM   H16S 9917   1.338   2.956   9.286  0.0402  0.0163  1.6578
   99OSM   H16T 9918   1.166   2.936   9.324 -0.4544 -0.2117 -0.7743
   99OSM   C17S 9919   1.241   2.814   9.158  0.0548 -0.4038  0.0673
   99OSM   H17S 9920   1.190   2.717   9.174 -1.8511  0.2799 -1.4044
   99OSM   H17T 9921   1.345   2.792   9.124  0.1892 -2.9936  1.8849
   99OSM   C18S 9922   1.151   2.894   9.065 -0.9336  1.0360  0.0132
   99OSM   H18S 9923   1.182   3.001   9.068 -1.6766  1.2868 -0.7481
   99OSM   H18T 9924   1.045   2.889   9.096 -0.8840  0.7390  0.1343
   99OSM   H18U 9925   1.162   2.854   8.962  0.8330 -1.3976  1.0463
   99OSM    C1F 9926   2.194   2.407  10.323 -1.1022  0.2239  0.6852
   99OSM     OF 9927   2.261   2.327  10.390  0.0429 -0.2779  0.6805
   99OSM    C2F 9928   2.265   2.468  10.202  0.5021 -0.4395  0.1842
   99OSM    H2F 9929   2.372   2.440  10.197  0.6194  0.0334  0.0313
   99OSM    H2G 9930   2.249   2.577  10.192 -1.0954 -0.7543 -1.2377
   99OSM    C3F 9931   2.202   2.420  10.064 -0.3737 -0.9954 -0.5397
   99OSM    H3F 9932   2.222   2.311  10.050  2.7311 -0.6689  0.5387
   99OSM    H3G 9933   2.093   2.439  10.060 -0.1712  1.1399  1.7959
   99OSM    C4F 9934   2.265   2.494   9.945 -0.4839 -0.9926 -0.1599
   99OSM    H4F 9935   2.376   2.497   9.942 -0.5186  1.3939 -2.2309
   99OSM    H4G 9936   2.230   2.599   9.945 -1.4824 -1.3058 -0.0741
   99OSM    C5F 9937   2.199   2.454   9.811 -0.1411 -0.3012  0.1521
   99OSM    H5F 9938   2.089   2.456   9.824 -0.3228  1.2621 -1.1808
   99OSM    H5G 9939   2.232   2.352   9.783  0.0909 -0.8786  2.3744
   99OSM    C6F 9940   2.226   2.547   9.693  0.0387 -0.8235 -0.4345
   99OSM    H6F 9941   2.335   2.558   9.674  0.1961  2.3895  1.4154
   99OSM    H6G 9942   2.205   2.648   9.735  3.1567 -1.2472  2.6720
   99OSM    C7F 9943   2.152   2.502   9.566 -0.1333 -0.1457 -0.8396
   99OSM    H7F 9944   2.052   2.546   9.586  0.9197  1.7966  0.5087
   99OSM    H7G 9945   2.123   2.395   9.563 -4.9147  0.9274 -3.1027
   99OSM    C8F 9946   2.215   2.564   9.440 -0.0994 -0.6993  0.0300
   99OSM    H8F 9947   2.318   2.521   9.448  1.1883  2.2332  0.7400
   99OSM    H8G 9948   2.228   2.674   9.450  0.0126 -0.7364  0.3261
   99OSM    C9F 9949   2.146   2.520   9.315 -0.3806 -0.8123  0.4631
   99OSM    H9F 9950   2.174   2.419   9.281 -2.1286 -2.1112  2.6358
   99OSM   C10F 9951   2.045   2.575   9.241 -0.0936 -0.6261  0.4966
   99OSM   H10F 9952   2.004   2.536   9.147 -3.1820 -0.9209  1.8647
   99OSM   C11F 9953   1.991   2.712   9.286  0.3000 -0.1064  0.2158
   99OSM   H11F 9954   2.074   2.774   9.324 -0.4058  1.8226 -1.1980
   99OSM   H11G 9955   1.935   2.693   9.380 -0.6956  0.7632 -0.1818
   99OSM   C12F 9956   1.907   2.791   9.186  0.3546 -1.1167 -0.1980
   99OSM   H12F 9957   1.890   2.892   9.228  1.9301  0.4891 -3.0596
   99OSM   H12G 9958   1.814   2.734   9.166 -0.2970 -0.5831  1.2376
   99OSM   C13F 9959   1.979   2.806   9.048  0.1963  0.0295  0.3967
   99OSM   H13F 9960   1.963   2.717   8.984 -2.2775  2.3124 -2.4653
   99OSM   H13G 9961   2.086   2.831   9.067  0.2089  0.0938  0.2365
   99OSM   C14F 9962   1.909   2.917   8.965 -0.7641 -0.0761  0.2956
   99OSM   H14F 9963   1.954   3.007   9.012  0.9060 -0.2457 -0.9035
   99OSM   H14G 9964   1.804   2.916   9.001 -0.6562 -0.6366  0.6224
   99OSM   C15F 9965   1.912   2.897   8.817 -0.0886 -0.3406  0.7714
   99OSM   H15F 9966   1.862   2.985   8.771  0.4141  0.4479  1.6926
   99OSM   H15G 9967   1.853   2.808   8.788 -2.4872  1.9302 -2.0332
   99OSM   C16F 9968   2.049   2.878   8.746 -0.6401 -0.1037 -0.4411
   99OSM   H16F 9969   2.114   2.803   8.795 -0.4866 -0.2311 -0.8439
   99OSM   H16G 9970   2.103   2.975   8.752  1.4974 -1.3341  2.1507
   99OSM   C17F 9971   2.036   2.830   8.603  0.6074  1.0292 -0.1383
   99OSM   H17F 9972   1.969   2.901   8.550 -0.1427 -0.3939 -1.1591
   99OSM   H17G 9973   1.994   2.727   8.597  1.0911  0.8414 -0.3518
   99OSM   C18F 9974   2.159   2.838   8.521  0.2316 -0.3997  0.2210
   99OSM   H18F 9975   2.196   2.942   8.508 -2.0081  0.3074 -0.8940
   99OSM   H18G 9976   2.143   2.797   8.419 -2.4533 -0.2671  0.5315
   99OSM   H18H 9977   2.241   2.773   8.559  1.4511  0.5673 -0.6488
  100OSM      N 9978   4.710   1.935  10.857 -0.5323  0.2276 -0.4193
  100OSM    C15 9979   4.854   1.935  10.802 -0.7326 -0.2882 -0.8989
  100OSM   H15A 9980   4.888   1.833  10.798 -4.5868 -1.7546 -1.4378
  100OSM   H15B 9981   4.919   1.993  10.865  0.0374 -0.1138 -1.8404
  100OSM   H15C 9982   4.858   1.969  10.699 -2.3609  0.5027 -0.7359
  100OSM    C14 9983   4.630   1.853  10.762  0.9390 -0.1017 -0.3583
  100OSM   H14A 9984   4.530   1.853  10.804  0.7630  1.1379 -0.7422
  100OSM   H14B 9985   4.666   1.752  10.750 -2.1518 -1.8452  2.9763
  100OSM   H14C 9986   4.614   1.914  10.675 -1.3994  2.0891  1.4211
  100OSM    C13 9987   4.715   1.857  10.987  0.3253  0.2030  0.1577
  100OSM   H13A 9988   4.775   1.897  11.068 -0.8420  0.6413  0.8217
  100OSM   H13B 9989   4.753   1.760  10.959  1.8490  0.3239  1.6575
  100OSM   H13C 9990   4.615   1.849  11.026 -0.9860  3.0394 -2.2404
  100OSM    C12 9991   4.661   2.078  10.868 -0.2548  0.1683  0.3219
  100OSM   H12A 9992   4.563   2.083  10.912  0.1813 -0.7134  1.4527
  100OSM   H12B 9993   4.639   2.119  10.771 -2.0488  1.2421  1.1328
  100OSM    C11 9994   4.756   2.174  10.941 -0.6822  0.1121 -0.3703
  100OSM   H11A 9995   4.812   2.119  11.020  1.5523  2.7733  0.0611
  100OSM   H11B 9996   4.710   2.253  11.003 -0.5106 -0.8606  1.0504
  100OSM      P 9997   4.818   2.328  10.751 -0.0013 -0.1771 -0.0838
  100OSM    O13 9998   4.761   2.452  10.820  0.3007  0.1198  0.5051
  100OSM    O14 9999   4.936   2.352  10.667  0.7690  0.1819  0.7687
  100OSM    O1110000   4.712   2.253  10.659 -0.0882 -0.6417  0.0596
  100OSM    O1210001   4.857   2.225  10.858  0.1136  0.5716 -0.0534
  100OSM    C1S10002   4.672   2.320  10.539  0.5357 -0.1820  0.2389
  100OSM    H1S10003   4.705   2.426  10.536 -0.5116  0.1337 -1.6330
  100OSM    H1T10004   4.561   2.323  10.531  0.4415  1.3382  1.7326
  100OSM     NF10005   4.702   2.339  10.302  0.7035  0.3908 -0.0830
  100OSM    HNF10006   4.636   2.309  10.234  1.6602 -1.0340 -0.4162
  100OSM    C2S10007   4.731   2.253  10.414  0.5964 -0.2671  0.1589
  100OSM    H2S10008   4.841   2.243  10.432  0.5476 -1.0586  0.0519
  100OSM    C3S10009   4.672   2.109  10.397 -0.5096 -0.3212 -0.3659
  100OSM    H3S10010   4.561   2.111  10.387 -0.5643 -2.5790 -0.5860
  100OSM     O310011   4.688   2.023  10.514  0.4057  0.3215 -0.2782
  100OSM    HO310012   4.723   2.086  10.578  0.4310  0.6422 -0.6003
  100OSM    C4S10013   4.731   2.039  10.277 -0.3324 -0.3939  0.0357
  100OSM    H4S10014   4.840   2.037  10.259 -0.1789  2.4610  0.2115
  100OSM    C5S10015   4.660   1.992  10.176 -0.4743  0.1771 -0.0239
  100OSM    H5S10016   4.551   2.005  10.171 -0.5449 -0.6299 -4.3274
  100OSM    C6S10017   4.728   1.930  10.055  0.7964  0.2777 -1.5352
  100OSM    H6S10018   4.713   1.821  10.070  1.1440  0.3954 -0.2862
  100OSM    H6T10019   4.836   1.955  10.058  0.4812  1.5913 -0.1118
  100OSM    C7S10020   4.692   1.980   9.913 -0.1166  0.7482  0.3126
  100OSM    H7S10021   4.704   2.090   9.914 -1.3649  0.9000  1.6868
  100OSM    H7T10022   4.584   1.975   9.890  0.3069  1.2148 -2.0563
  100OSM    C8S10023   4.784   1.919   9.798 -0.3651  0.0848 -0.5486
  100OSM    H8S10024   4.810   1.812   9.813  1.0481  0.5070  0.1372
  100OSM    H8T10025   4.870   1.989   9.790 -1.1903  1.0102 -1.7856
  100OSM    C9S10026   4.727   1.927   9.659 -0.2701  0.0876  0.7406
  100OSM    H9S10027   4.679   2.027   9.649 -2.4092 -0.7329  2.1794
  100OSM    H9T10028   4.647   1.851   9.645  0.9199 -0.9041 -1.1060
  100OSM   C10S10029   4.827   1.914   9.539  0.4256  0.3826  0.1994
  100OSM   H10S10030   4.871   1.812   9.550 -0.2988 -0.0616 -0.7804
  100OSM   H10T10031   4.911   1.985   9.548  1.2653 -0.7097  1.2698
  100OSM   C11S10032   4.750   1.925   9.396 -0.0243 -0.1295  0.2852
  100OSM   H11S10033   4.680   2.009   9.412 -0.9430 -1.1265  1.7220
  100OSM   H11T10034   4.705   1.824   9.382 -1.3638  0.7837 -2.9253
  100OSM   C12S10035   4.852   1.940   9.285  0.3117 -0.0376 -0.1700
  100OSM   H12S10036   4.952   1.893   9.298  0.6017  0.2264 -1.3269
  100OSM   H12T10037   4.891   2.044   9.271  1.9148 -0.4742  0.7599
  100OSM   C13S10038   4.797   1.895   9.149 -0.0080  0.3337  0.2746
  100OSM   H13S10039   4.705   1.950   9.118  0.3448  0.6774 -0.1690
  100OSM   H13T10040   4.763   1.789   9.152 -1.1284  0.5699 -1.9721
  100OSM   C14S10041   4.907   1.914   9.044 -0.0699  0.4044  0.3354
  100OSM   H14S10042   5.005   1.873   9.078  0.9421  1.5091 -1.0867
  100OSM   H14T10043   4.922   2.021   9.015  2.1313  0.1152  0.2140
  100OSM   C15S10044   4.876   1.832   8.922 -0.5898 -0.2384 -0.9049
  100OSM   H15S10045   4.780   1.869   8.880 -2.4106 -1.5437  1.7718
  100OSM   H15T10046   4.862   1.724   8.943  0.6021 -0.2032  0.2400
  100OSM   C16S10047   4.993   1.840   8.822  0.5061 -0.3381  0.0264
  100OSM   H16S10048   5.081   1.784   8.859  0.9399  0.8828  0.8907
  100OSM   H16T10049   5.018   1.947   8.805 -0.6796 -0.2756 -1.6171
  100OSM   C17S10050   4.960   1.766   8.695 -0.2702 -0.2495  0.0103
  100OSM   H17S10051   4.868   1.806   8.648 -0.0178  2.5582  1.6873
  100OSM   H17T10052   4.932   1.663   8.725 -0.9223  0.1268  0.7101
  100OSM   C18S10053   5.081   1.765   8.594  0.3951  0.1521 -0.9513
  100OSM   H18S10054   5.119   1.862   8.556  0.0804 -0.3173 -2.5139
  100OSM   H18T10055   5.058   1.712   8.499  0.8024 -0.9857 -0.4350
  100OSM   H18U10056   5.168   1.713   8.639  0.4457 -0.1066 -1.3436
  100OSM    C1F10057   4.754   2.459  10.279 -0.2820  0.6223 -0.6863
  100OSM     OF10058   4.843   2.508  10.350 -0.7185 -0.6412 -0.0270
  100OSM    C2F10059   4.699   2.559  10.176  0.6376  0.4624  0.5066
  100OSM    H2F10060   4.780   2.586  10.106 -0.2082 -1.1034 -1.1734
  100OSM    H2G10061   4.660   2.644  10.236 -0.3901 -0.0553  0.5912
  100OSM    C3F10062   4.590   2.500  10.081  0.4580 -0.1621 -0.4979
  100OSM    H3F10063   4.529   2.584  10.040  0.7475 -0.0437 -0.6851
  100OSM    H3G10064   4.526   2.436  10.146  2.3644 -0.3312  1.2967
  100OSM    C4F10065   4.635   2.427   9.955  0.7433 -0.4761  0.1415
  100OSM    H4F10066   4.687   2.332   9.979  0.9097 -0.7868 -1.3546
  100OSM    H4G10067   4.700   2.500   9.902 -0.6951  0.8673  0.1478
  100OSM    C5F10068   4.507   2.393   9.869 -0.1517  0.4555 -0.2437
  100OSM    H5F10069   4.445   2.483   9.849 -3.5320 -1.5324  0.3262
  100OSM    H5G10070   4.429   2.338   9.927 -2.2711  1.6114 -1.8298
  100OSM    C6F10071   4.547   2.333   9.737  0.9303 -0.2282 -0.2428
  100OSM    H6F10072   4.598   2.238   9.762  0.6694  0.1956  2.1793
  100OSM    H6G10073   4.624   2.403   9.699 -1.6039  1.7976 -2.0073
  100OSM    C7F10074   4.426   2.320   9.647 -0.8052  0.7598  0.2722
  100OSM    H7F10075   4.375   2.418   9.638 -1.3565  0.5893  1.3615
  100OSM    H7G10076   4.360   2.245   9.697 -0.7316  1.0461  0.7976
  100OSM    C8F10077   4.452   2.256   9.503 -0.3875 -0.6055 -0.0512
  100OSM    H8F10078   4.354   2.246   9.451 -0.9730  3.5839 -0.1111
  100OSM    H8G10079   4.516   2.165   9.506  1.6311  0.6549 -1.7842
  100OSM    C9F10080   4.531   2.366   9.436  0.3155 -0.3481  0.3697
  100OSM    H9F10081   4.620   2.403   9.490 -1.3092  2.7983  1.1624
  100OSM   C10F10082   4.513   2.421   9.315  1.0471 -0.4941  0.5835
  100OSM   H10F10083   4.577   2.503   9.280  0.6246  0.0574  1.0864
  100OSM   C11F10084   4.393   2.399   9.218 -0.3843 -1.0955  0.7907
  100OSM   H11F10085   4.342   2.490   9.180  1.6767 -0.1321  0.2049
  100OSM   H11G10086   4.313   2.343   9.271 -3.3356  2.6036  0.7095
  100OSM   C12F10087   4.435   2.317   9.096  0.0455  0.0846 -0.8384
  100OSM   H12F10088   4.344   2.285   9.041 -1.1301  0.3278  0.8890
  100OSM   H12G10089   4.475   2.221   9.135  0.2661  0.9048  1.0322
  100OSM   C13F10090   4.534   2.385   9.011 -0.7154  0.1627  0.1826
  100OSM   H13F10091   4.582   2.302   8.955  0.1973 -1.0143  2.5607
  100OSM   H13G10092   4.614   2.416   9.082  0.0681  0.5867 -0.8471
  100OSM   C14F10093   4.468   2.498   8.934 -0.1836 -0.1776  0.3988
  100OSM   H14F10094   4.540   2.580   8.914  1.2124 -1.4320  0.0641
  100OSM   H14G10095   4.382   2.538   8.992  0.5257 -2.2610  3.0733
  100OSM   C15F10096   4.418   2.455   8.793  0.9324 -0.9263 -0.1319
  100OSM   H15F10097   4.495   2.416   8.722  0.6813  0.6786 -1.3573
  100OSM   H15G10098   4.402   2.551   8.740 -0.2505 -2.2346 -2.2955
  100OSM   C16F10099   4.281   2.395   8.787  0.2462  0.2065  0.4846
  100OSM   H16F10100   4.214   2.435   8.867 -0.5268 -1.8358  0.9039
  100OSM   H16G10101   4.290   2.286   8.802  4.1333  0.3931  0.4669
  100OSM   C17F10102   4.199   2.404   8.655 -0.2564  0.7471  0.3192
  100OSM   H17F10103   4.155   2.504   8.635 -0.6458  0.3878 -0.6705
  100OSM   H17G10104   4.111   2.336   8.661 -0.2306  0.7828  1.3111
  100OSM   C18F10105   4.288   2.360   8.529  0.2151  0.1408 -1.0099
  100OSM   H18F10106   4.394   2.331   8.548  0.4223  1.5713  0.2199
  100OSM   H18G10107   4.287   2.448   8.462 -2.3490  0.2733 -0.8819
  100OSM   H18H10108   4.236   2.279   8.474 -1.1222 -2.1478  3.1753
  101OSM      N10109   2.424   2.727  10.574  0.1139 -0.5241 -0.0950
  101OSM    C1510110   2.502   2.695  10.460 -0.5650  0.1459 -0.1051
  101OSM   H15A10111   2.603   2.732  10.466 -0.7391  0.5811  0.2790
  101OSM   H15B10112   2.460   2.739  10.371 -2.1042  1.6915  1.2888
  101OSM   H15C10113   2.524   2.591  10.446  0.2406 -0.5242  4.5898
  101OSM    C1410114   2.485   2.675  10.697 -0.2154 -0.9987 -0.1871
  101OSM   H14A10115   2.588   2.707  10.709  1.0512 -3.5096 -3.2141
  101OSM   H14B10116   2.477   2.568  10.706 -2.1530 -0.8206  0.5686
  101OSM   H14C10117   2.432   2.699  10.788  0.2631  0.3669 -0.2389
  101OSM    C1310118   2.418   2.878  10.588 -0.5483  0.2951  0.0102
  101OSM   H13A10119   2.356   2.902  10.673  0.6528  1.2707  0.6366
  101OSM   H13B10120   2.358   2.915  10.505 -1.6341 -2.6859 -0.6691
  101OSM   H13C10121   2.518   2.918  10.596 -0.3708 -0.3839  1.2792
  101OSM    C1210122   2.286   2.675  10.547 -0.1982  0.4718 -0.6634
  101OSM   H12A10123   2.236   2.670  10.643 -1.0821  3.5287 -0.8427
  101OSM   H12B10124   2.290   2.571  10.519  0.9034 -0.0743  1.3717
  101OSM    C1110125   2.204   2.761  10.447 -0.6012  0.0454  0.4927
  101OSM   H11A10126   2.129   2.703  10.389  0.0970  0.6372 -1.0453
  101OSM   H11B10127   2.279   2.808  10.382  0.7592  1.0052  2.6398
  101OSM      P10128   2.017   2.847  10.616  0.6855  0.0415  0.1152
  101OSM    O1310129   2.030   2.728  10.695 -0.4869  0.4210  0.0271
  101OSM    O1410130   1.992   2.968  10.688 -0.0399  0.3676 -0.3104
  101OSM    O1110131   1.902   2.836  10.511  0.3199 -0.5774 -0.3641
  101OSM    O1210132   2.147   2.864  10.526  0.8732 -0.1232 -0.7729
  101OSM    C1S10133   1.889   2.881  10.381 -0.0866 -0.0077 -0.2461
  101OSM    H1S10134   1.985   2.867  10.329  1.4595 -2.3656  2.9241
  101OSM    H1T10135   1.855   2.987  10.382 -2.0556 -0.5863  1.5583
  101OSM     NF10136   1.794   2.792  10.161  0.2714 -0.3934 -0.4861
  101OSM    HNF10137   1.719   2.843  10.121  0.9002  0.2377 -0.8856
  101OSM    C2S10138   1.777   2.800  10.306 -0.7573 -0.8650 -0.7793
  101OSM    H2S10139   1.792   2.696  10.340 -1.1658 -0.6300  0.1424
  101OSM    C3S10140   1.633   2.847  10.343 -0.4993  0.6069 -0.0204
  101OSM    H3S10141   1.621   2.948  10.298  1.7800  0.8999 -0.1382
  101OSM     O310142   1.622   2.848  10.477  0.2300  0.4630  0.0396
  101OSM    HO310143   1.713   2.858  10.506  0.1633  2.2082 -0.2500
  101OSM    C4S10144   1.524   2.759  10.291  0.1144  0.5134 -0.3701
  101OSM    H4S10145   1.490   2.676  10.354 -1.1797 -0.1079 -1.8359
  101OSM    C5S10146   1.448   2.786  10.177 -0.7372 -1.1750 -0.2737
  101OSM    H5S10147   1.480   2.872  10.116  0.9318 -0.1000  1.9512
  101OSM    C6S10148   1.332   2.692  10.133 -0.2765 -0.3718  0.3858
  101OSM    H6S10149   1.237   2.718  10.186 -0.5338  1.4157 -0.8778
  101OSM    H6T10150   1.337   2.584  10.160  0.2847 -0.2437  0.8163
  101OSM    C7S10151   1.301   2.701   9.985  0.4175 -0.1057  0.3234
  101OSM    H7S10152   1.365   2.646   9.913 -1.5601 -1.4416 -0.4751
  101OSM    H7T10153   1.273   2.804   9.954  1.3844  0.2136  0.4720
  101OSM    C8S10154   1.167   2.629   9.958 -0.4544  0.0763 -0.0161
  101OSM    H8S10155   1.089   2.675  10.022  0.8760  0.9052  1.0679
  101OSM    H8T10156   1.184   2.525   9.992  1.3958  0.3060 -0.1210
  101OSM    C9S10157   1.126   2.635   9.808  0.2645  0.0989 -0.3596
  101OSM    H9S10158   1.214   2.594   9.755 -0.2351 -3.0334  1.0617
  101OSM    H9T10159   1.097   2.736   9.772  2.7499  0.2870 -2.0495
  101OSM   C10S10160   0.992   2.551   9.797 -0.3762 -0.1475 -0.0431
  101OSM   H10S10161   0.915   2.607   9.855  0.1560  1.0325 -0.4505
  101OSM   H10T10162   1.003   2.450   9.841  4.2837 -0.1899 -0.8780
  101OSM   C11S10163   0.942   2.543   9.654 -0.2190  0.0578  0.1004
  101OSM   H11S10164   0.854   2.477   9.642 -1.4158  1.7019 -0.5128
  101OSM   H11T10165   1.019   2.480   9.605 -2.5979 -1.6964 -1.5684
  101OSM   C12S10166   0.921   2.671   9.579 -0.4557 -0.8006 -0.5522
  101OSM   H12S10167   1.015   2.726   9.556 -0.2576 -1.2659 -0.8593
  101OSM   H12T10168   0.861   2.732   9.650  0.3603 -1.7724  1.0225
  101OSM   C13S10169   0.848   2.654   9.451 -0.3846 -0.0818  0.1829
  101OSM   H13S10170   0.799   2.747   9.416  0.1552 -0.0801 -0.6075
  101OSM   H13T10171   0.762   2.588   9.476  0.8819 -1.3836  1.2756
  101OSM   C14S10172   0.934   2.590   9.341 -0.8508 -0.3987  0.8292
  101OSM   H14S10173   0.973   2.491   9.372  0.0201 -0.4857 -0.4361
  101OSM   H14T10174   1.014   2.667   9.341 -1.2561  0.0366  1.7969
  101OSM   C15S10175   0.856   2.579   9.215 -0.1795  0.2085  0.5536
  101OSM   H15S10176   0.822   2.680   9.184 -2.5837 -0.7665 -0.1849
  101OSM   H15T10177   0.767   2.516   9.236 -1.1954  0.9260 -1.3539
  101OSM   C16S10178   0.927   2.514   9.089  0.0574  0.6853  0.5990
  101OSM   H16S10179   0.941   2.406   9.111 -0.1821  0.7070  0.8625
  101OSM   H16T10180   1.027   2.556   9.066 -0.2421  1.4673  0.7071
  101OSM   C17S10181   0.844   2.528   8.957  0.1661 -0.4039  0.4867
  101OSM   H17S10182   0.741   2.488   8.972 -0.1990 -0.1203 -1.1102
  101OSM   H17T10183   0.899   2.464   8.886  1.8070  1.0224  0.4043
  101OSM   C18S10184   0.845   2.664   8.896 -0.3226 -0.0910  0.2264
  101OSM   H18S10185   0.781   2.734   8.954  0.9212  1.2412  0.0377
  101OSM   H18T10186   0.819   2.658   8.788  0.9098 -2.0991 -0.0299
  101OSM   H18U10187   0.944   2.713   8.907 -0.0807 -0.7470  1.0797
  101OSM    C1F10188   1.903   2.744  10.100  0.0884  0.1365  0.0073
  101OSM     OF10189   1.972   2.656  10.148 -0.0500  0.1223 -0.1552
  101OSM    C2F10190   1.944   2.806   9.971  0.1803 -0.5216  0.2558
  101OSM    H2F10191   2.055   2.800   9.969  0.2900 -0.7996  3.2429
  101OSM    H2G10192   1.915   2.913   9.974 -0.6573 -0.7390  0.1526
  101OSM    C3F10193   1.890   2.745   9.840  0.0590 -0.2288 -0.3245
  101OSM    H3F10194   1.780   2.735   9.833  0.2558 -1.9191 -1.5711
  101OSM    H3G10195   1.931   2.642   9.837 -0.9031 -0.8857  3.3292
  101OSM    C4F10196   1.943   2.826   9.724  0.3807 -0.0025 -0.5314
  101OSM    H4F10197   1.919   2.773   9.630 -1.4583 -0.7113  0.2848
  101OSM    H4G10198   2.054   2.838   9.726  0.5439 -1.3051  1.5573
  101OSM    C5F10199   1.876   2.957   9.691  0.0066 -0.7074 -0.1846
  101OSM    H5F10200   1.921   2.995   9.597 -1.6177 -1.7066 -1.4134
  101OSM    H5G10201   1.901   3.025   9.775  0.4714 -0.1697 -0.7542
  101OSM    C6F10202   1.727   2.943   9.686 -0.0715 -0.7878 -0.0503
  101OSM    H6F10203   1.711   2.850   9.627 -0.5792 -0.5958 -0.2256
  101OSM    H6G10204   1.689   2.927   9.790 -1.7922  1.3588 -0.2632
  101OSM    C7F10205   1.649   3.068   9.635  0.1184 -0.4366  0.3201
  101OSM    H7F10206   1.674   3.162   9.689 -1.9836 -0.7083  1.8963
  101OSM    H7G10207   1.540   3.049   9.650  0.8007 -2.4286  4.4048
  101OSM    C8F10208   1.680   3.102   9.489  0.2080  0.2557 -0.4222
  101OSM    H8F10209   1.650   3.014   9.427  0.3918  0.5402 -0.9160
  101OSM    H8G10210   1.790   3.114   9.480  0.5909 -2.5833 -0.3842
  101OSM    C9F10211   1.623   3.223   9.432  0.7947 -0.5515 -0.5432
  101OSM    H9F10212   1.570   3.292   9.500  2.2663 -0.4627  0.5688
  101OSM   C10F10213   1.642   3.281   9.311 -0.4041 -0.8836 -0.2522
  101OSM   H10F10214   1.587   3.376   9.298  0.0122 -0.2920  1.8802
  101OSM   C11F10215   1.722   3.216   9.193  0.1222 -0.0423  0.5014
  101OSM   H11F10216   1.650   3.151   9.139 -1.0810  1.9431 -0.4048
  101OSM   H11G10217   1.801   3.147   9.229 -0.3809 -0.0821  1.5732
  101OSM   C12F10218   1.780   3.319   9.091 -0.7344  0.6291 -0.4449
  101OSM   H12F10219   1.880   3.350   9.129 -1.6817  3.1955  0.2106
  101OSM   H12G10220   1.733   3.420   9.094  0.3979  1.1626 -0.1747
  101OSM   C13F10221   1.778   3.267   8.945  0.3026  0.3765 -0.0608
  101OSM   H13F10222   1.689   3.309   8.893 -1.7650 -0.4192  2.6443
  101OSM   H13G10223   1.766   3.157   8.947 -0.2677  0.4434  0.8226
  101OSM   C14F10224   1.895   3.301   8.852  0.2197  0.1848  1.0168
  101OSM   H14F10225   1.980   3.236   8.881  0.9415 -0.3500 -1.9545
  101OSM   H14G10226   1.913   3.409   8.870 -2.8013  1.0439 -0.3927
  101OSM   C15F10227   1.869   3.272   8.706 -0.3159  0.6732 -0.2326
  101OSM   H15F10228   1.813   3.360   8.667  0.6032  1.1145 -0.5763
  101OSM   H15G10229   1.800   3.184   8.700  0.3145  0.0317  1.4202
  101OSM   C16F10230   1.983   3.239   8.606 -0.5676 -0.3074  0.2672
  101OSM   H16F10231   2.057   3.165   8.644  0.4871  1.4399  1.7610
  101OSM   H16G10232   2.039   3.334   8.597 -1.4867  0.4252  1.7583
  101OSM   C17F10233   1.942   3.212   8.462  0.8048  0.0199  0.0342
  101OSM   H17F10234   1.867   3.288   8.430  0.3438  0.6011  2.3050
  101OSM   H17G10235   1.889   3.114   8.457  0.0452  0.4182  0.1709
  101OSM   C18F10236   2.051   3.215   8.366 -1.2448  0.9803 -0.3162
  101OSM   H18F10237   2.025   3.190   8.261  0.7054  0.4823 -0.7291
  101OSM   H18G10238   2.137   3.153   8.401  0.5291  2.7376 -1.3203
  101OSM   H18H10239   2.094   3.317   8.352 -1.5588  1.3470  1.2065
  102OSM      N10240   5.288   3.505  10.787 -0.3341 -0.2367  0.0636
  102OSM    C1510241   5.215   3.586  10.679 -0.0624  0.1091 -0.4783
  102OSM   H15A10242   5.145   3.644  10.737  1.1060  0.6659  0.4310
  102OSM   H15B10243   5.164   3.519  10.612 -1.2591  1.0976 -0.5879
  102OSM   H15C10244   5.286   3.652  10.631  1.8971 -1.4280  0.1591
  102OSM    C1410245   5.352   3.596  10.889  0.1491  0.1782 -0.1862
  102OSM   H14A10246   5.284   3.672  10.923 -0.1139 -0.4507  0.7293
  102OSM   H14B10247   5.438   3.642  10.841  0.0964  1.1874  0.6509
  102OSM   H14C10248   5.397   3.541  10.970 -0.4823  0.1763  0.1651
  102OSM    C1310249   5.188   3.418  10.850 -0.6112  0.0111 -0.7909
  102OSM   H13A10250   5.201   3.381  10.951 -1.7072  0.9973 -0.2642
  102OSM   H13B10251   5.157   3.337  10.785 -1.5995 -0.5692  0.3573
  102OSM   H13C10252   5.110   3.487  10.879  1.8112  1.6866  2.3799
  102OSM    C1210253   5.398   3.427  10.711  0.3374  0.3828 -1.0134
  102OSM   H12A10254   5.434   3.361  10.789 -1.0482  1.8550  0.9741
  102OSM   H12B10255   5.479   3.497  10.693 -0.6514  2.0187  0.5108
  102OSM    C1110256   5.368   3.332  10.586 -0.8499 -0.9119  0.2833
  102OSM   H11A10257   5.464   3.280  10.565  0.1264  1.3572 -1.2675
  102OSM   H11B10258   5.345   3.398  10.500 -0.9703  1.2640  1.8647
  102OSM      P10259   5.272   3.125  10.711  0.3385 -0.0929  0.2860
  102OSM    O1310260   5.411   3.109  10.766  0.4788 -0.2045 -0.5491
  102OSM    O1410261   5.160   3.127  10.807  0.6652  0.0603 -0.2281
  102OSM    O1110262   5.242   3.000  10.618  0.3234 -0.3161 -0.2497
  102OSM    O1210263   5.256   3.250  10.614 -0.2168 -0.1218  0.3065
  102OSM    C1S10264   5.126   2.974  10.545 -0.2214  0.0186 -0.2289
  102OSM    H1S10265   5.044   3.049  10.557 -0.6681 -0.4690 -0.2325
  102OSM    H1T10266   5.095   2.875  10.585 -2.3080  0.1217 -1.4607
  102OSM     NF10267   5.020   2.919  10.331 -0.1157  0.1819  0.7288
  102OSM    HNF10268   5.001   2.826  10.301 -2.9992  0.3541  1.7558
  102OSM    C2S10269   5.150   2.963  10.389  0.4040  0.1189  0.0144
  102OSM    H2S10270   5.170   3.067  10.356 -0.1500  0.5840  1.0838
  102OSM    C3S10271   5.276   2.877  10.351  0.0152 -0.3919  0.5089
  102OSM    H3S10272   5.253   2.779  10.398  1.2202 -1.2226 -0.5636
  102OSM     O310273   5.395   2.911  10.420 -0.2659 -0.0377  0.0023
  102OSM    HO310274   5.375   2.958  10.502  2.2529  0.3498  0.4855
  102OSM    C4S10275   5.294   2.868  10.199 -0.2194 -0.2318 -0.3379
  102OSM    H4S10276   5.230   2.940  10.145  0.5072  0.0909 -0.7814
  102OSM    C5S10277   5.354   2.771  10.129 -0.7040 -0.2622 -0.2727
  102OSM    H5S10278   5.391   2.686  10.187  2.4727  1.1971  0.0514
  102OSM    C6S10279   5.349   2.751   9.978  0.6600 -0.3898  0.6756
  102OSM    H6S10280   5.429   2.677   9.960  0.7539 -0.4691  1.3788
  102OSM    H6T10281   5.395   2.839   9.929  0.4330 -0.7384 -0.1786
  102OSM    C7S10282   5.206   2.719   9.919 -0.0514  0.1750  0.1352
  102OSM    H7S10283   5.138   2.806   9.933 -1.6845 -1.0998  0.4437
  102OSM    H7T10284   5.168   2.637   9.984 -0.8731  0.7998  0.4620
  102OSM    C8S10285   5.207   2.666   9.770 -0.0777 -0.1300  0.2854
  102OSM    H8S10286   5.100   2.657   9.743 -0.2074 -1.6237  1.1526
  102OSM    H8T10287   5.250   2.563   9.774  2.5651  0.8769 -0.7618
  102OSM    C9S10288   5.291   2.744   9.666  0.6780 -0.2025 -0.1915
  102OSM    H9S10289   5.282   2.701   9.564 -1.2214 -0.0756 -0.1045
  102OSM    H9T10290   5.396   2.726   9.697  1.4309  4.3857  0.6698
  102OSM   C10S10291   5.266   2.898   9.661 -0.0983 -0.7108  0.0537
  102OSM   H10S10292   5.336   2.944   9.734 -1.5984 -0.0709  1.1506
  102OSM   H10T10293   5.164   2.926   9.695 -0.1860  2.1697 -2.1927
  102OSM   C11S10294   5.290   2.958   9.521 -0.3067 -0.2987 -0.0220
  102OSM   H11S10295   5.260   3.065   9.512 -4.0982 -1.3396 -1.6731
  102OSM   H11T10296   5.227   2.910   9.444 -0.5232 -1.3843  0.8148
  102OSM   C12S10297   5.434   2.930   9.481 -0.0205 -0.0888 -0.2355
  102OSM   H12S10298   5.469   2.828   9.507  0.0674  0.3468  1.4731
  102OSM   H12T10299   5.494   2.998   9.546 -1.9240  2.1067 -0.6232
  102OSM   C13S10300   5.465   2.955   9.335  0.2970 -0.4057  0.6038
  102OSM   H13S10301   5.572   2.926   9.330 -0.0948 -1.7870 -1.4481
  102OSM   H13T10302   5.443   3.062   9.317 -0.5054 -0.2075  2.5153
  102OSM   C14S10303   5.393   2.863   9.234  0.3305  0.0225  0.5473
  102OSM   H14S10304   5.403   2.909   9.133 -0.8525  1.9726  1.2496
  102OSM   H14T10305   5.284   2.861   9.256  0.1496  0.6831 -0.1935
  102OSM   C15S10306   5.444   2.719   9.231 -0.3418 -0.3954  0.3129
  102OSM   H15S10307   5.437   2.672   9.331 -0.9950 -0.0391  0.4430
  102OSM   H15T10308   5.546   2.713   9.188 -0.9045 -5.3851 -0.9402
  102OSM   C16S10309   5.348   2.623   9.152 -0.1720 -0.1439 -0.0556
  102OSM   H16S10310   5.246   2.668   9.154  0.5646  1.6387 -0.4493
  102OSM   H16T10311   5.351   2.530   9.212 -0.2358  1.0867  1.9636
  102OSM   C17S10312   5.397   2.584   9.015  0.0584  0.5237 -0.6163
  102OSM   H17S10313   5.332   2.510   8.962  0.8288 -1.2951  0.8773
  102OSM   H17T10314   5.499   2.542   9.024  0.1904  0.9310 -0.2412
  102OSM   C18S10315   5.412   2.701   8.913 -0.3617 -0.2848  1.1828
  102OSM   H18S10316   5.448   2.660   8.817 -0.8996 -0.6073  1.1121
  102OSM   H18T10317   5.495   2.762   8.953 -0.2054 -0.2946  0.8718
  102OSM   H18U10318   5.315   2.750   8.890  0.1658 -0.4977 -1.8109
  102OSM    C1F10319   4.916   3.009  10.328 -0.5329  0.2003 -0.9825
  102OSM     OF10320   4.936   3.133  10.342  0.0378  0.3974 -0.2542
  102OSM    C2F10321   4.776   2.959  10.299 -0.3099  0.1184 -0.4171
  102OSM    H2F10322   4.721   2.961  10.395 -0.6343 -0.9940 -0.5657
  102OSM    H2G10323   4.780   2.851  10.273  0.5263  0.0547 -0.0514
  102OSM    C3F10324   4.711   3.045  10.180  0.2578  0.0097 -0.3518
  102OSM    H3F10325   4.710   3.148  10.223  0.4560 -0.1807  0.1167
  102OSM    H3G10326   4.605   3.017  10.168 -0.2508  1.6572 -0.0202
  102OSM    C4F10327   4.798   3.049  10.061 -0.2201 -0.5972 -0.2085
  102OSM    H4F10328   4.905   3.077  10.069 -0.3714  0.2170 -0.9370
  102OSM    H4G10329   4.755   3.118   9.985 -1.2999 -0.1347  0.7864
  102OSM    C5F10330   4.799   2.912   9.989 -0.6747 -0.6360 -1.1751
  102OSM    H5F10331   4.696   2.872   9.988 -1.4591  1.0742  1.6544
  102OSM    H5G10332   4.861   2.844  10.051 -1.6972 -1.8255 -1.4195
  102OSM    C6F10333   4.860   2.922   9.850 -0.5468 -0.0555  0.0957
  102OSM    H6F10334   4.964   2.961   9.857 -0.5930 -0.1391  1.3249
  102OSM    H6G10335   4.798   2.995   9.795 -1.3223  1.2134  2.5383
  102OSM    C7F10336   4.867   2.788   9.772 -0.6110  0.3103  0.0108
  102OSM    H7F10337   4.894   2.699   9.832 -0.5055 -0.0089 -0.5030
  102OSM    H7G10338   4.951   2.803   9.701 -2.2316 -0.9999 -2.3120
  102OSM    C8F10339   4.735   2.769   9.690  0.0092  0.0598 -0.8554
  102OSM    H8F10340   4.654   2.799   9.759  1.5266  0.7655  0.7005
  102OSM    H8G10341   4.715   2.662   9.666  0.0014  0.0355 -0.7417
  102OSM    C9F10342   4.716   2.864   9.576 -0.6044 -0.0910 -0.0430
  102OSM    H9F10343   4.661   2.955   9.603  0.0896  0.1513  0.6089
  102OSM   C10F10344   4.764   2.852   9.451  0.0519  0.0493  0.5185
  102OSM   H10F10345   4.738   2.930   9.378 -1.5647 -0.0618  0.9315
  102OSM   C11F10346   4.847   2.750   9.387  0.6320 -0.6325 -0.9527
  102OSM   H11F10347   4.792   2.655   9.370 -0.7460  0.2100 -1.3355
  102OSM   H11G10348   4.936   2.737   9.452 -1.6194 -1.2517  2.2389
  102OSM   C12F10349   4.896   2.801   9.249  0.5185  0.1802  0.7802
  102OSM   H12F10350   4.963   2.721   9.210 -1.3370 -2.3589  2.4042
  102OSM   H12G10351   4.940   2.902   9.255  1.9651 -0.1283 -2.3180
  102OSM   C13F10352   4.773   2.818   9.153 -0.1161  0.2061 -0.1873
  102OSM   H13F10353   4.699   2.887   9.198  0.9987  2.7392 -2.0043
  102OSM   H13G10354   4.731   2.715   9.155 -0.2444  0.2568 -0.2453
  102OSM   C14F10355   4.805   2.853   9.006  0.6407 -0.1112 -0.1291
  102OSM   H14F10356   4.713   2.824   8.951 -0.8601  1.6008  1.3749
  102OSM   H14G10357   4.894   2.795   8.971  1.2107  1.0277 -0.6247
  102OSM   C15F10358   4.828   3.004   8.982 -0.0095 -0.8189 -0.8394
  102OSM   H15F10359   4.933   3.033   9.005  0.1225 -1.9006 -0.0219
  102OSM   H15G10360   4.758   3.055   9.052 -1.4294 -0.0933 -2.6890
  102OSM   C16F10361   4.812   3.048   8.838  0.4794  0.6497  0.4554
  102OSM   H16F10362   4.868   2.971   8.780 -1.6585 -0.7181  0.1199
  102OSM   H16G10363   4.861   3.145   8.811  0.6168  0.5182  0.2286
  102OSM   C17F10364   4.667   3.054   8.787 -0.6561  0.1162  0.6678
  102OSM   H17F10365   4.603   3.120   8.849 -0.2305  1.1299  0.0486
  102OSM   H17G10366   4.612   2.958   8.792 -0.8032  0.1840  0.3257
  102OSM   C18F10367   4.658   3.100   8.640 -0.5201 -0.3387  0.2610
  102OSM   H18F10368   4.729   3.184   8.623  0.9422 -1.5426  0.2028
  102OSM   H18G10369   4.553   3.117   8.606 -1.4536 -2.7563  1.6705
  102OSM   H18H10370   4.706   3.026   8.572 -0.4681  0.9994 -1.2133
  103OSM      N10371   1.373   0.482  10.898 -0.1718  0.8452 -0.6387
  103OSM    C1510372   1.294   0.367  10.949  0.7739  0.5715 -0.0253
  103OSM   H15A10373   1.188   0.383  10.934  0.5971 -0.9561 -0.6835
  103OSM   H15B10374   1.295   0.343  11.054 -0.5251  0.3798 -0.0432
  103OSM   H15C10375   1.318   0.280  10.888  2.1394 -0.6665  2.1769
  103OSM    C1410376   1.341   0.504  10.750 -0.4084 -0.3633  0.0801
  103OSM   H14A10377   1.238   0.503  10.719  0.2031 -0.6602 -2.0920
  103OSM   H14B10378   1.388   0.427  10.690 -1.8894 -2.8487  1.9444
  103OSM   H14C10379   1.380   0.602  10.725 -2.3769 -0.0030 -1.8761
  103OSM    C1310380   1.330   0.599  10.980  0.2911 -0.6639  0.1623
  103OSM   H13A10381   1.229   0.625  10.952 -0.0664 -1.1636  0.9651
  103OSM   H13B10382   1.394   0.678  10.944  2.4067 -2.1078  0.5585
  103OSM   H13C10383   1.342   0.587  11.086  2.9498 -0.2435 -0.0388
  103OSM    C1210384   1.529   0.461  10.923  0.3869  0.2550 -0.4468
  103OSM   H12A10385   1.545   0.360  10.891 -0.6172  0.3259 -1.2139
  103OSM   H12B10386   1.544   0.472  11.030 -0.6523  0.2860 -0.2943
  103OSM    C1110387   1.632   0.554  10.852  0.3629 -0.2391  0.4419
  103OSM   H11A10388   1.630   0.528  10.744  0.6140  1.2769  0.0509
  103OSM   H11B10389   1.731   0.527  10.895 -0.0077  0.8795  2.1182
  103OSM      P10390   1.694   0.807  10.843  0.0894  0.3040  0.4557
  103OSM    O1310391   1.622   0.938  10.850  0.3015  0.4598  0.1689
  103OSM    O1410392   1.821   0.794  10.918 -0.6759 -0.4097  0.7093
  103OSM    O1110393   1.720   0.790  10.690  0.0590 -0.0642  0.1971
  103OSM    O1210394   1.590   0.690  10.874  0.2114 -0.9109 -0.1342
  103OSM    C1S10395   1.613   0.802  10.599 -0.3886 -0.6691  0.6364
  103OSM    H1S10396   1.580   0.908  10.600  0.7255 -0.3172  0.4932
  103OSM    H1T10397   1.520   0.748  10.631 -1.8094  1.4279  0.2573
  103OSM     NF10398   1.537   0.765  10.360  0.2638  0.5561 -0.4444
  103OSM    HNF10399   1.472   0.690  10.351  1.5560 -1.0095  2.0880
  103OSM    C2S10400   1.647   0.739  10.454 -0.2693  0.0712  1.0253
  103OSM    H2S10401   1.738   0.787  10.411 -1.1503 -0.0509 -1.0506
  103OSM    C3S10402   1.685   0.590  10.462 -0.4303  1.2896  0.8809
  103OSM    H3S10403   1.598   0.530  10.498  1.1922 -0.7902  1.5689
  103OSM     O310404   1.780   0.560  10.561  0.3490  0.5517 -0.3219
  103OSM    HO310405   1.776   0.630  10.627 -3.2940 -0.6144  0.9464
  103OSM    C4S10406   1.737   0.538  10.326  0.1653  0.0242 -0.2231
  103OSM    H4S10407   1.838   0.570  10.298  0.3734 -0.3403  0.1138
  103OSM    C5S10408   1.664   0.446  10.257  0.9249  0.0016 -0.1030
  103OSM    H5S10409   1.564   0.418  10.295  0.0119  2.2523 -0.7094
  103OSM    C6S10410   1.697   0.382  10.124 -0.4079  0.5753  0.1078
  103OSM    H6S10411   1.609   0.387  10.056 -1.8245 -1.4048  1.6792
  103OSM    H6T10412   1.726   0.275  10.138 -0.8402  0.3002 -0.9840
  103OSM    C7S10413   1.804   0.451  10.050  0.0154  0.7524  0.4381
  103OSM    H7S10414   1.893   0.429  10.113 -1.2093 -2.0812  1.3583
  103OSM    H7T10415   1.788   0.560  10.040 -3.4318  0.7938  3.7523
  103OSM    C8S10416   1.805   0.399   9.912 -0.2840 -0.0717  0.7222
  103OSM    H8S10417   1.717   0.441   9.858 -1.1267 -0.0039  2.1122
  103OSM    H8T10418   1.789   0.290   9.908 -0.0732 -0.1266  1.3078
  103OSM    C9S10419   1.933   0.428   9.835  0.3938 -0.9049  0.1272
  103OSM    H9S10420   2.019   0.402   9.900 -0.3978 -2.3816  0.6318
  103OSM    H9T10421   1.938   0.533   9.799  2.2051 -0.4510  1.5793
  103OSM   C10S10422   1.941   0.345   9.700  0.6295  0.1860 -0.8448
  103OSM   H10S10423   1.902   0.242   9.711 -3.3522  1.3762 -1.7718
  103OSM   H10T10424   2.047   0.335   9.670  0.9901  0.8956  0.1425
  103OSM   C11S10425   1.852   0.392   9.583 -0.8189 -0.1804  0.1713
  103OSM   H11S10426   1.906   0.477   9.537  3.6527 -2.8807 -0.1544
  103OSM   H11T10427   1.747   0.424   9.603 -1.4545 -1.5988 -0.7401
  103OSM   C12S10428   1.848   0.285   9.474  0.3905  0.0721  0.2895
  103OSM   H12S10429   1.783   0.205   9.513  0.1931 -0.0824 -0.3509
  103OSM   H12T10430   1.955   0.254   9.467 -0.2313 -2.3619  0.8668
  103OSM   C13S10431   1.787   0.332   9.334 -0.1871 -0.4791 -0.5635
  103OSM   H13S10432   1.854   0.411   9.295 -0.1402  0.0718  0.5777
  103OSM   H13T10433   1.686   0.378   9.334 -1.5663 -3.2594  0.3890
  103OSM   C14S10434   1.784   0.213   9.234  0.2995 -0.4710 -0.4955
  103OSM   H14S10435   1.701   0.146   9.267  0.1056 -0.5195 -1.0811
  103OSM   H14T10436   1.883   0.164   9.240 -0.1405 -1.4718 -1.1956
  103OSM   C15S10437   1.756   0.257   9.087 -0.3471  0.0044  0.2003
  103OSM   H15S10438   1.656   0.298   9.061 -0.3466 -1.3569 -2.2530
  103OSM   H15T10439   1.765   0.170   9.020 -1.4548 -1.1055  1.4317
  103OSM   C16S10440   1.856   0.359   9.033 -0.6689  0.1016 -0.1324
  103OSM   H16S10441   1.958   0.332   9.065 -0.8291 -0.7911 -0.3435
  103OSM   H16T10442   1.827   0.462   9.063  1.8007  0.7397  0.2088
  103OSM   C17S10443   1.862   0.381   8.876  0.2629  0.2249  0.6149
  103OSM   H17S10444   1.764   0.423   8.846  0.8616  0.5492 -1.0033
  103OSM   H17T10445   1.879   0.289   8.815  1.1920  1.0906 -0.4679
  103OSM   C18S10446   1.954   0.486   8.837 -0.5215 -0.0803  0.3508
  103OSM   H18S10447   2.060   0.457   8.822 -1.2024 -1.2527 -3.1596
  103OSM   H18T10448   1.952   0.569   8.910  0.7504  0.6493 -0.3971
  103OSM   H18U10449   1.922   0.522   8.737  0.4729 -0.2303 -0.0407
  103OSM    C1F10450   1.500   0.890  10.332 -0.0163 -0.3084 -0.1412
  103OSM     OF10451   1.561   0.987  10.378 -0.2862  0.2095  0.1389
  103OSM    C2F10452   1.373   0.915  10.251  0.4232 -0.9187  0.7275
  103OSM    H2F10453   1.309   0.992  10.299 -0.2837  1.7721 -3.8953
  103OSM    H2G10454   1.305   0.828  10.242 -0.6899  0.1471 -2.4833
  103OSM    C3F10455   1.399   0.958  10.100  0.2151  0.7743 -0.7902
  103OSM    H3F10456   1.463   0.880  10.053  0.2877  0.0498  0.4605
  103OSM    H3G10457   1.458   1.052  10.100 -0.4912  1.2722  1.3023
  103OSM    C4F10458   1.272   1.001  10.026 -0.7275 -0.1907 -0.4404
  103OSM    H4F10459   1.252   1.096  10.080  0.0003  0.9721 -2.1518
  103OSM    H4G10460   1.189   0.937  10.064 -0.8405  1.0679  1.6079
  103OSM    C5F10461   1.292   1.004   9.877 -0.4251  0.6180 -1.0750
  103OSM    H5F10462   1.301   0.905   9.826 -0.4615  0.0452  0.0016
  103OSM    H5G10463   1.386   1.056   9.851  1.8629 -3.3029 -1.5346
  103OSM    C6F10464   1.168   1.071   9.814 -0.1880 -0.2727  0.1807
  103OSM    H6F10465   1.150   1.171   9.858  0.4388 -0.6964  1.4704
  103OSM    H6G10466   1.079   1.014   9.848  0.1159  0.4023  2.2387
  103OSM    C7F10467   1.163   1.076   9.661 -0.2313 -0.2116  0.1259
  103OSM    H7F10468   1.234   1.157   9.633  1.0250 -0.6835  1.7363
  103OSM    H7G10469   1.062   1.104   9.625 -1.1142 -0.7510  2.0552
  103OSM    C8F10470   1.188   0.940   9.583 -0.1367  0.4572 -0.8470
  103OSM    H8F10471   1.101   0.874   9.606 -0.1966  1.2547  1.4733
  103OSM    H8G10472   1.270   0.884   9.632 -1.5520 -1.2267 -0.2672
  103OSM    C9F10473   1.194   0.954   9.434  0.3335 -0.2618 -0.6101
  103OSM    H9F10474   1.116   1.018   9.390 -1.7739 -1.5494  1.0560
  103OSM   C10F10475   1.275   0.881   9.358 -0.3267  0.9123  0.0397
  103OSM   H10F10476   1.280   0.881   9.249  0.0001 -1.8742 -0.0110
  103OSM   C11F10477   1.376   0.779   9.406 -0.0656 -0.1118 -0.2232
  103OSM   H11F10478   1.439   0.804   9.495 -0.9039  1.0390  0.0850
  103OSM   H11G10479   1.449   0.763   9.325  0.4738  0.4698  0.1381
  103OSM   C12F10480   1.291   0.656   9.433 -0.1531  0.7530  0.4021
  103OSM   H12F10481   1.224   0.623   9.351 -0.9177  1.9081  0.5450
  103OSM   H12G10482   1.214   0.672   9.512  1.0957 -1.8270  2.2908
  103OSM   C13F10483   1.380   0.543   9.483 -0.3865 -0.3151 -0.2418
  103OSM   H13F10484   1.486   0.552   9.451 -1.0252  1.2514 -2.1256
  103OSM   H13G10485   1.334   0.450   9.443 -0.9056  0.3146 -1.1322
  103OSM   C14F10486   1.361   0.515   9.634  0.1316 -0.0497  0.1558
  103OSM   H14F10487   1.406   0.415   9.648 -1.4549 -0.7480  0.4658
  103OSM   H14G10488   1.255   0.513   9.670 -0.6600  0.9856 -1.9301
  103OSM   C15F10489   1.451   0.606   9.712  0.4069 -0.6127  0.0819
  103OSM   H15F10490   1.412   0.709   9.696  1.6537 -0.0604  0.4368
  103OSM   H15G10491   1.557   0.610   9.678 -0.3824  1.4451 -2.4105
  103OSM   C16F10492   1.462   0.574   9.855  0.7035 -0.0287  0.0983
  103OSM   H16F10493   1.531   0.639   9.914  0.8444  0.3670 -0.4932
  103OSM   H16G10494   1.502   0.471   9.868 -0.8258 -0.4822  1.4529
  103OSM   C17F10495   1.323   0.557   9.921 -0.3424 -0.1293  0.8091
  103OSM   H17F10496   1.289   0.457   9.884  1.9330 -0.3731 -0.8238
  103OSM   H17G10497   1.247   0.632   9.891  0.4323 -0.5195 -2.5451
  103OSM   C18F10498   1.334   0.562  10.074 -0.6199  0.1705 -0.1606
  103OSM   H18F10499   1.236   0.533  10.116 -1.9364 -0.0545 -3.1141
  103OSM   H18G10500   1.352   0.667  10.105 -1.7408  0.2261  0.3241
  103OSM   H18H10501   1.420   0.498  10.105 -0.7386 -0.1047 -0.3963
  104OSM      N10502   3.954   1.536  11.072 -0.4706  0.0038 -0.4355
  104OSM    C1510503   4.082   1.571  11.145  0.6079  0.0524  0.1102
  104OSM   H15A10504   4.062   1.586  11.250 -1.6331  0.6686 -0.3680
  104OSM   H15B10505   4.125   1.664  11.111  1.4795  0.5434  2.3497
  104OSM   H15C10506   4.152   1.490  11.130  3.4488  2.5368 -1.1446
  104OSM    C1410507   3.921   1.395  11.097  0.1133  0.3504  0.0477
  104OSM   H14A10508   3.817   1.371  11.083  0.3959 -1.1298  0.2446
  104OSM   H14B10509   3.935   1.369  11.201 -1.5480 -0.9408 -0.0042
  104OSM   H14C10510   3.988   1.332  11.040 -0.3821  1.7541 -2.1906
  104OSM    C1310511   3.845   1.624  11.136 -0.4180  0.1522  0.6038
  104OSM   H13A10512   3.861   1.726  11.104 -1.6916 -0.1743 -1.2368
  104OSM   H13B10513   3.839   1.619  11.243 -1.8632  1.8852  0.6381
  104OSM   H13C10514   3.750   1.590  11.097 -0.0451  0.2311 -0.4135
  104OSM    C1210515   3.974   1.569  10.926 -0.4769  0.1911 -0.2799
  104OSM   H12A10516   3.974   1.675  10.909 -4.4792  0.2266 -1.1141
  104OSM   H12B10517   3.877   1.542  10.887 -0.0069  0.2967 -1.5625
  104OSM    C1110518   4.084   1.497  10.848  0.1178 -0.2911  0.1521
  104OSM   H11A10519   4.185   1.515  10.890  0.3396  2.1175 -1.2183
  104OSM   H11B10520   4.089   1.552  10.751 -1.1207 -2.0605 -0.9879
  104OSM      P10521   3.960   1.302  10.721  0.1236 -0.4363  0.0918
  104OSM    O1310522   3.938   1.155  10.745 -0.2774 -0.0871  0.2822
  104OSM    O1410523   3.837   1.385  10.716 -0.2787 -0.5366  1.1956
  104OSM    O1110524   4.042   1.330  10.588  0.2792  0.0752 -0.3640
  104OSM    O1210525   4.061   1.355  10.835  0.1609 -0.1198 -0.3720
  104OSM    C1S10526   4.178   1.295  10.583 -0.9766  0.2017  0.3062
  104OSM    H1S10527   4.191   1.185  10.574 -2.2426  0.1315 -1.0651
  104OSM    H1T10528   4.232   1.330  10.674  2.4444  1.7701 -2.0999
  104OSM     NF10529   4.389   1.324  10.444 -0.2650 -0.0560  0.2031
  104OSM    HNF10530   4.448   1.405  10.444  1.4545 -1.2489  1.3397
  104OSM    C2S10531   4.250   1.351  10.446  0.0077  0.8186  0.1674
  104OSM    H2S10532   4.199   1.302  10.361  0.3776 -1.1378  1.0090
  104OSM    C3S10533   4.213   1.506  10.425 -0.0947 -0.3645 -0.4749
  104OSM    H3S10534   4.265   1.555  10.511 -1.0613 -1.2939  0.6822
  104OSM     O310535   4.074   1.545  10.438 -0.2264  0.2701  0.1642
  104OSM    HO310536   4.040   1.466  10.481  1.0349 -0.1021  0.5213
  104OSM    C4S10537   4.266   1.555  10.294 -0.1500 -0.2105  0.5839
  104OSM    H4S10538   4.216   1.503  10.210 -0.4933 -1.5994  1.6055
  104OSM    C5S10539   4.346   1.665  10.270 -1.0075  0.0466  0.0109
  104OSM    H5S10540   4.387   1.724  10.354 -4.0010  1.6803  0.4613
  104OSM    C6S10541   4.396   1.721  10.136 -0.0918 -0.3523 -0.0746
  104OSM    H6S10542   4.506   1.716  10.127 -0.1842 -0.3688 -1.4970
  104OSM    H6T10543   4.373   1.830  10.137  1.8486  0.2009 -3.1468
  104OSM    C7S10544   4.334   1.664  10.004 -0.2744  0.2507  0.5111
  104OSM    H7S10545   4.224   1.649  10.014 -0.2959  0.8580  1.2521
  104OSM    H7T10546   4.387   1.576   9.963  2.4233  2.8798 -2.1746
  104OSM    C8S10547   4.344   1.772   9.893  0.4045  0.4886  0.4650
  104OSM    H8S10548   4.454   1.788   9.883  0.3894  0.0134 -0.6136
  104OSM    H8T10549   4.302   1.872   9.919  1.3731  1.3815 -1.2250
  104OSM    C9S10550   4.292   1.734   9.752  0.0254 -0.5194 -0.3055
  104OSM    H9S10551   4.183   1.715   9.744 -0.2091  0.2609  0.9120
  104OSM    H9T10552   4.335   1.633   9.734 -1.1390 -1.1085  0.1035
  104OSM   C10S10553   4.349   1.821   9.636  0.8619  0.2480  0.4286
  104OSM   H10S10554   4.460   1.811   9.643  0.9217  1.0755  0.6332
  104OSM   H10T10555   4.314   1.922   9.664 -2.7620 -1.1099  1.3524
  104OSM   C11S10556   4.303   1.782   9.498  0.1473 -0.2372  0.7904
  104OSM   H11S10557   4.192   1.789   9.493  0.0312 -1.8020  0.5152
  104OSM   H11T10558   4.320   1.677   9.467  1.1527  0.2008 -0.2173
  104OSM   C12S10559   4.345   1.881   9.385 -0.7549  0.1987  0.6079
  104OSM   H12S10560   4.454   1.901   9.387 -1.0866  2.7672 -1.7978
  104OSM   H12T10561   4.291   1.978   9.393 -0.9993 -0.0481  2.3307
  104OSM   C13S10562   4.309   1.818   9.254  0.1552  0.6839  0.6847
  104OSM   H13S10563   4.205   1.781   9.258  0.6829 -1.0074 -0.2810
  104OSM   H13T10564   4.379   1.732   9.246  0.7543  0.8688  3.0106
  104OSM   C14S10565   4.334   1.911   9.134 -0.5739  0.1103 -0.4143
  104OSM   H14S10566   4.444   1.918   9.117 -0.2004 -2.7732  0.2702
  104OSM   H14T10567   4.295   2.015   9.139 -1.8777 -0.3773  3.6192
  104OSM   C15S10568   4.297   1.838   9.005 -0.2806  0.0567  0.2072
  104OSM   H15S10569   4.190   1.809   9.003 -0.0645 -1.0067  1.9587
  104OSM   H15T10570   4.350   1.740   8.996 -1.0063 -0.1486 -3.0828
  104OSM   C16S10571   4.320   1.931   8.886 -0.1274 -0.1019 -0.8234
  104OSM   H16S10572   4.267   2.027   8.902  1.3713  0.5421  0.5598
  104OSM   H16T10573   4.274   1.871   8.805  0.9084 -1.5592 -0.3895
  104OSM   C17S10574   4.472   1.941   8.865 -0.5249 -0.3115 -0.0050
  104OSM   H17S10575   4.491   1.835   8.836 -1.2856 -0.3289 -0.4733
  104OSM   H17T10576   4.533   1.988   8.945 -0.2005 -0.9280  0.1160
  104OSM   C18S10577   4.505   2.033   8.747 -0.6055 -0.6638 -0.4761
  104OSM   H18S10578   4.613   2.026   8.725 -0.4724  0.8124 -0.4191
  104OSM   H18T10579   4.489   2.141   8.770  1.7110 -0.1529 -1.0066
  104OSM   H18U10580   4.441   2.006   8.660 -1.6319 -1.0526  0.3676
  104OSM    C1F10581   4.454   1.210  10.441  0.3368  0.4226  0.3464
  104OSM     OF10582   4.396   1.099  10.438  0.5039 -0.4156 -0.1848
  104OSM    C2F10583   4.606   1.211  10.444 -0.8642  0.7621 -0.6589
  104OSM    H2F10584   4.638   1.114  10.489 -1.0641 -0.1952 -2.4413
  104OSM    H2G10585   4.650   1.295  10.501  0.6738 -1.4236  1.5888
  104OSM    C3F10586   4.664   1.212  10.296  0.4506 -0.1762  0.7211
  104OSM    H3F10587   4.775   1.207  10.300  0.5463  1.7720  1.1495
  104OSM    H3G10588   4.631   1.311  10.259 -0.9503 -0.9060 -0.1027
  104OSM    C4F10589   4.602   1.100  10.206  0.1708 -0.2550  0.2431
  104OSM    H4F10590   4.493   1.121  10.205 -0.1657 -1.5920  2.3561
  104OSM    H4G10591   4.606   1.003  10.259  1.1195 -0.9709 -1.0772
  104OSM    C5F10592   4.666   1.073  10.066  0.3689 -0.1011 -0.3911
  104OSM    H5F10593   4.776   1.061  10.078  0.3653 -0.3787 -0.6368
  104OSM    H5G10594   4.628   1.153   9.999  0.8300  0.1643 -0.3408
  104OSM    C6F10595   4.619   0.940  10.012  0.4231 -0.4253  0.6734
  104OSM    H6F10596   4.651   0.863  10.086  0.7602 -1.6826 -0.7184
  104OSM    H6G10597   4.663   0.923   9.911 -1.0082 -3.5074  0.4559
  104OSM    C7F10598   4.464   0.935   9.992  0.0672  0.0389 -0.5939
  104OSM    H7F10599   4.416   1.033   9.972  2.8439  1.5225 -0.5761
  104OSM    H7G10600   4.425   0.907  10.092  0.5296 -0.7134 -0.6102
  104OSM    C8F10601   4.423   0.820   9.886 -0.5211 -0.5994  0.3902
  104OSM    H8F10602   4.485   0.731   9.911 -0.0708  0.0342  1.6172
  104OSM    H8G10603   4.452   0.859   9.787  0.9821  0.1200  1.0813
  104OSM    C9F10604   4.273   0.794   9.897 -0.4750 -0.2065  0.2293
  104OSM    H9F10605   4.220   0.839   9.982  0.2377  0.3966  0.3619
  104OSM   C10F10606   4.204   0.713   9.808 -0.6849  0.9298 -0.5077
  104OSM   H10F10607   4.095   0.702   9.818 -0.3961  0.2176  3.2293
  104OSM   C11F10608   4.269   0.647   9.688 -0.4382  0.0098 -0.6347
  104OSM   H11F10609   4.265   0.536   9.684  1.7059 -0.0762 -1.5224
  104OSM   H11G10610   4.379   0.660   9.688 -0.5544  1.1536  0.3199
  104OSM   C12F10611   4.224   0.679   9.543  0.7357 -0.3588 -0.0244
  104OSM   H12F10612   4.263   0.779   9.516 -0.4077  0.3751  0.9071
  104OSM   H12G10613   4.113   0.680   9.534  0.7467 -3.1961 -1.8421
  104OSM   C13F10614   4.273   0.579   9.445 -0.8103 -0.7282 -0.2701
  104OSM   H13F10615   4.207   0.491   9.454  0.7147 -1.9781 -0.8272
  104OSM   H13G10616   4.373   0.546   9.479  0.5510  2.1995 -1.0438
  104OSM   C14F10617   4.289   0.622   9.303  0.1098 -0.3988 -0.0322
  104OSM   H14F10618   4.332   0.548   9.232  1.1582  0.7854 -0.6813
  104OSM   H14G10619   4.354   0.712   9.301  0.7183 -0.8310  0.0761
  104OSM   C15F10620   4.161   0.657   9.229 -0.2221 -0.2562  0.5548
  104OSM   H15F10621   4.110   0.742   9.280  0.0377  0.0034  0.3883
  104OSM   H15G10622   4.092   0.571   9.233 -1.4694  0.6581 -0.6272
  104OSM   C16F10623   4.188   0.696   9.082 -0.7583 -0.2473  0.1588
  104OSM   H16F10624   4.248   0.612   9.041  1.8579  0.5858  1.9566
  104OSM   H16G10625   4.257   0.783   9.080 -1.9482  0.7093 -0.8957
  104OSM   C17F10626   4.062   0.706   8.996  0.2102  0.1441 -0.4153
  104OSM   H17F10627   4.084   0.744   8.893  1.2925  1.3256  0.2268
  104OSM   H17G10628   4.000   0.778   9.054  1.4849  0.1980  0.9198
  104OSM   C18F10629   3.996   0.569   8.978  0.0077 -0.2194  0.3187
  104OSM   H18F10630   4.050   0.502   8.908  2.4383 -0.0210  1.8804
  104OSM   H18G10631   3.900   0.586   8.926 -0.1478 -2.2540 -0.1286
  104OSM   H18H10632   3.973   0.514   9.072 -0.8130  1.3088  1.0426
  105OSM      N10633   0.449   1.619  11.274 -0.2560  0.0429  0.7648
  105OSM    C1510634   0.414   1.480  11.308 -0.6165  0.8037 -0.1927
  105OSM   H15A10635   0.426   1.454  11.412  0.8822  0.1455 -0.5078
  105OSM   H15B10636   0.480   1.412  11.256  0.4365  1.4125  0.3299
  105OSM   H15C10637   0.316   1.471  11.262 -0.2835  0.0083 -0.7810
  105OSM    C1410638   0.369   1.714  11.357 -0.3760  0.1455  0.3478
  105OSM   H14A10639   0.392   1.709  11.463  0.9412  0.5414  0.0937
  105OSM   H14B10640   0.263   1.705  11.336 -0.2090 -1.1712 -0.0186
  105OSM   H14C10641   0.384   1.818  11.331 -0.6918  0.4928  1.4609
  105OSM    C1310642   0.595   1.646  11.308  0.2435  0.9249  0.6029
  105OSM   H13A10643   0.618   1.617  11.410  1.4423 -2.0767 -0.4072
  105OSM   H13B10644   0.625   1.749  11.293 -1.1963  1.2798  0.0287
  105OSM   H13C10645   0.659   1.583  11.248  0.6292  2.5631 -0.7732
  105OSM    C1210646   0.426   1.653  11.126 -0.0646  0.1853  1.0156
  105OSM   H12A10647   0.496   1.592  11.071  1.6964  2.4364  0.6057
  105OSM   H12B10648   0.459   1.752  11.098 -0.3112 -0.5628 -2.2775
  105OSM    C1110649   0.283   1.629  11.070  0.4496 -0.7326  0.5763
  105OSM   H11A10650   0.286   1.687  10.975  1.8210 -2.3458 -0.4091
  105OSM   H11B10651   0.220   1.682  11.145  2.2609  0.3064  1.4306
  105OSM      P10652   0.291   1.411  10.938 -0.1491 -0.0214 -0.7236
  105OSM    O1310653   0.431   1.361  10.955  0.2862  0.0121 -0.0021
  105OSM    O1410654   0.183   1.309  10.906  0.6167 -0.3100  0.2548
  105OSM    O1110655   0.291   1.526  10.833  0.2007 -0.4870  0.0540
  105OSM    O1210656   0.243   1.492  11.061 -0.2443 -0.5959 -0.1178
  105OSM    C1S10657   0.175   1.545  10.756 -0.4940 -0.1468 -0.3975
  105OSM    H1S10658   0.096   1.584  10.823 -0.0556 -0.5363  0.3482
  105OSM    H1T10659   0.144   1.456  10.697 -2.1643 -2.5569  3.7046
  105OSM     NF10660   0.087   1.658  10.580  0.6868  0.1377  0.0059
  105OSM    HNF10661   0.091   1.625  10.485 -1.1794 -2.4131  0.6902
  105OSM    C2S10662   0.204   1.657  10.660 -0.4557  0.0955  0.3669
  105OSM    H2S10663   0.211   1.745  10.728  0.2803  0.4350 -0.1463
  105OSM    C3S10664   0.341   1.641  10.591 -0.2402 -0.4344  0.4967
  105OSM    H3S10665   0.346   1.539  10.547 -1.5337 -0.1124 -0.4457
  105OSM     O310666   0.454   1.663  10.670 -0.0050 -0.1749 -0.1019
  105OSM    HO310667   0.411   1.638  10.752 -1.4174 -0.7845 -0.9773
  105OSM    C4S10668   0.345   1.736  10.474 -0.3783 -0.6451 -0.0007
  105OSM    H4S10669   0.363   1.841  10.501 -0.3886 -0.8316  0.7491
  105OSM    C5S10670   0.337   1.699  10.339  0.2088 -0.0475 -1.1413
  105OSM    H5S10671   0.353   1.595  10.306  2.2912  0.3433 -1.5560
  105OSM    C6S10672   0.329   1.805  10.236 -0.3937  0.4225 -0.0732
  105OSM    H6S10673   0.433   1.835  10.208  0.4805 -0.5762  1.9062
  105OSM    H6T10674   0.291   1.899  10.280  2.4674  2.5790 -1.8381
  105OSM    C7S10675   0.236   1.777  10.115 -0.3614  0.5507  0.2139
  105OSM    H7S10676   0.139   1.745  10.160 -1.3038 -2.2879 -3.4490
  105OSM    H7T10677   0.275   1.694  10.053  0.1885  1.4428 -0.6547
  105OSM    C8S10678   0.201   1.904  10.037 -0.3521  0.4953 -0.3104
  105OSM    H8S10679   0.294   1.963  10.025 -0.7910  1.7274  1.8114
  105OSM    H8T10680   0.128   1.956  10.103 -1.7670 -0.6093 -0.9495
  105OSM    C9S10681   0.135   1.882   9.897 -0.0811 -0.6252  0.2963
  105OSM    H9S10682   0.025   1.889   9.911 -0.0838  2.6203 -0.4892
  105OSM    H9T10683   0.152   1.774   9.877  1.6073 -0.6490  1.5971
  105OSM   C10S10684   0.194   1.970   9.782  0.6371  0.0533  0.7398
  105OSM   H10S10685   0.305   1.964   9.781  0.8836  2.4614 -2.5213
  105OSM   H10T10686   0.172   2.078   9.797 -0.0109  0.2365 -1.2739
  105OSM   C11S10687   0.126   1.926   9.653 -0.8278  0.2874  0.0260
  105OSM   H11S10688   0.016   1.934   9.661 -0.7775 -0.8200  3.0687
  105OSM   H11T10689   0.150   1.819   9.634 -3.0949 -0.4639  1.1200
  105OSM   C12S10690   0.173   2.015   9.539  0.3546 -0.1757  0.0002
  105OSM   H12S10691   0.273   2.059   9.559  0.6239  0.0247 -1.6650
  105OSM   H12T10692   0.113   2.108   9.547  0.1952  0.0872 -3.1201
  105OSM   C13S10693   0.156   1.950   9.403  0.2238 -0.2289  0.2875
  105OSM   H13S10694   0.062   1.892   9.388  1.5293 -1.9435 -1.7798
  105OSM   H13T10695   0.232   1.870   9.390  1.1164  0.4847  1.0032
  105OSM   C14S10696   0.178   2.052   9.292  0.7806 -0.2836 -0.3265
  105OSM   H14S10697   0.185   1.998   9.196 -0.5528 -1.8820  0.4150
  105OSM   H14T10698   0.275   2.101   9.314  0.4400 -0.1463  0.9802
  105OSM   C15S10699   0.066   2.156   9.280 -0.6037 -0.4925  0.2298
  105OSM   H15S10700   0.074   2.223   9.369 -1.4316 -0.2142  0.0973
  105OSM   H15T10701  -0.033   2.107   9.284 -2.3040  2.7166  2.6587
  105OSM   C16S10702   0.075   2.247   9.157 -0.3172 -0.1297  0.0648
  105OSM   H16S10703   0.080   2.186   9.064  3.8969 -1.5461  0.9844
  105OSM   H16T10704   0.173   2.298   9.166 -0.7062  0.8755 -1.1255
  105OSM   C17S10705  -0.037   2.343   9.143  0.1414 -0.4075 -0.6539
  105OSM   H17S10706  -0.130   2.283   9.147  0.3479 -0.6797  0.5130
  105OSM   H17T10707  -0.039   2.393   9.044  2.2563  0.4522 -0.3294
  105OSM   C18S10708  -0.039   2.465   9.232  0.3872  1.2471  0.1199
  105OSM   H18S10709  -0.128   2.526   9.205 -1.3422 -1.0039  0.4490
  105OSM   H18T10710   0.045   2.534   9.211  0.1723  0.6932 -2.9899
  105OSM   H18U10711  -0.044   2.430   9.338 -0.0619 -2.0725 -0.8781
  105OSM    C1F10712  -0.043   1.675  10.609 -0.3019 -0.1312 -0.7394
  105OSM     OF10713  -0.093   1.697  10.720  0.0081 -0.1200 -0.1181
  105OSM    C2F10714  -0.142   1.658  10.503  0.2226 -0.0392  0.4730
  105OSM    H2F10715  -0.244   1.675  10.542  0.0307  0.5346 -0.2585
  105OSM    H2G10716  -0.138   1.555  10.463 -0.3563  0.2531 -0.3829
  105OSM    C3F10717  -0.109   1.754  10.381 -0.3541 -0.6288 -0.1117
  105OSM    H3F10718  -0.004   1.740  10.349  0.0889 -0.4274  1.2035
  105OSM    H3G10719  -0.119   1.857  10.423 -0.9863 -1.3522  1.6037
  105OSM    C4F10720  -0.213   1.747  10.264  0.2270  0.8968 -0.2270
  105OSM    H4F10721  -0.307   1.782  10.312  0.2122  1.0538 -0.3679
  105OSM    H4G10722  -0.238   1.642  10.238 -0.5237  1.2192 -0.8533
  105OSM    C5F10723  -0.157   1.832  10.144  0.0648 -0.7548 -0.0482
  105OSM    H5F10724  -0.083   1.760  10.104 -1.6583 -3.6711  1.6517
  105OSM    H5G10725  -0.104   1.924  10.177 -0.7334 -0.2286 -0.1888
  105OSM    C6F10726  -0.270   1.857  10.038  0.8316  0.0947 -0.1767
  105OSM    H6F10727  -0.253   1.957   9.992  0.5693  0.7559  1.1027
  105OSM    H6G10728  -0.370   1.859  10.087  0.1166  1.8248 -1.6207
  105OSM    C7F10729  -0.271   1.742   9.933  0.6846  0.0660 -0.4961
  105OSM    H7F10730  -0.284   1.645   9.985 -0.1874 -0.2475 -1.2541
  105OSM    H7G10731  -0.171   1.752   9.887  0.9533  2.4975  0.4732
  105OSM    C8F10732  -0.385   1.754   9.833  0.9306 -0.1792  1.1321
  105OSM    H8F10733  -0.487   1.749   9.879  0.5659  1.6084  0.5887
  105OSM    H8G10734  -0.374   1.669   9.763  1.4701  1.8729 -1.4383
  105OSM    C9F10735  -0.378   1.882   9.755  0.0190 -0.3573  0.0163
  105OSM    H9F10736  -0.431   1.969   9.797  0.5863 -0.3439  0.7106
  105OSM   C10F10737  -0.320   1.897   9.636  0.1412  0.1198  0.2586
  105OSM   H10F10738  -0.314   1.997   9.591  0.2536 -0.3357 -0.7826
  105OSM   C11F10739  -0.259   1.789   9.553  0.4521 -0.5963 -0.1710
  105OSM   H11F10740  -0.289   1.688   9.589 -0.1023 -0.4375 -0.1825
  105OSM   H11G10741  -0.148   1.794   9.561  0.3483  1.0073  0.5889
  105OSM   C12F10742  -0.318   1.770   9.409  0.8956 -0.4546  0.5678
  105OSM   H12F10743  -0.412   1.713   9.417  1.7245 -1.8713  0.4878
  105OSM   H12G10744  -0.241   1.706   9.360  1.2490 -0.0221  0.5447
  105OSM   C13F10745  -0.327   1.896   9.325 -0.1782 -0.0522 -0.6706
  105OSM   H13F10746  -0.224   1.933   9.309  0.4843 -1.7248 -0.4277
  105OSM   H13G10747  -0.387   1.979   9.367  0.8879 -0.5228  1.9443
  105OSM   C14F10748  -0.384   1.866   9.188 -0.8964  0.8255  1.0503
  105OSM   H14F10749  -0.395   1.957   9.125 -3.1175 -0.5928 -0.7461
  105OSM   H14G10750  -0.488   1.828   9.200 -0.8249 -0.2366 -1.2114
  105OSM   C15F10751  -0.308   1.751   9.113 -0.8760 -0.1756  0.0560
  105OSM   H15F10752  -0.354   1.738   9.013  1.5524  0.7409 -1.2559
  105OSM   H15G10753  -0.329   1.656   9.167  0.8864 -1.5250 -1.5102
  105OSM   C16F10754  -0.152   1.770   9.097 -0.2835  0.1939  0.3861
  105OSM   H16F10755  -0.107   1.785   9.197  0.9070  1.4878 -0.3010
  105OSM   H16G10756  -0.129   1.855   9.029 -1.8834 -1.2839 -2.1501
  105OSM   C17F10757  -0.086   1.642   9.038 -0.9216 -0.5805 -0.3718
  105OSM   H17F10758  -0.120   1.628   8.933  0.9146 -1.8248 -0.8484
  105OSM   H17G10759  -0.119   1.561   9.106  0.0342  0.6546  1.6514
  105OSM   C18F10760   0.070   1.656   9.035 -0.5362  0.2727 -0.5805
  105OSM   H18F10761   0.116   1.713   9.119  0.2607 -0.8628 -0.2346
  105OSM   H18G10762   0.097   1.716   8.946 -3.0760  3.5015  0.5702
  105OSM   H18H10763   0.113   1.554   9.028 -0.8336  0.1835 -1.1807
  106OSM      N10764   5.248   2.726  10.851 -0.5189  0.0915 -0.9965
  106OSM    C1510765   5.139   2.818  10.900 -0.4944  0.4289  0.3385
  106OSM   H15A10766   5.137   2.827  11.007  0.6549  0.5909  0.3640
  106OSM   H15B10767   5.047   2.778  10.860  0.9379 -3.3701  0.4472
  106OSM   H15C10768   5.155   2.919  10.864 -0.3777  0.8464  1.5126
  106OSM    C1410769   5.374   2.798  10.893  0.1907 -1.0003  0.8674
  106OSM   H14A10770   5.466   2.743  10.906  1.5866  0.3802 -2.1970
  106OSM   H14B10771   5.367   2.830  10.996  1.0961 -0.2753  0.7158
  106OSM   H14C10772   5.393   2.887  10.834 -0.5806 -1.8067 -0.6400
  106OSM    C1310773   5.224   2.598  10.927 -0.4406 -0.5517 -0.3698
  106OSM   H13A10774   5.118   2.578  10.914 -0.4880 -0.8488  0.4109
  106OSM   H13B10775   5.238   2.612  11.033  0.0759  0.4651 -0.5655
  106OSM   H13C10776   5.287   2.516  10.895  1.4132  0.5210  0.4125
  106OSM    C1210777   5.248   2.703  10.700  0.0664 -0.0870  0.1376
  106OSM   H12A10778   5.248   2.798  10.648  0.3489 -0.1380  0.0441
  106OSM   H12B10779   5.154   2.656  10.676 -0.4215  0.2731  1.2949
  106OSM    C1110780   5.355   2.618  10.628 -0.5279 -0.3468  0.3089
  106OSM   H11A10781   5.447   2.680  10.618 -1.2932  0.9194  0.9569
  106OSM   H11B10782   5.328   2.592  10.523  0.4851  0.6810 -0.2246
  106OSM      P10783   5.516   2.433  10.718  0.0613  0.3003 -0.1139
  106OSM    O1310784   5.591   2.508  10.822  0.2861 -0.2611  0.1502
  106OSM    O1410785   5.488   2.289  10.741 -0.3430  0.1935  0.0133
  106OSM    O1110786   5.572   2.455  10.574  0.5748 -0.4762  0.0031
  106OSM    O1210787   5.381   2.503  10.708 -0.1425  0.2163  0.2716
  106OSM    C1S10788   5.517   2.387  10.459  0.3377  0.2324 -0.7558
  106OSM    H1S10789   5.410   2.357  10.468  0.5127  0.2754  3.3632
  106OSM    H1T10790   5.581   2.299  10.439  2.7391  1.9697 -1.2456
  106OSM     NF10791   5.450   2.428  10.222  0.0834 -0.2989 -0.0832
  106OSM    HNF10792   5.514   2.381  10.162  0.0319 -1.3187  0.6411
  106OSM    C2S10793   5.529   2.481  10.333 -0.0363 -0.3574 -0.2031
  106OSM    H2S10794   5.480   2.578  10.359 -0.4638 -0.5983 -0.1023
  106OSM    C3S10795   5.675   2.521  10.289  0.3743 -0.4047 -0.2776
  106OSM    H3S10796   5.749   2.438  10.297  4.6240  3.1451  1.6489
  106OSM     O310797   5.738   2.610  10.379 -0.2043 -0.1622 -0.0014
  106OSM    HO310798   5.691   2.607  10.463 -0.0066  2.2034  0.2488
  106OSM    C4S10799   5.678   2.580  10.152  1.1565  0.0940  0.2097
  106OSM    H4S10800   5.639   2.681  10.135  2.5511  0.8166  1.0770
  106OSM    C5S10801   5.730   2.517  10.052 -0.0064  0.0727 -0.3293
  106OSM    H5S10802   5.773   2.419  10.075 -0.2209  0.0507 -0.0221
  106OSM    C6S10803   5.730   2.565   9.911  0.3849  0.0563 -0.2843
  106OSM    H6S10804   5.656   2.646   9.894  2.8102  3.2859  2.8723
  106OSM    H6T10805   5.692   2.473   9.862  1.5742 -2.7413  3.5342
  106OSM    C7S10806   5.865   2.611   9.865 -0.5728  0.1263 -0.5884
  106OSM    H7S10807   5.943   2.532   9.869  0.5265  0.9747 -3.1124
  106OSM    H7T10808   5.888   2.700   9.928 -0.0891 -0.5484  0.2039
  106OSM    C8S10809   5.845   2.645   9.716  0.2965  0.0067 -0.1339
  106OSM    H8S10810   5.798   2.745   9.715 -0.5956 -0.3743  1.3564
  106OSM    H8T10811   5.782   2.562   9.676 -0.8453  1.0654 -0.6072
  106OSM    C9S10812   5.973   2.651   9.639  0.2990  0.4105  0.0903
  106OSM    H9S10813   6.034   2.558   9.643  0.7805  0.6740 -0.8158
  106OSM    H9T10814   6.043   2.722   9.691  0.5591  0.4363 -0.2925
  106OSM   C10S10815   5.952   2.692   9.497  0.9277 -0.2265 -0.4968
  106OSM   H10S10816   6.051   2.685   9.447  1.7498  1.5394  0.7763
  106OSM   H10T10817   5.918   2.797   9.507  3.4357  0.5337  1.2489
  106OSM   C11S10818   5.857   2.598   9.418 -0.1077 -0.8560  0.0319
  106OSM   H11S10819   5.760   2.622   9.467 -0.2434  0.5006 -0.8566
  106OSM   H11T10820   5.873   2.489   9.435  0.2224 -0.7090  0.6689
  106OSM   C12S10821   5.829   2.646   9.277 -0.2334 -0.4808 -0.0075
  106OSM   H12S10822   5.824   2.757   9.279  2.1470 -0.1984 -2.9143
  106OSM   H12T10823   5.731   2.605   9.245 -0.4644 -0.0929  0.1864
  106OSM   C13S10824   5.928   2.603   9.177 -0.7373  0.2303 -0.0674
  106OSM   H13S10825   5.949   2.495   9.190 -0.0082 -0.0655 -3.1144
  106OSM   H13T10826   6.028   2.651   9.185  0.1444 -1.5229 -0.3032
  106OSM   C14S10827   5.872   2.640   9.039  0.1973 -0.4049  0.2052
  106OSM   H14S10828   5.948   2.706   8.991  0.0330 -0.3960 -0.0445
  106OSM   H14T10829   5.776   2.696   9.041  0.2168 -0.3076 -1.0271
  106OSM   C15S10830   5.848   2.517   8.958 -0.1824 -0.3071 -0.0158
  106OSM   H15S10831   5.803   2.553   8.863 -1.4729  0.3562  0.8330
  106OSM   H15T10832   5.783   2.442   9.007 -0.5868  1.2550  1.9390
  106OSM   C16S10833   5.987   2.453   8.917 -0.1033  0.5837  0.5964
  106OSM   H16S10834   6.034   2.406   9.006 -0.5562 -2.3841 -0.6421
  106OSM   H16T10835   6.056   2.528   8.873  1.4964 -1.8686 -1.2826
  106OSM   C17S10836   5.965   2.348   8.806 -0.4209  0.3268 -0.0659
  106OSM   H17S10837   6.060   2.295   8.780 -0.4227 -0.0973  0.7698
  106OSM   H17T10838   5.947   2.400   8.709 -3.5876 -1.5778 -0.6146
  106OSM   C18S10839   5.861   2.244   8.830 -0.1126  1.0233 -0.3394
  106OSM   H18S10840   5.758   2.278   8.806 -1.1690 -0.0797  2.3046
  106OSM   H18T10841   5.869   2.207   8.934 -2.6415  1.4387  0.0590
  106OSM   H18U10842   5.876   2.160   8.759  1.9749  0.7330  0.3735
  106OSM    C1F10843   5.316   2.405  10.222  0.5892  0.1213 -0.4039
  106OSM     OF10844   5.245   2.430  10.320 -0.1093  0.2934  0.0937
  106OSM    C2F10845   5.256   2.324  10.108  0.7623 -0.7770  0.4378
  106OSM    H2F10846   5.299   2.224  10.088  1.6474 -0.2827 -0.2296
  106OSM    H2G10847   5.269   2.392  10.020  0.9918 -0.9623  0.3269
  106OSM    C3F10848   5.101   2.297  10.119 -0.1393 -0.7333  0.1994
  106OSM    H3F10849   5.054   2.391  10.156  2.5834 -0.3456  3.0857
  106OSM    H3G10850   5.073   2.218  10.192  1.3326 -1.3261  0.1636
  106OSM    C4F10851   5.027   2.247   9.989 -1.0878  0.4415  0.4539
  106OSM    H4F10852   4.918   2.237  10.008 -1.0865  0.5142  0.5044
  106OSM    H4G10853   5.066   2.147   9.965 -1.6611  0.3096  0.0468
  106OSM    C5F10854   5.033   2.335   9.860 -0.4935 -0.2517 -0.1892
  106OSM    H5F10855   5.136   2.345   9.819 -0.2991  1.2415  0.5863
  106OSM    H5G10856   4.992   2.430   9.902 -1.0009 -0.9505  0.9629
  106OSM    C6F10857   4.943   2.288   9.745 -0.0826  0.0750  0.6859
  106OSM    H6F10858   4.837   2.300   9.777 -0.8761 -0.1352 -1.6663
  106OSM    H6G10859   4.968   2.181   9.726  1.3075  0.3419  0.8617
  106OSM    C7F10860   4.962   2.372   9.619  0.3506  0.0982 -0.3723
  106OSM    H7F10861   4.961   2.479   9.647 -0.3643  0.5358 -1.9326
  106OSM    H7G10862   4.883   2.352   9.543  2.0249 -0.4761 -2.0615
  106OSM    C8F10863   5.089   2.338   9.536 -0.3080 -0.3736  0.3421
  106OSM    H8F10864   5.084   2.234   9.495 -0.0779  0.5462 -2.2103
  106OSM    H8G10865   5.169   2.333   9.614  0.8730 -0.1851 -0.8192
  106OSM    C9F10866   5.114   2.439   9.425  0.0488 -0.5807  0.0697
  106OSM    H9F10867   5.171   2.522   9.468 -0.0443 -0.8140  0.6582
  106OSM   C10F10868   5.059   2.446   9.304 -0.1458 -0.9645 -0.0967
  106OSM   H10F10869   5.077   2.527   9.231  0.5913 -0.4546  0.6241
  106OSM   C11F10870   4.957   2.356   9.241 -0.4805  0.0694  0.6756
  106OSM   H11F10871   4.861   2.412   9.240 -1.2827 -1.2831 -0.5127
  106OSM   H11G10872   4.944   2.257   9.290 -2.3215 -0.6539 -1.1316
  106OSM   C12F10873   4.996   2.330   9.094  0.0293  0.3673 -0.4745
  106OSM   H12F10874   4.932   2.246   9.061  0.4783  0.0508 -0.5588
  106OSM   H12G10875   5.099   2.291   9.079 -0.1206 -0.3855  0.4028
  106OSM   C13F10876   4.971   2.451   9.003 -0.4848  0.0315 -0.2762
  106OSM   H13F10877   5.043   2.526   9.042  1.3270 -1.6635 -0.1726
  106OSM   H13G10878   4.865   2.482   9.008 -0.4022  0.3117 -0.2702
  106OSM   C14F10879   5.025   2.417   8.869 -0.0285 -0.3638 -0.3654
  106OSM   H14F10880   5.127   2.375   8.875  0.1960  0.2806  0.6505
  106OSM   H14G10881   5.038   2.513   8.815  0.3336 -0.8386 -1.1377
  106OSM   C15F10882   4.939   2.325   8.788  0.3008 -0.0210 -0.4503
  106OSM   H15F10883   4.852   2.387   8.758  0.8288 -0.1100 -2.2748
  106OSM   H15G10884   4.909   2.237   8.847  2.4132 -0.4206  0.1290
  106OSM   C16F10885   5.020   2.275   8.669  0.7146  0.1611 -0.7242
  106OSM   H16F10886   5.111   2.218   8.698 -0.6354 -1.9019 -0.3345
  106OSM   H16G10887   5.046   2.362   8.605 -2.2425  2.0689  0.4364
  106OSM   C17F10888   4.930   2.180   8.585 -0.6131  0.0429  0.2104
  106OSM   H17F10889   4.836   2.235   8.565 -0.5316 -0.1822 -0.8498
  106OSM   H17G10890   4.902   2.102   8.659 -1.6293  1.6741  1.6139
  106OSM   C18F10891   5.000   2.137   8.453  0.3165 -0.3795 -0.7449
  106OSM   H18F10892   5.053   2.217   8.397  0.2657  0.0990 -0.1261
  106OSM   H18G10893   4.916   2.109   8.386 -0.0198 -1.8801  0.2508
  106OSM   H18H10894   5.076   2.060   8.476 -0.8398 -1.4805 -0.5004
  107OSM      N10895   3.409   5.966  11.001  0.0882 -1.0699  0.3093
  107OSM    C1510896   3.310   6.078  10.992 -0.0562  0.8379  0.3762
  107OSM   H15A10897   3.227   6.058  10.927 -1.2328  2.7132  1.2191
  107OSM   H15B10898   3.361   6.167  10.960  0.0207  1.1985  1.4409
  107OSM   H15C10899   3.270   6.099  11.090 -1.8769 -2.2857  0.4513
  107OSM    C1410900   3.480   5.965  10.870  0.7613 -0.2593  0.2442
  107OSM   H14A10901   3.405   5.948  10.795 -1.9607  0.2536  2.6880
  107OSM   H14B10902   3.550   5.882  10.867  0.6841 -0.3495  0.9014
  107OSM   H14C10903   3.530   6.058  10.846  0.4303  0.0623  0.7859
  107OSM    C1310904   3.505   6.005  11.101 -0.3571  0.0617  0.4515
  107OSM   H13A10905   3.557   6.097  11.077 -0.2814  0.2516  1.3175
  107OSM   H13B10906   3.570   5.919  11.109 -0.2662  0.0744 -0.0824
  107OSM   H13C10907   3.451   6.020  11.193  0.0394 -0.7363  0.8224
  107OSM    C1210908   3.339   5.837  11.032  0.8412  0.0639 -0.2932
  107OSM   H12A10909   3.266   5.814  10.956 -0.2552 -2.2085  1.3064
  107OSM   H12B10910   3.284   5.852  11.124 -1.5867  0.8326 -1.7914
  107OSM    C1110911   3.422   5.711  11.055 -0.2949 -0.4197  0.1609
  107OSM   H11A10912   3.347   5.639  11.096 -4.0071  2.8562 -0.3378
  107OSM   H11B10913   3.495   5.726  11.137 -1.7344 -1.0950  1.6325
  107OSM      P10914   3.542   5.530  10.912 -0.2520 -0.3010  0.1069
  107OSM    O1310915   3.676   5.517  10.969  0.1287  0.4705 -0.0341
  107OSM    O1410916   3.441   5.433  10.954 -0.7489  0.5225  0.6267
  107OSM    O1110917   3.561   5.523  10.752  0.2439 -0.0837  0.1566
  107OSM    O1210918   3.487   5.673  10.931  0.0752 -0.2066  0.0075
  107OSM    C1S10919   3.559   5.648  10.675  0.0492  0.2396  0.0586
  107OSM    H1S10920   3.619   5.721  10.733 -1.2871 -0.3448  2.2929
  107OSM    H1T10921   3.463   5.705  10.680  0.8836  1.5821  2.3207
  107OSM     NF10922   3.640   5.749  10.462 -0.6577 -0.5045 -0.2688
  107OSM    HNF10923   3.565   5.804  10.428  0.6186  0.8084 -1.0705
  107OSM    C2S10924   3.616   5.626  10.527  0.6687  0.7853  0.0745
  107OSM    H2S10925   3.715   5.575  10.536  1.4331  2.2451  0.2766
  107OSM    C3S10926   3.524   5.528  10.447 -0.4014 -0.2245 -0.0525
  107OSM    H3S10927   3.428   5.584  10.444  0.1983  0.8346  0.0346
  107OSM     O310928   3.486   5.409  10.512 -0.0616 -0.6134  0.6284
  107OSM    HO310929   3.518   5.427  10.601  3.7626 -4.3206  0.3027
  107OSM    C4S10930   3.573   5.504  10.302  0.7605  0.6406  0.2483
  107OSM    H4S10931   3.544   5.585  10.233  1.2464  0.9717  0.4242
  107OSM    C5S10932   3.651   5.401  10.265  0.3351 -0.2910  0.2472
  107OSM    H5S10933   3.680   5.323  10.336  2.6256  0.0031 -0.2793
  107OSM    C6S10934   3.704   5.376  10.118  0.0048 -0.8434  0.0982
  107OSM    H6S10935   3.758   5.280  10.110  1.2318 -0.1751  0.0759
  107OSM    H6T10936   3.778   5.457  10.099  0.5020 -1.3225 -0.0017
  107OSM    C7S10937   3.598   5.383  10.005  0.3398  0.2455  0.4186
  107OSM    H7S10938   3.607   5.485   9.962  0.9801  0.3195  0.7131
  107OSM    H7T10939   3.498   5.367  10.053  0.6827  0.1639  1.1266
  107OSM    C8S10940   3.624   5.278   9.898 -0.1562 -0.0337  0.2387
  107OSM    H8S10941   3.547   5.306   9.823  0.8758  0.9723 -0.4794
  107OSM    H8T10942   3.609   5.176   9.940 -1.7544  0.0343 -0.1012
  107OSM    C9S10943   3.765   5.299   9.842 -1.2265 -0.3656 -0.7045
  107OSM    H9S10944   3.845   5.260   9.908 -1.4861  0.4519  0.1104
  107OSM    H9T10945   3.786   5.408   9.838 -1.1160 -0.2134  2.1553
  107OSM   C10S10946   3.791   5.237   9.705  0.6924 -0.7243  0.4490
  107OSM   H10S10947   3.772   5.127   9.710  2.0242 -0.9787  0.2516
  107OSM   H10T10948   3.895   5.254   9.670  0.4365 -1.5853 -0.8222
  107OSM   C11S10949   3.717   5.302   9.582  0.2540 -0.6648 -0.8606
  107OSM   H11S10950   3.735   5.411   9.568  1.2959 -0.7032  0.0244
  107OSM   H11T10951   3.610   5.306   9.610 -0.0013 -2.9833 -1.3245
  107OSM   C12S10952   3.746   5.231   9.451  0.1547  0.5565  0.0564
  107OSM   H12S10953   3.727   5.121   9.456 -0.4541  0.6842  0.6836
  107OSM   H12T10954   3.856   5.232   9.436  0.3180 -3.2894 -0.0497
  107OSM   C13S10955   3.667   5.287   9.334  0.0579 -0.4044  0.9447
  107OSM   H13S10956   3.600   5.362   9.382 -2.0364 -2.7944  1.9688
  107OSM   H13T10957   3.604   5.210   9.286  1.5747 -0.5113 -0.9613
  107OSM   C14S10958   3.764   5.344   9.227 -0.2387 -0.1518  0.3271
  107OSM   H14S10959   3.847   5.271   9.224 -1.3974 -1.7360  3.0578
  107OSM   H14T10960   3.801   5.446   9.253 -1.9033  1.0557 -1.7063
  107OSM   C15S10961   3.699   5.359   9.090  0.1361 -0.5029  0.4652
  107OSM   H15S10962   3.627   5.444   9.092 -0.8292 -1.2834 -0.0527
  107OSM   H15T10963   3.639   5.269   9.064  0.8787 -0.4603 -1.5623
  107OSM   C16S10964   3.803   5.375   8.976 -0.0137  0.2537  0.5298
  107OSM   H16S10965   3.883   5.301   8.996  1.7920  2.2373  0.9246
  107OSM   H16T10966   3.853   5.474   8.984  0.2343  0.2409 -0.6066
  107OSM   C17S10967   3.757   5.373   8.833 -0.0148  0.5804  0.6705
  107OSM   H17S10968   3.739   5.265   8.813  1.9905 -0.1799  2.5344
  107OSM   H17T10969   3.836   5.399   8.760 -2.0418  1.4676 -1.2900
  107OSM   C18S10970   3.636   5.462   8.802  0.2371 -0.6858 -0.5132
  107OSM   H18S10971   3.594   5.435   8.703  0.0655 -2.3183 -0.0262
  107OSM   H18T10972   3.660   5.570   8.813  1.3192 -0.8362 -1.2404
  107OSM   H18U10973   3.547   5.450   8.868  0.6207 -1.4776 -0.1186
  107OSM    C1F10974   3.746   5.834  10.501 -0.2339 -0.4534  0.0093
  107OSM     OF10975   3.826   5.793  10.588 -0.1398 -0.2737 -0.6267
  107OSM    C2F10976   3.768   5.967  10.437  0.0672  0.0646 -0.1764
  107OSM    H2F10977   3.875   5.996  10.438 -0.3702  1.8554  1.2287
  107OSM    H2G10978   3.718   6.043  10.501 -0.0745 -1.1168  1.1688
  107OSM    C3F10979   3.715   5.970  10.293  0.5839 -0.8530 -0.0787
  107OSM    H3F10980   3.604   5.964  10.292  0.3746  1.6936 -1.9013
  107OSM    H3G10981   3.750   5.891  10.223 -0.0826 -1.8502  0.6840
  107OSM    C4F10982   3.738   6.117  10.236 -0.9816 -0.7271 -0.0341
  107OSM    H4F10983   3.845   6.146  10.241 -1.2551  0.2139  0.7490
  107OSM    H4G10984   3.697   6.198  10.301  2.4464  2.0696 -1.0154
  107OSM    C5F10985   3.675   6.141  10.096 -0.2629 -0.1095 -0.2083
  107OSM    H5F10986   3.579   6.085  10.091 -0.8045  0.8766 -1.6689
  107OSM    H5G10987   3.748   6.101  10.023 -0.3134 -0.0192 -0.3084
  107OSM    C6F10988   3.659   6.290  10.072 -0.1561  0.9531  0.1504
  107OSM    H6F10989   3.750   6.347  10.099 -0.5388  2.4795 -1.5863
  107OSM    H6G10990   3.573   6.318  10.137 -0.3812 -0.9731  0.7553
  107OSM    C7F10991   3.592   6.324   9.938 -0.3761 -0.3354  0.1233
  107OSM    H7F10992   3.512   6.401   9.947 -0.1446 -0.2662  2.1769
  107OSM    H7G10993   3.544   6.232   9.898 -2.9256  0.7463  0.4419
  107OSM    C8F10994   3.688   6.381   9.838  0.0961 -0.5343 -0.9048
  107OSM    H8F10995   3.691   6.488   9.871  0.8570 -0.5371 -0.9484
  107OSM    H8G10996   3.621   6.387   9.749 -0.6718 -1.7367 -0.4252
  107OSM    C9F10997   3.811   6.310   9.801 -0.6468 -0.0831 -0.1207
  107OSM    H9F10998   3.882   6.302   9.885 -1.7191  0.4887  0.8772
  107OSM   C10F10999   3.840   6.253   9.682  0.0125  0.1903  0.4450
  107OSM   H10F11000   3.940   6.210   9.669  0.1203  0.4284  0.4922
  107OSM   C11F11001   3.752   6.257   9.561 -0.1731  0.7304  0.4535
  107OSM   H11F11002   3.730   6.362   9.534 -1.4617  0.6721  1.2162
  107OSM   H11G11003   3.658   6.199   9.577  0.4861 -1.2857 -2.2075
  107OSM   C12F11004   3.828   6.202   9.438 -1.2354 -0.9362  0.1421
  107OSM   H12F11005   3.851   6.099   9.471 -2.2138 -0.5482  2.1909
  107OSM   H12G11006   3.923   6.258   9.423 -0.5397 -1.8903  0.8659
  107OSM   C13F11007   3.744   6.197   9.311  0.8093  0.3618  0.2954
  107OSM   H13F11008   3.664   6.273   9.305 -0.9318 -1.3812  0.6187
  107OSM   H13G11009   3.684   6.104   9.302 -1.2989  1.8721 -2.5176
  107OSM   C14F11010   3.827   6.208   9.185 -0.1613  0.4024 -0.1685
  107OSM   H14F11011   3.898   6.123   9.175 -0.1595  0.1290  1.7567
  107OSM   H14G11012   3.886   6.302   9.186  0.0896  0.2704 -1.4060
  107OSM   C15F11013   3.746   6.223   9.052 -0.0274 -0.0715 -0.2332
  107OSM   H15F11014   3.694   6.320   9.070  0.9924  0.4920 -0.2869
  107OSM   H15G11015   3.678   6.138   9.030  0.4428  0.5247 -4.9488
  107OSM   C16F11016   3.838   6.227   8.939  0.5806 -0.0876  0.1341
  107OSM   H16F11017   3.894   6.131   8.939 -1.2339 -1.1935  0.3552
  107OSM   H16G11018   3.911   6.310   8.949 -1.7585  1.9324  1.3459
  107OSM   C17F11019   3.763   6.236   8.804 -0.4255 -0.3007  0.1443
  107OSM   H17F11020   3.680   6.309   8.818 -2.3764 -2.5548  0.9835
  107OSM   H17G11021   3.721   6.138   8.772  1.1048  0.0492 -3.3748
  107OSM   C18F11022   3.844   6.284   8.685  0.2027  0.6996 -0.1799
  107OSM   H18F11023   3.779   6.325   8.605  0.6015 -0.2592 -1.0179
  107OSM   H18G11024   3.889   6.196   8.634 -1.8825 -0.7862  0.4032
  107OSM   H18H11025   3.930   6.347   8.714  0.4740 -0.2697  1.2217
  108OSM      N11026   3.097   2.622  11.140 -0.0091 -0.5345  0.7870
  108OSM    C1511027   3.188   2.749  11.140 -0.5230  0.6834  0.2699
  108OSM   H15A11028   3.194   2.789  11.041 -0.3473  1.3327  0.5403
  108OSM   H15B11029   3.287   2.718  11.171  0.2397  2.9477  0.2491
  108OSM   H15C11030   3.140   2.820  11.206  0.6415  0.7914  1.0259
  108OSM    C1411031   3.123   2.542  11.261  0.1289  0.4433  0.4801
  108OSM   H14A11032   3.117   2.601  11.352 -3.2447 -0.5075  1.0106
  108OSM   H14B11033   3.215   2.487  11.269 -0.5224 -0.7038  0.2763
  108OSM   H14C11034   3.042   2.472  11.275  0.0198  0.4909  0.0931
  108OSM    C1311035   2.955   2.667  11.147 -0.1653 -0.8271  0.1166
  108OSM   H13A11036   2.926   2.737  11.223 -1.1627  0.4200 -1.3524
  108OSM   H13B11037   2.887   2.583  11.146 -0.2321 -0.8246  1.7580
  108OSM   H13C11038   2.916   2.715  11.058 -0.0624  0.3279  0.6769
  108OSM    C1211039   3.102   2.537  11.016 -1.1230  0.6249 -0.2330
  108OSM   H12A11040   3.046   2.446  11.032 -1.2987  0.7156 -0.3387
  108OSM   H12B11041   3.202   2.502  10.994 -2.1645 -2.5946 -0.4472
  108OSM    C1111042   3.059   2.589  10.877 -0.1688  0.1516 -0.3960
  108OSM   H11A11043   2.955   2.628  10.885 -1.2109 -1.5129 -3.9746
  108OSM   H11B11044   3.054   2.503  10.807  0.9313 -0.2275 -0.0293
  108OSM      P11045   3.289   2.667  10.773  0.0894 -0.1720 -0.4951
  108OSM    O1311046   3.347   2.806  10.746  0.1672  1.4534 -0.3586
  108OSM    O1411047   3.364   2.580  10.875  0.7269 -0.1432  0.4599
  108OSM    O1111048   3.257   2.592  10.639 -0.0485 -0.1987  0.2410
  108OSM    O1211049   3.137   2.693  10.832  0.1239 -0.5143  0.1916
  108OSM    C1S11050   3.158   2.633  10.544  0.4258  0.2041 -0.2454
  108OSM    H1S11051   3.184   2.736  10.512  0.9465  0.0893 -0.1951
  108OSM    H1T11052   3.056   2.624  10.588  0.8522 -3.0875  0.3709
  108OSM     NF11053   3.098   2.594  10.308  0.3357  0.0126 -0.3374
  108OSM    HNF11054   3.005   2.568  10.284  0.3689 -0.2270 -0.2006
  108OSM    C2S11055   3.157   2.537  10.430 -0.0604  0.5233  0.4744
  108OSM    H2S11056   3.259   2.503  10.404 -0.3248 -0.8562  1.1387
  108OSM    C3S11057   3.100   2.396  10.480  0.2541  0.2746  0.3230
  108OSM    H3S11058   2.998   2.403  10.525  1.1507  1.1110  2.3614
  108OSM     O311059   3.176   2.345  10.587 -0.0647  0.3601  0.0860
  108OSM    HO311060   3.221   2.421  10.624  1.8852 -0.5597 -0.2604
  108OSM    C4S11061   3.100   2.302  10.370 -0.5953 -0.0161 -0.2485
  108OSM    H4S11062   3.038   2.335  10.285  0.0591  0.8557 -0.4025
  108OSM    C5S11063   3.152   2.181  10.353 -0.0789 -0.0210 -0.1901
  108OSM    H5S11064   3.226   2.147  10.427 -2.3764  1.3139  2.8988
  108OSM    C6S11065   3.115   2.098  10.237 -0.1962  0.1842  0.5494
  108OSM    H6S11066   3.037   2.025  10.266 -1.4345  1.6632  1.0980
  108OSM    H6T11067   3.201   2.034  10.209 -0.9870  0.0665 -1.9040
  108OSM    C7S11068   3.072   2.175  10.108 -0.6601 -0.0656 -0.6526
  108OSM    H7S11069   3.157   2.242  10.081  0.3694 -0.8497  0.5447
  108OSM    H7T11070   2.977   2.230  10.124 -0.1901  0.7610 -0.6655
  108OSM    C8S11071   3.044   2.072   9.993  0.2711 -0.0533  0.3812
  108OSM    H8S11072   2.958   2.021  10.041 -1.3632  1.9898 -0.2219
  108OSM    H8T11073   3.138   2.019   9.966 -0.6210 -0.8761 -1.2312
  108OSM    C9S11074   3.004   2.150   9.872  0.2940 -0.9242 -0.1435
  108OSM    H9S11075   3.080   2.210   9.818  1.2580 -0.6777  1.4421
  108OSM    H9T11076   2.932   2.232   9.891 -1.6432 -2.4733 -0.4230
  108OSM   C10S11077   2.928   2.062   9.775 -0.0028 -0.4783 -0.4156
  108OSM   H10S11078   2.873   2.134   9.711 -3.4784  0.3252  3.0541
  108OSM   H10T11079   2.845   2.011   9.830 -1.7668  0.7118 -1.8330
  108OSM   C11S11080   3.014   1.969   9.693  0.4801  0.1245 -0.2798
  108OSM   H11S11081   3.076   1.901   9.755 -0.2212  1.2537  1.7685
  108OSM   H11T11082   3.091   2.038   9.652 -0.1124  1.0206  0.0718
  108OSM   C12S11083   2.939   1.894   9.586  0.2844  0.0754  0.5614
  108OSM   H12S11084   2.853   1.953   9.549  0.1722 -0.1389  0.4808
  108OSM   H12T11085   2.910   1.795   9.626 -0.2213 -0.1033 -0.2300
  108OSM   C13S11086   3.036   1.848   9.473  0.8049 -0.1609  0.1828
  108OSM   H13S11087   3.095   1.769   9.524  0.0687 -1.6607 -1.2118
  108OSM   H13T11088   3.100   1.932   9.437 -1.5032  0.7395 -2.1068
  108OSM   C14S11089   2.968   1.786   9.348 -0.3050  0.4510  0.5086
  108OSM   H14S11090   2.904   1.865   9.303  0.2888 -0.1703 -1.5400
  108OSM   H14T11091   2.914   1.691   9.366  1.4989 -1.9378 -4.6484
  108OSM   C15S11092   3.072   1.747   9.243 -0.4895  1.0053  0.2111
  108OSM   H15S11093   3.156   1.707   9.303 -0.9096 -0.9252 -0.4357
  108OSM   H15T11094   3.096   1.845   9.196 -1.8310  1.6223  0.7411
  108OSM   C16S11095   3.032   1.642   9.134  0.4144 -0.3288  0.1568
  108OSM   H16S11096   3.013   1.546   9.185 -0.3427  0.2632  1.0357
  108OSM   H16T11097   3.115   1.624   9.063  1.4703 -0.2969  1.3520
  108OSM   C17S11098   2.911   1.693   9.062 -0.1657 -0.1045  0.4217
  108OSM   H17S11099   2.931   1.798   9.030 -0.0220 -0.0757  0.6056
  108OSM   H17T11100   2.818   1.698   9.122  0.0242  0.0577  0.7083
  108OSM   C18S11101   2.896   1.622   8.926 -0.4538  0.3153  0.2239
  108OSM   H18S11102   2.986   1.627   8.862  0.4517 -0.6764  1.3735
  108OSM   H18T11103   2.805   1.654   8.870  0.9495  1.9110 -1.2469
  108OSM   H18U11104   2.882   1.515   8.954  0.1846  0.5063  1.3276
  108OSM    C1F11105   3.153   2.678  10.224 -0.6598  0.2890 -0.0535
  108OSM     OF11106   3.270   2.709  10.243 -0.4649  0.1705 -0.2149
  108OSM    C2F11107   3.074   2.728  10.105 -0.3510  0.1773 -0.3452
  108OSM    H2F11108   3.125   2.811  10.051 -1.4462  0.3435 -1.1656
  108OSM    H2G11109   2.978   2.761  10.150  0.5412  0.2886  1.5326
  108OSM    C3F11110   3.051   2.613  10.008 -0.2080  0.4514  0.4097
  108OSM    H3F11111   3.007   2.524  10.056  0.9931 -0.6787 -0.5261
  108OSM    H3G11112   3.146   2.569   9.971 -0.7901 -0.9160  0.5074
  108OSM    C4F11113   2.965   2.652   9.885 -0.5677 -0.0597 -0.5308
  108OSM    H4F11114   3.026   2.712   9.813 -0.5786  0.6853  0.0670
  108OSM    H4G11115   2.877   2.711   9.916  0.5840  2.0397 -1.0527
  108OSM    C5F11116   2.916   2.532   9.802 -0.3994 -0.5735 -0.6509
  108OSM    H5F11117   2.853   2.470   9.870 -0.2043 -0.6700 -0.5579
  108OSM    H5G11118   3.000   2.461   9.790  1.3577  1.8211 -4.1381
  108OSM    C6F11119   2.866   2.556   9.669 -0.2920  0.9759  0.5069
  108OSM    H6F11120   2.934   2.634   9.627 -0.0751 -0.1510 -1.3976
  108OSM    H6G11121   2.760   2.588   9.663 -0.9469 -1.1452 -3.8736
  108OSM    C7F11122   2.866   2.429   9.576 -0.7505  0.0651  0.3491
  108OSM    H7F11123   2.771   2.376   9.599 -0.9411 -0.5371 -1.6547
  108OSM    H7G11124   2.957   2.366   9.592 -0.2055  0.3144 -1.5767
  108OSM    C8F11125   2.850   2.470   9.427  0.1288 -0.2503  0.1175
  108OSM    H8F11126   2.898   2.383   9.377  2.1750  0.8610  0.0604
  108OSM    H8G11127   2.917   2.558   9.420  1.8342 -1.5483 -0.3383
  108OSM    C9F11128   2.703   2.497   9.391  0.2175  0.3879  0.5652
  108OSM    H9F11129   2.640   2.493   9.480  1.9007  0.7275  1.8165
  108OSM   C10F11130   2.654   2.538   9.274  0.1170 -0.3787 -0.6075
  108OSM   H10F11131   2.545   2.548   9.260 -0.1591  0.2658  1.5427
  108OSM   C11F11132   2.737   2.563   9.158 -0.4216  0.4655 -0.0048
  108OSM   H11F11133   2.781   2.467   9.123 -2.1536  0.4648 -2.4842
  108OSM   H11G11134   2.821   2.624   9.198  1.3967 -1.3821 -0.8176
  108OSM   C12F11135   2.679   2.648   9.041  0.3378 -0.1701  0.1785
  108OSM   H12F11136   2.767   2.698   8.996  1.1064 -0.2790  1.4856
  108OSM   H12G11137   2.609   2.731   9.066  0.1005  0.0922 -1.2851
  108OSM   C13F11138   2.609   2.548   8.948  0.2130  0.5950 -0.5282
  108OSM   H13F11139   2.642   2.444   8.970  1.0706  1.2365  1.4463
  108OSM   H13G11140   2.641   2.571   8.844 -1.9191 -3.1822 -2.2631
  108OSM   C14F11141   2.451   2.553   8.963 -0.5304  0.0617  0.1284
  108OSM   H14F11142   2.425   2.661   8.954 -2.1878 -0.3784 -0.6160
  108OSM   H14G11143   2.429   2.502   9.059 -0.3059 -1.9020 -0.8233
  108OSM   C15F11144   2.373   2.478   8.857  0.5193 -0.6642  0.4786
  108OSM   H15F11145   2.425   2.381   8.846  1.4810 -0.2805  1.4224
  108OSM   H15G11146   2.388   2.533   8.762 -0.2151  1.3622  1.4703
  108OSM   C16F11147   2.222   2.466   8.895  0.4065 -0.4969  0.5336
  108OSM   H16F11148   2.185   2.566   8.926  1.8470  0.7941 -1.6614
  108OSM   H16G11149   2.199   2.393   8.976 -2.6572 -0.1562  0.1077
  108OSM   C17F11150   2.139   2.423   8.770 -0.3130 -0.1998  0.0544
  108OSM   H17F11151   2.183   2.336   8.718 -1.9298 -0.2414 -1.3516
  108OSM   H17G11152   2.154   2.503   8.694 -0.8928  0.5218  0.6792
  108OSM   C18F11153   1.992   2.404   8.810  0.1930  0.1137 -0.6217
  108OSM   H18F11154   1.944   2.490   8.861 -2.8978 -0.7722 -1.8047
  108OSM   H18G11155   1.980   2.317   8.879  0.1868 -0.4002 -1.2612
  108OSM   H18H11156   1.929   2.375   8.724 -0.0764 -1.9231  0.1968
  109OSM      N11157   4.641   0.383  10.975 -0.5751  0.4902  1.1872
  109OSM    C1511158   4.608   0.509  10.905  0.5592 -0.3436 -0.0090
  109OSM   H15A11159   4.617   0.599  10.965  1.9343 -0.7540  0.4394
  109OSM   H15B11160   4.509   0.506  10.863  0.1858  0.6039  0.7636
  109OSM   H15C11161   4.675   0.528  10.822  1.6208 -0.8693  0.7085
  109OSM    C1411162   4.774   0.400  11.039 -0.4703  0.1555  0.1512
  109OSM   H14A11163   4.855   0.433  10.975  1.7122 -0.4011  2.4564
  109OSM   H14B11164   4.799   0.304  11.080  0.8479  0.8486  1.0435
  109OSM   H14C11165   4.782   0.470  11.120  1.9881 -1.1632  1.1347
  109OSM    C1311166   4.545   0.365  11.079 -0.0279  1.0420  0.1426
  109OSM   H13A11167   4.550   0.268  11.126  0.9835 -0.2065 -2.3523
  109OSM   H13B11168   4.454   0.364  11.021  0.3589  1.0264 -0.4715
  109OSM   H13C11169   4.532   0.448  11.147 -1.1895  1.5849 -0.7255
  109OSM    C1211170   4.651   0.273  10.874 -0.0418 -0.3414 -0.6147
  109OSM   H12A11171   4.665   0.178  10.924  1.1569 -0.2348 -0.7110
  109OSM   H12B11172   4.742   0.288  10.818 -0.9890  0.1974 -2.0388
  109OSM    C1111173   4.546   0.253  10.765  0.2419  0.5832 -0.8505
  109OSM   H11A11174   4.578   0.163  10.709  1.3707  1.1159 -1.0959
  109OSM   H11B11175   4.542   0.330  10.686 -1.1231  0.3037 -1.0663
  109OSM      P11176   4.291   0.311  10.814  0.3527  0.5515 -0.4074
  109OSM    O1311177   4.177   0.218  10.837 -0.3103 -0.1592  0.0572
  109OSM    O1411178   4.303   0.433  10.888 -0.1141  0.4333 -0.0245
  109OSM    O1111179   4.305   0.354  10.664  0.3478 -0.7694 -0.2490
  109OSM    O1211180   4.423   0.227  10.834 -0.1400  0.5652  0.2487
  109OSM    C1S11181   4.201   0.339  10.562  0.1678 -0.3665 -0.1935
  109OSM    H1S11182   4.148   0.434  10.542 -0.6655 -0.7428  0.1750
  109OSM    H1T11183   4.117   0.271  10.590 -0.4190  0.3827 -0.0935
  109OSM     NF11184   4.146   0.279  10.326 -0.4497  0.4994  0.5899
  109OSM    HNF11185   4.090   0.196  10.316 -2.4600  1.8710 -0.2402
  109OSM    C2S11186   4.251   0.277  10.425  0.5122  0.0705  0.3717
  109OSM    H2S11187   4.332   0.342  10.384 -1.0135  1.6936 -0.2304
  109OSM    C3S11188   4.306   0.136  10.432  0.2268  0.8868 -0.6034
  109OSM    H3S11189   4.234   0.070  10.484 -0.6670  1.4036 -1.1369
  109OSM     O311190   4.428   0.131  10.515  0.0505  0.1108 -0.3272
  109OSM    HO311191   4.420   0.205  10.575  2.5007 -0.7700  1.2077
  109OSM    C4S11192   4.337   0.066  10.301  0.5651  0.8456 -0.1169
  109OSM    H4S11193   4.414   0.121  10.246  2.8151 -1.2668  0.7295
  109OSM    C5S11194   4.297  -0.060  10.257  0.1353  0.4059 -0.0597
  109OSM    H5S11195   4.224  -0.119  10.314  0.5994 -1.5254 -1.3824
  109OSM    C6S11196   4.336  -0.115  10.127  0.2957  0.3033  0.0462
  109OSM    H6S11197   4.399  -0.206  10.123 -0.1950 -0.0307 -0.2383
  109OSM    H6T11198   4.407  -0.050  10.072  0.1297 -0.1263 -0.6908
  109OSM    C7S11199   4.215  -0.166  10.039  0.4301 -0.3136  0.3485
  109OSM    H7S11200   4.142  -0.082  10.035 -0.1489 -0.8763 -1.6246
  109OSM    H7T11201   4.171  -0.258  10.084  1.0604 -1.4279 -1.2587
  109OSM    C8S11202   4.252  -0.195   9.899 -0.0665  0.0608  0.7698
  109OSM    H8S11203   4.326  -0.278   9.892  0.0399  0.1953  0.2205
  109OSM    H8T11204   4.303  -0.105   9.858 -0.1223 -0.6434 -0.9390
  109OSM    C9S11205   4.134  -0.224   9.805  0.1641 -1.0540 -0.3008
  109OSM    H9S11206   4.058  -0.144   9.821  2.3949  0.7938  1.8931
  109OSM    H9T11207   4.087  -0.320   9.834 -3.2084  0.1976 -1.2091
  109OSM   C10S11208   4.177  -0.230   9.659 -0.6335 -0.0152 -0.5028
  109OSM   H10S11209   4.264  -0.298   9.651  3.4263  4.6852 -0.8591
  109OSM   H10T11210   4.215  -0.128   9.633  0.0299 -0.3623 -0.9140
  109OSM   C11S11211   4.066  -0.270   9.566  0.3368  0.1835 -0.2796
  109OSM   H11S11212   4.011  -0.177   9.542  0.8814  0.6588  0.2781
  109OSM   H11T11213   3.992  -0.341   9.610 -0.0779  0.6892 -0.1418
  109OSM   C12S11214   4.111  -0.325   9.429 -0.3009 -0.1292 -0.3933
  109OSM   H12S11215   4.019  -0.366   9.384 -0.1066 -0.1579 -0.7742
  109OSM   H12T11216   4.169  -0.417   9.451 -1.1048 -1.2375 -2.6748
  109OSM   C13S11217   4.194  -0.227   9.346  0.1714 -0.1714 -0.4600
  109OSM   H13S11218   4.296  -0.214   9.388  0.7255 -1.2110 -1.4502
  109OSM   H13T11219   4.154  -0.123   9.338  1.0094  0.2023  0.0345
  109OSM   C14S11220   4.210  -0.282   9.207  0.0158 -0.3069  0.0386
  109OSM   H14S11221   4.207  -0.393   9.197  1.9809 -0.1624 -4.8153
  109OSM   H14T11222   4.312  -0.266   9.166 -1.0116 -0.1609 -2.7089
  109OSM   C15S11223   4.104  -0.248   9.109  0.2587  0.1414 -0.8537
  109OSM   H15S11224   4.102  -0.138   9.092 -1.0385  0.3596  0.4726
  109OSM   H15T11225   4.003  -0.275   9.146  0.7637  0.4453  0.8564
  109OSM   C16S11226   4.109  -0.316   8.968 -0.8728  0.3541  0.5026
  109OSM   H16S11227   4.017  -0.284   8.915 -2.1594 -0.1409  2.3848
  109OSM   H16T11228   4.117  -0.425   8.988  0.0172  0.7365  2.5047
  109OSM   C17S11229   4.238  -0.265   8.892  0.3460  0.5031  0.0471
  109OSM   H17S11230   4.332  -0.301   8.938  0.1034 -1.1808 -0.7110
  109OSM   H17T11231   4.235  -0.154   8.895 -2.5032  0.5937 -2.0910
  109OSM   C18S11232   4.250  -0.300   8.740 -0.7378 -0.5402  0.1885
  109OSM   H18S11233   4.293  -0.402   8.730  0.3446 -0.0670 -0.1658
  109OSM   H18T11234   4.312  -0.219   8.695 -1.3258 -0.4241 -0.4312
  109OSM   H18U11235   4.154  -0.291   8.684  0.4414  1.9761 -1.6172
  109OSM    C1F11236   4.111   0.388  10.263  0.2524  0.0779  0.0704
  109OSM     OF11237   4.185   0.488  10.283 -0.2436  0.6589  0.5530
  109OSM    C2F11238   3.996   0.388  10.167  0.0720 -0.0834 -0.2671
  109OSM    H2F11239   4.041   0.453  10.089 -0.3730  0.6903  0.1037
  109OSM    H2G11240   3.911   0.436  10.221 -2.0150  1.6052 -4.6079
  109OSM    C3F11241   3.945   0.253  10.118  0.1229  0.4120  0.3867
  109OSM    H3F11242   3.909   0.210  10.214 -1.8122 -1.4586 -1.0804
  109OSM    H3G11243   4.020   0.187  10.070  0.2152  1.6588 -1.2515
  109OSM    C4F11244   3.823   0.258  10.025  1.1757 -0.1338  0.3009
  109OSM    H4F11245   3.739   0.323  10.058  1.5590  0.9304 -0.7508
  109OSM    H4G11246   3.792   0.152  10.013 -0.6899  0.6148 -2.4751
  109OSM    C5F11247   3.858   0.286   9.877 -0.1948 -1.0706 -0.5624
  109OSM    H5F11248   3.764   0.266   9.822 -0.4549 -2.8646  0.4491
  109OSM    H5G11249   3.926   0.213   9.828  0.3624 -1.2453  0.4517
  109OSM    C6F11250   3.890   0.441   9.859 -0.2828 -0.3357 -0.5116
  109OSM    H6F11251   3.997   0.473   9.852 -0.4894  0.3706 -0.5238
  109OSM    H6G11252   3.840   0.493   9.944 -1.2570 -2.7042  0.4480
  109OSM    C7F11253   3.827   0.509   9.732  0.2376  0.6324 -0.4747
  109OSM    H7F11254   3.826   0.619   9.748  1.0906  0.4735  0.8097
  109OSM    H7G11255   3.718   0.488   9.727  0.1861  0.7235  0.2589
  109OSM    C8F11256   3.899   0.478   9.593  1.1365  0.1163 -0.2973
  109OSM    H8F11257   3.907   0.368   9.576  1.8888  0.3966 -1.9741
  109OSM    H8G11258   4.008   0.500   9.596  1.8306 -2.9040  1.9813
  109OSM    C9F11259   3.839   0.556   9.473 -0.3451 -0.3613  0.4352
  109OSM    H9F11260   3.843   0.664   9.493  3.9921 -0.2273 -0.2417
  109OSM   C10F11261   3.809   0.515   9.347 -0.0067  0.3034  0.2920
  109OSM   H10F11262   3.748   0.577   9.279  2.3111 -0.0698 -2.3288
  109OSM   C11F11263   3.822   0.370   9.292 -0.4829 -0.2875  0.5322
  109OSM   H11F11264   3.841   0.305   9.380  1.5252 -2.3261 -1.2596
  109OSM   H11G11265   3.918   0.353   9.238  0.5733 -0.9840  2.5219
  109OSM   C12F11266   3.700   0.321   9.208  0.0751 -0.1690 -0.8909
  109OSM   H12F11267   3.615   0.345   9.275  0.3841 -1.8792  0.1597
  109OSM   H12G11268   3.713   0.211   9.200  0.4151 -0.1879 -0.1079
  109OSM   C13F11269   3.698   0.375   9.058 -0.2485 -0.1135  0.4513
  109OSM   H13F11270   3.799   0.365   9.012  0.8075  2.0477  2.1155
  109OSM   H13G11271   3.683   0.484   9.055  2.0817  0.3200  1.7461
  109OSM   C14F11272   3.596   0.293   8.981  0.6783  0.2992  0.9080
  109OSM   H14F11273   3.497   0.309   9.030  1.5540  0.6613  2.6097
  109OSM   H14G11274   3.622   0.186   8.984 -2.5946 -0.6387  0.2689
  109OSM   C15F11275   3.568   0.337   8.837 -0.2760 -0.0453 -0.3630
  109OSM   H15F11276   3.667   0.338   8.787  0.1574  0.3437  0.4779
  109OSM   H15G11277   3.520   0.437   8.832 -0.9794 -0.3760 -0.3863
  109OSM   C16F11278   3.481   0.237   8.756  0.1022 -0.6068 -0.8391
  109OSM   H16F11279   3.383   0.229   8.809  0.5063 -1.8261 -0.2344
  109OSM   H16G11280   3.525   0.136   8.758  0.7185 -0.3335 -0.1536
  109OSM   C17F11281   3.467   0.286   8.615  0.6495 -0.7737 -0.1035
  109OSM   H17F11282   3.391   0.214   8.577 -0.1444 -0.7701  1.3802
  109OSM   H17G11283   3.557   0.273   8.552  0.0249  0.0854 -1.2185
  109OSM   C18F11284   3.396   0.423   8.608  0.2273 -0.0236  0.3935
  109OSM   H18F11285   3.305   0.415   8.671 -0.5319 -2.8973 -0.9240
  109OSM   H18G11286   3.371   0.452   8.504 -1.6733  0.1241  0.8612
  109OSM   H18H11287   3.470   0.498   8.646 -0.5520  0.1052  1.7120
  110OSM      N11288   0.277   2.746  11.070  0.6044 -1.2523  0.5799
  110OSM    C1511289   0.396   2.837  11.050  0.2956 -0.1007  0.1984
  110OSM   H15A11290   0.374   2.937  11.016 -0.7294  0.0993  1.3548
  110OSM   H15B11291   0.474   2.795  10.988  0.2155 -2.2824  1.4615
  110OSM   H15C11292   0.453   2.851  11.141  0.6913  4.3581 -0.4940
  110OSM    C1411293   0.214   2.728  10.931  0.0461  0.5558  0.9176
  110OSM   H14A11294   0.129   2.662  10.929 -0.8445  1.6177  2.2110
  110OSM   H14B11295   0.277   2.687  10.853 -1.7743 -0.1915 -0.2229
  110OSM   H14C11296   0.184   2.821  10.884  0.9303  0.5503  0.2966
  110OSM    C1311297   0.320   2.612  11.109 -0.5875 -0.0116  0.2799
  110OSM   H13A11298   0.392   2.580  11.035  0.5688 -1.4997  1.9480
  110OSM   H13B11299   0.240   2.541  11.118 -0.1754 -0.7439 -1.4761
  110OSM   H13C11300   0.371   2.616  11.204 -1.8815 -1.5423  1.0895
  110OSM    C1211301   0.185   2.812  11.170 -0.0845 -0.0289  0.7688
  110OSM   H12A11302   0.222   2.798  11.270 -1.5326 -0.0044  1.3243
  110OSM   H12B11303   0.092   2.760  11.156  0.5311 -0.7674 -0.9509
  110OSM    C1111304   0.148   2.963  11.150 -0.1249 -0.2875  0.2727
  110OSM   H11A11305   0.236   3.032  11.147  0.3281 -0.8783 -0.3617
  110OSM   H11B11306   0.091   2.989  11.242 -1.6458  1.6610 -1.1355
  110OSM      P11307  -0.104   2.959  11.048 -0.4461  0.1741 -0.3868
  110OSM    O1311308  -0.136   2.920  10.913 -0.2032 -0.1052  0.2641
  110OSM    O1411309  -0.150   2.867  11.156 -0.5831 -0.2927  0.2659
  110OSM    O1111310  -0.159   3.108  11.077  0.1940 -1.0109  0.0551
  110OSM    O1211311   0.057   2.983  11.038  0.2738 -0.2296  0.0812
  110OSM    C1S11312  -0.109   3.218  10.999  0.0801  0.5280 -0.1051
  110OSM    H1S11313  -0.005   3.204  10.963  0.3087 -0.1746  0.7903
  110OSM    H1T11314  -0.105   3.306  11.067  0.1133 -1.2143  2.2534
  110OSM     NF11315  -0.116   3.312  10.766 -0.4197 -0.1911  0.2620
  110OSM    HNF11316  -0.143   3.408  10.768 -0.1664 -0.1287  1.4425
  110OSM    C2S11317  -0.192   3.229  10.867 -0.2766 -1.0706  0.2050
  110OSM    H2S11318  -0.206   3.126  10.828 -3.8343 -0.9638  0.8696
  110OSM    C3S11319  -0.325   3.295  10.899 -0.8950 -0.3938  0.7935
  110OSM    H3S11320  -0.314   3.401  10.931 -0.3439 -0.2665  0.1877
  110OSM     O311321  -0.399   3.244  11.010 -0.5010  0.0489 -0.3430
  110OSM    HO311322  -0.335   3.183  11.047 -1.4598 -0.5988  0.2927
  110OSM    C4S11323  -0.414   3.289  10.781 -0.3674  0.0044  0.3257
  110OSM    H4S11324  -0.442   3.188  10.748  0.7807 -0.5339  0.9428
  110OSM    C5S11325  -0.452   3.390  10.702  0.2844 -0.3835  0.8807
  110OSM    H5S11326  -0.430   3.494  10.728 -1.5211  0.5016 -0.8782
  110OSM    C6S11327  -0.545   3.381  10.584  0.3843  0.4966  0.0448
  110OSM    H6S11328  -0.632   3.447  10.607 -0.8021 -1.1444  0.4711
  110OSM    H6T11329  -0.573   3.278  10.554 -0.4654  1.1993 -1.7051
  110OSM    C7S11330  -0.462   3.437  10.462 -0.1776  0.0865 -0.2215
  110OSM    H7S11331  -0.383   3.363  10.436 -1.2580 -1.4336  0.6599
  110OSM    H7T11332  -0.417   3.536  10.486 -0.4181  0.0777  0.2748
  110OSM    C8S11333  -0.554   3.456  10.346  0.1681  0.1940 -0.1570
  110OSM    H8S11334  -0.605   3.554  10.360  0.3460  0.3335 -0.4795
  110OSM    H8T11335  -0.624   3.369  10.341 -0.6288  0.8621 -1.1824
  110OSM    C9S11336  -0.487   3.468  10.211  0.9820  0.5786  0.4071
  110OSM    H9S11337  -0.437   3.372  10.185 -1.5017 -0.6319 -0.2118
  110OSM    H9T11338  -0.407   3.546  10.209 -0.2443  1.8561 -0.7741
  110OSM   C10S11339  -0.593   3.500  10.102  0.2473 -0.3290  0.0345
  110OSM   H10S11340  -0.632   3.599  10.134 -0.2757 -0.4696 -0.1481
  110OSM   H10T11341  -0.681   3.432  10.111  0.0568 -0.2108 -0.8813
  110OSM   C11S11342  -0.535   3.495   9.962 -0.3366  0.0392 -0.2055
  110OSM   H11S11343  -0.457   3.417   9.949 -0.8204 -0.3670 -0.7091
  110OSM   H11T11344  -0.484   3.594   9.955 -0.9304  0.8155  3.9160
  110OSM   C12S11345  -0.639   3.493   9.850 -0.0965 -0.0323  0.1502
  110OSM   H12S11346  -0.723   3.562   9.875 -0.5478 -0.3040 -0.5589
  110OSM   H12T11347  -0.679   3.389   9.846  0.2160 -0.1274 -0.9070
  110OSM   C13S11348  -0.582   3.530   9.710 -0.0090  0.6741 -0.4983
  110OSM   H13S11349  -0.516   3.446   9.678 -1.0874  0.1590 -1.4462
  110OSM   H13T11350  -0.523   3.623   9.723  1.7168 -0.3732 -0.5967
  110OSM   C14S11351  -0.698   3.540   9.614 -0.3127  0.3788 -0.0436
  110OSM   H14S11352  -0.739   3.641   9.634  1.5364  0.7197  2.5120
  110OSM   H14T11353  -0.776   3.465   9.637  0.9165 -0.5868  1.1164
  110OSM   C15S11354  -0.648   3.526   9.468  0.0433  0.3007 -0.3375
  110OSM   H15S11355  -0.735   3.489   9.411  0.2483  3.5362 -3.0743
  110OSM   H15T11356  -0.572   3.445   9.462 -0.5951 -0.4389  1.0589
  110OSM   C16S11357  -0.594   3.654   9.398 -0.4495  0.0176 -0.1409
  110OSM   H16S11358  -0.493   3.668   9.443  1.8963  1.6051 -5.1725
  110OSM   H16T11359  -0.651   3.744   9.429 -0.0524  0.2829 -0.1690
  110OSM   C17S11360  -0.576   3.645   9.246 -0.3632  0.1836 -0.2403
  110OSM   H17S11361  -0.531   3.548   9.214  0.3370  0.3682  0.1620
  110OSM   H17T11362  -0.509   3.728   9.215 -0.8379  0.8319  0.4372
  110OSM   C18S11363  -0.705   3.658   9.169 -0.1792 -0.7941 -0.2865
  110OSM   H18S11364  -0.781   3.582   9.200 -0.9003 -0.7615 -1.8366
  110OSM   H18T11365  -0.693   3.653   9.059 -0.7287 -1.7710 -0.3185
  110OSM   H18U11366  -0.739   3.761   9.191  2.5952  0.6560 -2.2102
  110OSM    C1F11367  -0.009   3.272  10.694  0.3857 -0.5587 -0.4349
  110OSM     OF11368   0.045   3.163  10.706 -0.2826  0.0037  0.1239
  110OSM    C2F11369   0.053   3.378  10.606  0.4880 -0.4012 -0.1664
  110OSM    H2F11370   0.128   3.424  10.673  0.2926 -1.3300  0.7247
  110OSM    H2G11371  -0.022   3.456  10.581  1.0620  0.3261  0.3394
  110OSM    C3F11372   0.120   3.325  10.486  0.1285  0.7273  0.6844
  110OSM    H3F11373   0.181   3.240  10.522 -0.3364  0.7496  1.5498
  110OSM    H3G11374   0.195   3.398  10.449 -0.5073  0.6351 -0.8583
  110OSM    C4F11375   0.022   3.274  10.377  0.3477  0.0424 -0.4979
  110OSM    H4F11376  -0.056   3.214  10.428 -0.0636  1.1297  0.1869
  110OSM    H4G11377   0.080   3.206  10.311  0.7520 -0.3256  0.2236
  110OSM    C5F11378  -0.056   3.383  10.304 -0.1789  0.1473 -0.3901
  110OSM    H5F11379   0.012   3.462  10.265 -0.5325  1.5214  1.5948
  110OSM    H5G11380  -0.108   3.447  10.379  1.3682  1.1561 -0.1410
  110OSM    C6F11381  -0.161   3.329  10.202 -0.4315  0.1364  0.1213
  110OSM    H6F11382  -0.221   3.415  10.165 -0.5457 -0.2834 -0.7053
  110OSM    H6G11383  -0.223   3.268  10.270 -2.2214  1.9710  0.2298
  110OSM    C7F11384  -0.097   3.243  10.090 -0.6295  0.1914 -0.1784
  110OSM    H7F11385  -0.178   3.184  10.041 -0.1157  1.5335 -2.7785
  110OSM    H7G11386  -0.009   3.180  10.116  0.6953  2.0254 -0.0678
  110OSM    C8F11387  -0.050   3.319   9.957 -0.5769  0.3690  0.4323
  110OSM    H8F11388  -0.023   3.236   9.888  0.7666  1.9272 -1.0107
  110OSM    H8G11389   0.032   3.393   9.971  0.1643 -0.3036 -0.2165
  110OSM    C9F11390  -0.159   3.403   9.894 -0.6718  0.2075 -0.6884
  110OSM    H9F11391  -0.209   3.475   9.961 -1.4494 -0.5170 -0.4771
  110OSM   C10F11392  -0.203   3.399   9.771 -0.0758 -0.3394 -0.2290
  110OSM   H10F11393  -0.295   3.458   9.755 -0.4040 -0.0973  2.2197
  110OSM   C11F11394  -0.165   3.309   9.659 -0.1096  0.4353 -0.2709
  110OSM   H11F11395  -0.216   3.211   9.671 -0.2664  0.7577  2.0942
  110OSM   H11G11396  -0.056   3.290   9.676 -0.3947  1.9322  5.2133
  110OSM   C12F11397  -0.205   3.362   9.524 -0.1109  0.3054  0.3938
  110OSM   H12F11398  -0.186   3.468   9.500  3.3113 -0.4755 -0.9696
  110OSM   H12G11399  -0.310   3.336   9.497  0.8170 -2.1621 -1.1492
  110OSM   C13F11400  -0.135   3.272   9.419 -0.1178  0.3875 -0.4919
  110OSM   H13F11401  -0.105   3.176   9.464  0.9330 -0.4542 -2.8330
  110OSM   H13G11402  -0.039   3.319   9.389  0.2509  1.0478  1.6011
  110OSM   C14F11403  -0.221   3.256   9.292  0.4692 -0.6606  0.6052
  110OSM   H14F11404  -0.302   3.188   9.324  0.9579 -1.3225  0.4550
  110OSM   H14G11405  -0.163   3.211   9.209  2.8034  3.0276  0.0110
  110OSM   C15F11406  -0.268   3.393   9.242 -0.3973 -0.0323  0.3080
  110OSM   H15F11407  -0.177   3.455   9.232  0.0618 -0.8886 -1.0363
  110OSM   H15G11408  -0.342   3.437   9.312 -0.5567  0.8315 -0.3753
  110OSM   C16F11409  -0.331   3.381   9.107 -0.1007  0.1519 -0.7664
  110OSM   H16F11410  -0.253   3.329   9.048  0.0926  0.0216 -0.3961
  110OSM   H16G11411  -0.350   3.482   9.064 -1.6769 -1.0236 -3.0923
  110OSM   C17F11412  -0.462   3.295   9.098 -0.3073 -0.4749  0.0094
  110OSM   H17F11413  -0.528   3.341   9.175 -1.6544 -0.5995 -1.0266
  110OSM   H17G11414  -0.446   3.190   9.131  1.6327  0.0226  0.7457
  110OSM   C18F11415  -0.524   3.301   8.956 -0.1376  0.4149 -0.2398
  110OSM   H18F11416  -0.629   3.264   8.961  0.0232  0.1105  1.5719
  110OSM   H18G11417  -0.467   3.241   8.882  0.0442  0.4583 -0.1338
  110OSM   H18H11418  -0.528   3.409   8.932  0.8661  1.4924  3.8187
  111OSM      N11419   6.432   1.100  11.127 -0.1462  0.5251 -0.0720
  111OSM    C1511420   6.462   0.969  11.206  0.0361  0.0638 -0.0678
  111OSM   H15A11421   6.427   0.885  11.149  0.9913 -1.2689  1.2359
  111OSM   H15B11422   6.410   0.965  11.300 -1.5441 -1.6492 -0.9354
  111OSM   H15C11423   6.567   0.955  11.227 -0.2718 -0.4416  1.1926
  111OSM    C1411424   6.288   1.112  11.116 -0.5516 -0.1915  0.3006
  111OSM   H14A11425   6.249   1.209  11.089 -1.2346 -0.7183 -0.6660
  111OSM   H14B11426   6.234   1.087  11.206 -2.7284  0.4476 -0.7338
  111OSM   H14C11427   6.245   1.046  11.042 -3.3239  1.9785 -0.2310
  111OSM    C1311428   6.469   1.214  11.206 -1.0736 -0.1284  0.0560
  111OSM   H13A11429   6.572   1.204  11.236 -1.1151 -0.5995  0.0494
  111OSM   H13B11430   6.411   1.224  11.297  1.0262  2.0308  1.2818
  111OSM   H13C11431   6.464   1.295  11.135 -0.5582  0.0096  0.1768
  111OSM    C1211432   6.504   1.112  10.991  0.3208 -0.3380 -0.0043
  111OSM   H12A11433   6.608   1.131  11.015  0.6848 -0.6392 -1.2851
  111OSM   H12B11434   6.470   1.200  10.939 -0.3496  0.0778  1.0884
  111OSM    C1111435   6.489   0.999  10.884  0.3170 -0.7056  0.6954
  111OSM   H11A11436   6.512   0.901  10.930  2.2434 -1.3534 -1.4400
  111OSM   H11B11437   6.565   1.017  10.805  1.5403  2.1013  2.3537
  111OSM      P11438   6.302   1.102  10.739  0.1256 -0.5471  0.0602
  111OSM    O1311439   6.152   1.106  10.749  0.4763  0.2918  0.2179
  111OSM    O1411440   6.371   1.231  10.766  0.2721 -1.1245  0.2502
  111OSM    O1111441   6.343   1.030  10.602  0.2359 -0.0726 -0.5764
  111OSM    O1211442   6.352   0.999  10.840  0.5643 -0.4229 -0.0905
  111OSM    C1S11443   6.293   0.902  10.557 -0.4797 -0.2829  0.2153
  111OSM    H1S11444   6.208   0.866  10.619 -0.7528 -0.6718 -0.3755
  111OSM    H1T11445   6.367   0.818  10.563  0.2913  0.2607 -1.3407
  111OSM     NF11446   6.185   0.809  10.363 -0.3438  0.0860 -0.5239
  111OSM    HNF11447   6.226   0.746  10.297 -0.0292 -1.9075  1.4712
  111OSM    C2S11448   6.259   0.920  10.408  0.5367  0.0192  0.1121
  111OSM    H2S11449   6.193   1.009  10.398  0.5202 -0.0482 -0.4173
  111OSM    C3S11450   6.379   0.949  10.318 -0.6183 -0.6406 -0.5256
  111OSM    H3S11451   6.449   0.864  10.327  1.6513  1.2543  1.1454
  111OSM     O311452   6.462   1.066  10.345  0.9291  0.6570 -0.3118
  111OSM    HO311453   6.420   1.097  10.426  0.5650 -0.7912  0.0708
  111OSM    C4S11454   6.328   0.970  10.185 -0.3908  0.3208 -0.9555
  111OSM    H4S11455   6.286   1.071  10.178 -0.1801  0.7376  2.2230
  111OSM    C5S11456   6.341   0.895  10.069 -0.0999 -0.1539 -0.3828
  111OSM    H5S11457   6.388   0.796  10.083  0.5271  0.3164  0.9757
  111OSM    C6S11458   6.293   0.925   9.928  0.3114 -0.8043 -0.4626
  111OSM    H6S11459   6.379   0.912   9.859 -0.6295  0.1520 -1.8788
  111OSM    H6T11460   6.259   1.031   9.928  0.1731 -0.8009  2.0283
  111OSM    C7S11461   6.183   0.855   9.860  0.1478 -0.2170 -0.3567
  111OSM    H7S11462   6.087   0.858   9.916 -1.8461 -0.9967 -3.4506
  111OSM    H7T11463   6.199   0.745   9.850 -0.4889 -0.2591 -1.0618
  111OSM    C8S11464   6.146   0.897   9.714 -0.1946  0.0345 -0.1128
  111OSM    H8S11465   6.128   1.006   9.713  0.9211  0.2273 -0.5928
  111OSM    H8T11466   6.045   0.861   9.682 -0.3113  1.3517 -1.3068
  111OSM    C9S11467   6.266   0.880   9.614 -0.9966  0.5101 -0.5598
  111OSM    H9S11468   6.297   0.773   9.620 -2.5154 -0.0243 -1.4508
  111OSM    H9T11469   6.351   0.945   9.644  1.7790 -1.9350 -2.5209
  111OSM   C10S11470   6.229   0.912   9.469 -0.0314 -1.0020 -0.4903
  111OSM   H10S11471   6.320   0.934   9.410 -0.7085  2.4196 -0.4760
  111OSM   H10T11472   6.179   1.012   9.474 -0.0353 -1.0610  1.1903
  111OSM   C11S11473   6.161   0.805   9.397 -0.0214  0.6180  0.3795
  111OSM   H11S11474   6.065   0.789   9.451 -0.1973 -0.7718 -0.3160
  111OSM   H11T11475   6.202   0.702   9.398  0.5728  0.8477  1.2880
  111OSM   C12S11476   6.126   0.841   9.253  0.0694 -0.7259  0.3774
  111OSM   H12S11477   6.228   0.833   9.210  0.2555  0.2461  0.6224
  111OSM   H12T11478   6.102   0.949   9.249  1.6232 -0.3108  1.6122
  111OSM   C13S11479   6.029   0.733   9.197  0.4752 -0.4880  0.1070
  111OSM   H13S11480   6.080   0.639   9.228  0.3525 -0.9044 -0.9179
  111OSM   H13T11481   6.025   0.751   9.087  1.0417  0.4459  0.2315
  111OSM   C14S11482   5.889   0.725   9.261 -0.4274  0.6537  0.3061
  111OSM   H14S11483   5.839   0.824   9.259 -2.1762 -0.1941 -1.9315
  111OSM   H14T11484   5.921   0.700   9.365  1.1271 -3.3396 -0.9464
  111OSM   C15S11485   5.802   0.614   9.209 -0.1234 -0.0393  0.3549
  111OSM   H15S11486   5.860   0.520   9.226  0.7717  0.9154  3.2028
  111OSM   H15T11487   5.775   0.629   9.103 -2.9737 -1.4581  0.7872
  111OSM   C16S11488   5.675   0.609   9.295 -0.0328 -0.0610 -0.4687
  111OSM   H16S11489   5.636   0.713   9.295  1.4454  0.7772  4.4465
  111OSM   H16T11490   5.715   0.593   9.397  2.2457  0.9015 -1.1344
  111OSM   C17S11491   5.572   0.509   9.243  0.1871  0.9396 -0.3266
  111OSM   H17S11492   5.509   0.473   9.327  0.9063  1.5212  0.4839
  111OSM   H17T11493   5.621   0.417   9.204 -0.9548  0.3501 -0.4067
  111OSM   C18S11494   5.486   0.557   9.124 -0.2277 -0.5320  0.0443
  111OSM   H18S11495   5.475   0.667   9.109  2.6596  0.0951  1.7131
  111OSM   H18T11496   5.386   0.510   9.130 -0.6064 -0.0316 -1.7043
  111OSM   H18U11497   5.520   0.513   9.028 -2.3527 -0.0868 -0.9851
  111OSM    C1F11498   6.064   0.775  10.407  0.3763 -0.1536 -0.6181
  111OSM     OF11499   6.006   0.835  10.500 -0.0029  0.4797  0.8111
  111OSM    C2F11500   5.997   0.656  10.339 -0.2511 -0.7096  0.5330
  111OSM    H2F11501   5.895   0.651  10.383 -0.5991 -2.0639 -0.3390
  111OSM    H2G11502   6.062   0.570  10.367 -1.5690 -1.5079  1.2826
  111OSM    C3F11503   5.986   0.684  10.190  0.2883 -0.2046 -0.0097
  111OSM    H3F11504   6.068   0.738  10.138 -2.5977  3.4942 -1.1767
  111OSM    H3G11505   5.904   0.758  10.186 -0.5734 -1.0459  1.1335
  111OSM    C4F11506   5.958   0.556  10.116 -0.0103  0.7419 -0.3824
  111OSM    H4F11507   5.863   0.512  10.152  0.6354 -1.3138 -1.0709
  111OSM    H4G11508   6.042   0.486  10.133 -1.5211 -0.9282  0.4964
  111OSM    C5F11509   5.952   0.571   9.965  0.1924  0.2883  0.0618
  111OSM    H5F11510   6.054   0.612   9.948 -0.2900  0.7290 -2.1226
  111OSM    H5G11511   5.890   0.658   9.936  1.6279  1.9588  1.7593
  111OSM    C6F11512   5.921   0.439   9.894 -0.0744 -0.6223 -0.2209
  111OSM    H6F11513   5.824   0.398   9.929 -0.0412  0.2475  0.9521
  111OSM    H6G11514   6.001   0.364   9.917  1.3724  0.7627 -0.5280
  111OSM    C7F11515   5.909   0.454   9.746  0.1856  0.1157 -0.2997
  111OSM    H7F11516   6.002   0.487   9.695  1.5234 -1.3408  1.0969
  111OSM    H7G11517   5.830   0.531   9.729  0.2936  0.7228  1.7218
  111OSM    C8F11518   5.872   0.319   9.684  0.1716 -0.5198  0.1153
  111OSM    H8F11519   5.780   0.278   9.731 -1.2285 -0.8549 -2.7318
  111OSM    H8G11520   5.950   0.240   9.689  2.2015  1.2734 -0.9639
  111OSM    C9F11521   5.848   0.347   9.539  0.4143  0.1323  0.1734
  111OSM    H9F11522   5.912   0.425   9.494 -0.5145  1.0721  0.4273
  111OSM   C10F11523   5.772   0.276   9.453  0.4717  0.2013  0.1695
  111OSM   H10F11524   5.768   0.305   9.347 -0.3431  0.8819  0.3700
  111OSM   C11F11525   5.700   0.151   9.490 -0.2053 -0.1016 -0.1775
  111OSM   H11F11526   5.600   0.154   9.442  1.1767  2.2019 -3.2592
  111OSM   H11G11527   5.692   0.135   9.599  1.9466  1.1546  0.2296
  111OSM   C12F11528   5.767   0.033   9.415 -0.7182  0.3796 -0.1798
  111OSM   H12F11529   5.745   0.042   9.306 -1.7120 -2.2827 -0.2805
  111OSM   H12G11530   5.715  -0.060   9.449  0.3625  1.0441  3.7419
  111OSM   C13F11531   5.918   0.013   9.462  0.5780 -0.5264  0.1319
  111OSM   H13F11532   5.929   0.036   9.570  2.2056 -0.5694  0.0098
  111OSM   H13G11533   5.974   0.094   9.410 -0.4772  1.2104  1.5592
  111OSM   C14F11534   5.969  -0.129   9.436 -0.0116 -0.2615 -0.0486
  111OSM   H14F11535   5.931  -0.182   9.346  0.1593 -1.2940  0.4725
  111OSM   H14G11536   5.954  -0.198   9.522 -0.0265 -1.7020 -1.1680
  111OSM   C15F11537   6.121  -0.137   9.429 -0.3030 -0.4991 -0.3409
  111OSM   H15F11538   6.162  -0.062   9.358  2.9585 -1.0583  0.8121
  111OSM   H15G11539   6.146  -0.242   9.402 -2.3802 -0.6329 -2.0965
  111OSM   C16F11540   6.189  -0.097   9.563  0.4389  0.4066 -0.6656
  111OSM   H16F11541   6.148  -0.154   9.648 -1.3867  0.4351 -1.4782
  111OSM   H16G11542   6.178   0.011   9.585  1.1833  0.4244 -0.3427
  111OSM   C17F11543   6.337  -0.139   9.559  0.2610 -0.1439  0.1241
  111OSM   H17F11544   6.397  -0.076   9.491 -0.0233  0.2311  0.2181
  111OSM   H17G11545   6.351  -0.238   9.511  2.4552  0.3788 -0.4099
  111OSM   C18F11546   6.391  -0.140   9.695 -0.2109  0.3018 -0.2052
  111OSM   H18F11547   6.337  -0.224   9.744 -0.6706  1.8428  2.1134
  111OSM   H18G11548   6.361  -0.050   9.753 -2.3777 -0.0638 -0.6427
  111OSM   H18H11549   6.501  -0.149   9.704 -0.1067  2.4900  1.8523
  112OSM      N11550   2.414   2.232  11.132  0.0995 -0.4266  0.1051
  112OSM    C1511551   2.268   2.222  11.153 -0.1283  0.8435 -0.0362
  112OSM   H15A11552   2.248   2.126  11.197  2.0143  0.6580  0.6193
  112OSM   H15B11553   2.222   2.234  11.056  2.5345  2.5525 -1.1956
  112OSM   H15C11554   2.225   2.305  11.207 -1.1371  0.5060 -0.2967
  112OSM    C1411555   2.454   2.371  11.097 -0.6294  0.3097  0.4737
  112OSM   H14A11556   2.556   2.364  11.064 -0.1805 -1.1933  2.0631
  112OSM   H14B11557   2.447   2.443  11.177 -1.7139  1.2600 -0.4276
  112OSM   H14C11558   2.387   2.397  11.017 -2.1744 -3.7470  0.2061
  112OSM    C1311559   2.474   2.199  11.265 -0.3961 -0.2784  0.1931
  112OSM   H13A11560   2.447   2.104  11.307 -0.1322 -1.0652 -1.3694
  112OSM   H13B11561   2.455   2.280  11.335 -0.3805  0.2258 -0.3722
  112OSM   H13C11562   2.579   2.197  11.240 -0.4895  0.3074 -0.2750
  112OSM    C1211563   2.456   2.127  11.020  0.3058 -0.8319 -0.4049
  112OSM   H12A11564   2.403   2.149  10.928  0.5368 -0.4454 -0.4481
  112OSM   H12B11565   2.413   2.032  11.046 -3.6294  0.8081 -0.0746
  112OSM    C1111566   2.596   2.127  10.960 -0.8012 -0.2773 -0.6638
  112OSM   H11A11567   2.616   2.038  10.896 -0.2827 -1.0905  0.5652
  112OSM   H11B11568   2.660   2.113  11.050 -2.1664 -1.4881  0.1748
  112OSM      P11569   2.758   2.317  10.896 -0.0147 -0.0557  0.4792
  112OSM    O1311570   2.766   2.446  10.826  0.2966 -0.0229 -0.2757
  112OSM    O1411571   2.814   2.309  11.040  0.6593  0.2584  0.2874
  112OSM    O1111572   2.832   2.215  10.794  0.8071  0.5934  0.4521
  112OSM    O1211573   2.602   2.256  10.889  0.2330  0.3373 -0.0200
  112OSM    C1S11574   2.771   2.183  10.672  0.7127 -0.1495 -0.1449
  112OSM    H1S11575   2.762   2.272  10.606  0.0523 -2.3582 -3.3135
  112OSM    H1T11576   2.665   2.151  10.684  0.1668  1.2553 -1.0170
  112OSM     NF11577   2.795   2.041  10.470  0.3130 -0.5101 -0.1062
  112OSM    HNF11578   2.786   1.946  10.439  1.5035 -0.1578 -1.6582
  112OSM    C2S11579   2.859   2.074  10.599  0.3856  0.1602  0.3256
  112OSM    H2S11580   2.956   2.121  10.576  1.7737 -0.2729  4.4371
  112OSM    C3S11581   2.881   1.948  10.683  0.3561 -0.2534  0.2681
  112OSM    H3S11582   2.776   1.917  10.701 -0.1017  0.1229 -1.5959
  112OSM     O311583   2.928   1.971  10.811  0.1735  0.2042 -0.5233
  112OSM    HO311584   2.910   2.064  10.828  0.7279  0.4159 -1.0801
  112OSM    C4S11585   2.959   1.841  10.609 -0.1234  0.7378 -0.2990
  112OSM    H4S11586   3.066   1.859  10.588  0.4037  0.3107  1.7274
  112OSM    C5S11587   2.902   1.720  10.584  0.0852  0.3473 -0.4609
  112OSM    H5S11588   2.801   1.695  10.620 -0.6314  1.4837 -1.5970
  112OSM    C6S11589   2.966   1.597  10.521  0.3394 -0.8839 -0.3050
  112OSM    H6S11590   2.885   1.537  10.474 -1.0201  1.2346 -0.8039
  112OSM    H6T11591   3.006   1.549  10.613 -0.4136 -0.9140  0.0211
  112OSM    C7S11592   3.068   1.621  10.411  0.3271  0.8348  0.2435
  112OSM    H7S11593   3.079   1.522  10.361 -1.4064  0.1031  1.2122
  112OSM    H7T11594   3.160   1.650  10.466  0.5736  0.0882  0.2327
  112OSM    C8S11595   3.026   1.711  10.295  0.6953  0.0943  0.1438
  112OSM    H8S11596   3.121   1.737  10.244 -0.1935  0.8152 -1.2070
  112OSM    H8T11597   2.982   1.801  10.341 -0.0498 -0.1443 -0.0860
  112OSM    C9S11598   2.939   1.632  10.205  0.4977  0.0903 -0.6138
  112OSM    H9S11599   2.857   1.575  10.255  0.7674 -1.6532 -2.0452
  112OSM    H9T11600   3.006   1.556  10.160  1.1317 -0.5585  1.3096
  112OSM   C10S11601   2.867   1.715  10.094 -0.1056  0.4310  0.1144
  112OSM   H10S11602   2.950   1.727  10.022  0.4099 -0.3358  0.5736
  112OSM   H10T11603   2.822   1.809  10.133  1.3798  1.3520 -0.3019
  112OSM   C11S11604   2.759   1.634  10.030 -0.4774  0.4577  0.4188
  112OSM   H11S11605   2.674   1.620  10.099 -1.3990 -3.6260 -1.2493
  112OSM   H11T11606   2.793   1.530  10.014 -1.1834  0.0917  1.2418
  112OSM   C12S11607   2.704   1.681   9.899  0.2172 -0.1740  0.5157
  112OSM   H12S11608   2.793   1.687   9.833 -0.7470  0.4571 -0.7680
  112OSM   H12T11609   2.652   1.778   9.909 -1.0354 -0.8764  1.0369
  112OSM   C13S11610   2.606   1.577   9.846  0.2011 -0.2119 -0.0857
  112OSM   H13S11611   2.530   1.568   9.926  1.8048 -2.2088  1.3339
  112OSM   H13T11612   2.662   1.482   9.831 -2.1718 -1.7679  0.4176
  112OSM   C14S11613   2.524   1.610   9.714 -0.3361  0.1241 -0.2119
  112OSM   H14S11614   2.468   1.704   9.731 -0.7378 -0.4262  1.7712
  112OSM   H14T11615   2.452   1.525   9.701 -0.0467 -0.6994  2.9371
  112OSM   C15S11616   2.614   1.633   9.588  0.7093 -0.7813  1.0762
  112OSM   H15S11617   2.693   1.555   9.582 -0.9486 -2.3812 -1.3180
  112OSM   H15T11618   2.665   1.729   9.611 -0.0728 -0.8987  3.7056
  112OSM   C16S11619   2.516   1.632   9.463 -0.5173 -0.8790  0.9320
  112OSM   H16S11620   2.451   1.719   9.486  0.5926 -0.0966  1.2105
  112OSM   H16T11621   2.441   1.551   9.456  0.2549 -1.5528  0.1421
  112OSM   C17S11622   2.593   1.657   9.329 -0.1968 -0.5675  0.7082
  112OSM   H17S11623   2.628   1.558   9.292 -1.0794 -1.0718  1.1838
  112OSM   H17T11624   2.688   1.712   9.339  0.2828 -1.5544  1.8749
  112OSM   C18S11625   2.530   1.742   9.208 -0.4110 -0.6366 -0.0367
  112OSM   H18S11626   2.483   1.831   9.256  0.5732 -1.0885  1.8637
  112OSM   H18T11627   2.456   1.677   9.157 -0.0289 -1.2821  0.2159
  112OSM   H18U11628   2.599   1.783   9.132 -0.5905 -1.0116 -0.4081
  112OSM    C1F11629   2.766   2.126  10.373  0.8674  0.2253 -0.2148
  112OSM     OF11630   2.787   2.240  10.388 -0.5408 -0.8883  0.1323
  112OSM    C2F11631   2.711   2.073  10.240  0.1405 -0.2412 -0.4344
  112OSM    H2F11632   2.636   1.993  10.252 -0.4262  0.4255  0.6206
  112OSM    H2G11633   2.797   2.033  10.181  0.4266  0.3153 -0.3977
  112OSM    C3F11634   2.637   2.194  10.176 -0.1554  0.1128 -0.1720
  112OSM    H3F11635   2.724   2.254  10.142 -0.4276 -0.1086 -1.3368
  112OSM    H3G11636   2.585   2.251  10.256 -3.2901 -0.3944 -1.6761
  112OSM    C4F11637   2.544   2.165  10.059  0.1838 -0.1572 -0.8371
  112OSM    H4F11638   2.500   2.258  10.016 -0.8029 -0.8411 -1.3519
  112OSM    H4G11639   2.454   2.107  10.087 -0.5338  1.3854  0.2138
  112OSM    C5F11640   2.625   2.099   9.954  0.1172  0.6116  0.4873
  112OSM    H5F11641   2.662   2.006  10.003 -0.4977 -1.0362 -1.9626
  112OSM    H5G11642   2.708   2.162   9.915  0.4024 -1.4020 -2.5058
  112OSM    C6F11643   2.540   2.063   9.835  0.8998  0.7276  0.1223
  112OSM    H6F11644   2.447   2.015   9.871  1.9822 -1.4968  0.1081
  112OSM    H6G11645   2.589   1.985   9.774  3.0433  1.1179  1.2243
  112OSM    C7F11646   2.504   2.182   9.740 -0.1274 -0.6415  0.4793
  112OSM    H7F11647   2.600   2.231   9.713 -0.1746 -1.1220 -0.5890
  112OSM    H7G11648   2.443   2.253   9.800  1.4560 -0.9938  2.6343
  112OSM    C8F11649   2.427   2.146   9.611 -0.0943 -0.2115  0.3244
  112OSM    H8F11650   2.405   2.231   9.543  1.6667  0.6569  0.7649
  112OSM    H8G11651   2.325   2.110   9.635 -1.6889 -0.2871 -5.1865
  112OSM    C9F11652   2.507   2.038   9.540  0.6752  0.1339 -0.2597
  112OSM    H9F11653   2.530   1.951   9.603  0.0296  0.4334  0.4079
  112OSM   C10F11654   2.557   2.049   9.416 -0.7158  0.2678 -0.0426
  112OSM   H10F11655   2.603   1.963   9.366  1.6078  1.0966  0.5040
  112OSM   C11F11656   2.540   2.172   9.333  0.8180  0.1424 -0.5668
  112OSM   H11F11657   2.566   2.274   9.368 -1.5856  1.1075 -1.3544
  112OSM   H11G11658   2.431   2.195   9.329  1.2115  2.3688  0.1280
  112OSM   C12F11659   2.588   2.149   9.186  0.6239  0.2036  0.2268
  112OSM   H12F11660   2.544   2.224   9.117  0.2054 -0.4521 -0.2216
  112OSM   H12G11661   2.534   2.060   9.146 -0.3289  1.1916 -0.7480
  112OSM   C13F11662   2.741   2.149   9.169 -0.0299 -0.6063 -0.5815
  112OSM   H13F11663   2.794   2.069   9.225  2.2391  1.0621 -0.1604
  112OSM   H13G11664   2.783   2.242   9.214 -0.1865  0.0702 -1.7979
  112OSM   C14F11665   2.786   2.151   9.023  0.3836  0.1171  0.1744
  112OSM   H14F11666   2.739   2.237   8.969  3.3567  0.4704 -2.0888
  112OSM   H14G11667   2.745   2.059   8.976 -2.2103  1.3854 -0.2591
  112OSM   C15F11668   2.940   2.143   9.023  0.3865 -0.5053 -1.2797
  112OSM   H15F11669   2.961   2.038   9.053 -2.9237 -1.5015 -2.0489
  112OSM   H15G11670   2.970   2.220   9.097 -2.5579  1.6467 -2.1484
  112OSM   C16F11671   2.988   2.167   8.886 -0.2537  0.3998  0.4137
  112OSM   H16F11672   3.099   2.167   8.893 -0.0870  1.0535 -1.5477
  112OSM   H16G11673   2.954   2.267   8.850 -1.0813 -0.1097 -0.2616
  112OSM   C17F11674   2.939   2.060   8.789 -0.2859  0.1054  0.5662
  112OSM   H17F11675   2.835   2.023   8.802 -1.3535  3.4372  2.6625
  112OSM   H17G11676   3.003   1.970   8.805 -1.6527 -1.0283 -0.0975
  112OSM   C18F11677   2.969   2.094   8.638  0.7291  0.3481 -0.6211
  112OSM   H18F11678   2.982   2.003   8.575  0.6854  0.9905 -1.5746
  112OSM   H18G11679   3.051   2.168   8.633 -1.1098  2.4542 -2.1841
  112OSM   H18H11680   2.886   2.150   8.589 -0.9299  1.7127  3.3277
  113OSM      N11681   6.795   5.155  10.817  0.2194  0.1661 -0.6322
  113OSM    C1511682   6.684   5.128  10.725 -0.6826 -0.0403 -0.1610
  113OSM   H15A11683   6.713   5.041  10.667 -1.7032 -0.5517  0.0773
  113OSM   H15B11684   6.676   5.214  10.660 -0.1756  0.5535  0.5412
  113OSM   H15C11685   6.598   5.099  10.782 -0.1448 -0.7950  0.2871
  113OSM    C1411686   6.738   5.245  10.926 -0.5113 -0.0809  0.2483
  113OSM   H14A11687   6.731   5.349  10.895  0.4633  0.2001  0.9303
  113OSM   H14B11688   6.815   5.242  11.001  1.0995 -4.2028 -1.3165
  113OSM   H14C11689   6.642   5.214  10.965 -0.9444  0.2517 -0.5281
  113OSM    C1311690   6.830   5.028  10.889 -0.2535 -0.2708  0.1032
  113OSM   H13A11691   6.743   4.973  10.923  0.9826 -1.6683  1.1418
  113OSM   H13B11692   6.887   5.054  10.977 -0.4144  1.7972 -0.3521
  113OSM   H13C11693   6.886   4.968  10.819  1.4437  1.9238 -0.5086
  113OSM    C1211694   6.920   5.216  10.753  0.3131 -0.3153  0.0246
  113OSM   H12A11695   6.893   5.312  10.712  1.9186 -0.1053 -0.6007
  113OSM   H12B11696   6.938   5.146  10.673 -3.1652 -1.7304  0.2903
  113OSM    C1111697   7.045   5.235  10.839  0.3757 -0.4662  0.1956
  113OSM   H11A11698   7.139   5.250  10.783 -0.3009 -1.7982 -1.3564
  113OSM   H11B11699   7.069   5.131  10.870  1.7422 -0.4675 -0.7954
  113OSM      P11700   7.034   5.481  10.933  0.0580  0.1705  0.0471
  113OSM    O1311701   6.893   5.530  10.911  0.0200 -0.1988  0.6207
  113OSM    O1411702   7.109   5.540  11.048  0.0141 -0.5389 -0.1784
  113OSM    O1111703   7.115   5.516  10.807  0.2471  0.0122  0.0658
  113OSM    O1211704   7.024   5.325  10.951 -0.6816 -0.5137  0.2551
  113OSM    C1S11705   7.057   5.608  10.709  0.8211 -0.3869 -0.1523
  113OSM    H1S11706   7.025   5.705  10.751  0.6868  0.6624 -2.5512
  113OSM    H1T11707   6.970   5.563  10.658 -0.0457 -0.2570  1.1557
  113OSM     NF11708   7.116   5.743  10.517  0.1310  0.5573 -0.1885
  113OSM    HNF11709   7.076   5.724  10.428 -1.5201  1.3473  0.3561
  113OSM    C2S11710   7.167   5.630  10.601  0.2859 -0.2836 -0.6067
  113OSM    H2S11711   7.257   5.667  10.656 -0.8438  2.3424 -0.4006
  113OSM    C3S11712   7.203   5.500  10.528  0.4614  0.4712  0.1683
  113OSM    H3S11713   7.115   5.452  10.479  1.0568 -0.1740 -0.2982
  113OSM     O311714   7.259   5.391  10.609 -0.1272  0.5934  0.4070
  113OSM    HO311715   7.250   5.430  10.696 -0.4331 -0.5974  0.9169
  113OSM    C4S11716   7.285   5.535  10.406 -0.2035 -0.1427  0.5413
  113OSM    H4S11717   7.225   5.567  10.319 -0.7720 -2.1823  0.1444
  113OSM    C5S11718   7.420   5.533  10.396  0.1681 -0.4404 -0.4131
  113OSM    H5S11719   7.477   5.502  10.485  2.5762 -0.0082 -1.7118
  113OSM    C6S11720   7.503   5.576  10.279 -0.5361  0.3498  0.8062
  113OSM    H6S11721   7.573   5.497  10.245  0.0665  1.2684 -0.1539
  113OSM    H6T11722   7.568   5.658  10.315  0.0033 -0.1619  1.0264
  113OSM    C7S11723   7.429   5.618  10.156 -0.4483  0.0597  0.3986
  113OSM    H7S11724   7.368   5.703  10.192 -3.4281 -2.2500  1.1755
  113OSM    H7T11725   7.349   5.547  10.127 -0.8735 -0.0771  1.8372
  113OSM    C8S11726   7.520   5.641  10.032  0.7591  0.2226 -0.1352
  113OSM    H8S11727   7.561   5.542  10.001  1.6629  0.6425 -0.2987
  113OSM    H8T11728   7.613   5.695  10.062  0.5316  0.9568 -0.7489
  113OSM    C9S11729   7.448   5.690   9.905 -0.4704  0.0951  0.0898
  113OSM    H9S11730   7.429   5.799   9.915  2.0801  0.5616  0.4908
  113OSM    H9T11731   7.355   5.630   9.892  0.4506 -1.2489 -0.5936
  113OSM   C10S11732   7.529   5.668   9.781 -0.0003  0.1175  0.7374
  113OSM   H10S11733   7.558   5.562   9.774 -0.8100 -0.2788  2.5763
  113OSM   H10T11734   7.626   5.721   9.792  1.4791 -2.3521  0.1495
  113OSM   C11S11735   7.461   5.715   9.657  0.7108  0.6987  0.4264
  113OSM   H11S11736   7.462   5.826   9.663 -1.2621  0.8008 -0.2472
  113OSM   H11T11737   7.355   5.681   9.659 -0.0146  2.4782 -2.2148
  113OSM   C12S11738   7.523   5.678   9.521 -0.6115 -0.0604 -0.1495
  113OSM   H12S11739   7.512   5.568   9.506  2.1752 -0.9996  3.1837
  113OSM   H12T11740   7.628   5.707   9.545 -1.6786  1.3738  3.5985
  113OSM   C13S11741   7.463   5.758   9.407 -0.0251 -0.3824  0.1274
  113OSM   H13S11742   7.465   5.863   9.443 -3.6387 -0.0160 -0.3705
  113OSM   H13T11743   7.357   5.725   9.407  0.6223 -2.6800  1.7410
  113OSM   C14S11744   7.521   5.742   9.265  0.4252 -0.0721  0.4945
  113OSM   H14S11745   7.511   5.636   9.233  2.7392 -0.1401 -0.2081
  113OSM   H14T11746   7.629   5.769   9.257 -0.1213  2.0746 -0.2137
  113OSM   C15S11747   7.462   5.824   9.150  0.1630 -0.2197 -0.0874
  113OSM   H15S11748   7.476   5.934   9.151 -1.3635  0.1158 -2.9751
  113OSM   H15T11749   7.353   5.810   9.165  0.2653  0.5422  1.6222
  113OSM   C16S11750   7.510   5.760   9.019 -0.5610 -0.7150 -0.6125
  113OSM   H16S11751   7.484   5.652   9.016 -0.1048 -0.8636 -4.6827
  113OSM   H16T11752   7.617   5.779   8.996 -1.1579  0.9953 -2.3184
  113OSM   C17S11753   7.430   5.808   8.902  0.6026  0.5096  0.1978
  113OSM   H17S11754   7.446   5.918   8.894 -2.0740  0.9876  0.5734
  113OSM   H17T11755   7.325   5.785   8.932  0.7860 -0.1136  0.3822
  113OSM   C18S11756   7.459   5.729   8.775 -0.1321  0.1766 -0.6199
  113OSM   H18S11757   7.434   5.623   8.795  1.2227 -0.1982 -0.7953
  113OSM   H18T11758   7.566   5.742   8.746  0.3067  0.1510  0.9064
  113OSM   H18U11759   7.395   5.767   8.692 -1.8176  1.0120  0.9887
  113OSM    C1F11760   7.099   5.864  10.563  0.2605  0.1503 -0.0093
  113OSM     OF11761   7.137   5.894  10.674 -0.0293  0.1342  0.6737
  113OSM    C2F11762   7.043   5.969  10.471  0.2469  0.3634  0.2696
  113OSM    H2F11763   7.097   5.972  10.375 -2.5651  0.5263 -1.4295
  113OSM    H2G11764   7.068   6.068  10.516 -0.1362  0.5127  0.1594
  113OSM    C3F11765   6.891   5.959  10.437  0.8921  0.4557  0.4309
  113OSM    H3F11766   6.829   5.958  10.530 -0.1275 -2.1811 -0.1877
  113OSM    H3G11767   6.863   5.858  10.402 -0.1050  1.0904 -0.6933
  113OSM    C4F11768   6.852   6.055  10.330 -0.1743 -0.7414  0.2778
  113OSM    H4F11769   6.918   6.045  10.241 -0.0203  0.2748  0.2578
  113OSM    H4G11770   6.880   6.157  10.365  0.5940 -0.2512 -1.6264
  113OSM    C5F11771   6.712   6.036  10.296  0.8318 -0.3616 -0.2661
  113OSM    H5F11772   6.642   6.077  10.373  1.2489 -0.1271 -0.0082
  113OSM    H5G11773   6.685   5.928  10.296  1.5603 -0.5814 -2.2917
  113OSM    C6F11774   6.682   6.086  10.155 -0.0535  0.2267 -0.6816
  113OSM    H6F11775   6.761   6.054  10.084  0.3426  2.9950 -1.6399
  113OSM    H6G11776   6.686   6.197  10.148  0.6683  0.1849 -1.1174
  113OSM    C7F11777   6.552   6.029  10.101 -0.1539  0.8781  0.0264
  113OSM    H7F11778   6.475   6.059  10.175  0.6059  0.3166  1.0655
  113OSM    H7G11779   6.553   5.918  10.095 -2.2431  0.8825 -1.0885
  113OSM    C8F11780   6.506   6.062   9.965 -0.2243 -0.5065 -0.4502
  113OSM    H8F11781   6.409   6.011   9.948  0.6635 -2.9509  1.2296
  113OSM    H8G11782   6.586   6.028   9.895 -0.0454 -0.4007 -0.2982
  113OSM    C9F11783   6.477   6.218   9.958 -0.1910 -0.1382  0.1522
  113OSM    H9F11784   6.468   6.274  10.052  0.0626 -0.2562  0.2481
  113OSM   C10F11785   6.443   6.284   9.841  0.3609  0.4372 -0.0968
  113OSM   H10F11786   6.431   6.393   9.844 -0.4696  0.3308  2.4137
  113OSM   C11F11787   6.428   6.225   9.710  0.1571 -0.4620  0.7442
  113OSM   H11F11788   6.351   6.287   9.659  0.5715  1.2155  2.0621
  113OSM   H11G11789   6.377   6.127   9.713 -1.5844  0.4403  2.9273
  113OSM   C12F11790   6.560   6.220   9.616  0.3104  0.4631  0.3341
  113OSM   H12F11791   6.626   6.141   9.658  1.6099  1.9559  1.2057
  113OSM   H12G11792   6.610   6.317   9.637 -1.3717  1.6046 -0.6630
  113OSM   C13F11793   6.531   6.217   9.468 -0.3255  0.1700 -0.0853
  113OSM   H13F11794   6.468   6.132   9.437 -1.0406  1.0265 -1.0375
  113OSM   H13G11795   6.632   6.207   9.423 -0.2087 -0.5151  0.3194
  113OSM   C14F11796   6.468   6.341   9.402 -0.5047 -0.1784 -0.0082
  113OSM   H14F11797   6.531   6.432   9.408  0.7831 -1.0715  0.5716
  113OSM   H14G11798   6.372   6.375   9.445 -0.6866 -0.8387  0.1137
  113OSM   C15F11799   6.447   6.316   9.256 -0.1779 -0.6739  0.8058
  113OSM   H15F11800   6.367   6.239   9.246 -1.6381  0.8905 -0.1819
  113OSM   H15G11801   6.545   6.290   9.210 -1.2746 -1.2537 -1.3341
  113OSM   C16F11802   6.400   6.436   9.175  0.1252  0.2180 -0.1821
  113OSM   H16F11803   6.455   6.527   9.207 -0.9318  1.4637 -1.7303
  113OSM   H16G11804   6.297   6.451   9.214  0.6895 -1.3323  2.1064
  113OSM   C17F11805   6.419   6.419   9.026  0.0054  0.3048  0.1071
  113OSM   H17F11806   6.361   6.334   8.984  0.5076  0.8044 -1.6920
  113OSM   H17G11807   6.527   6.418   9.000  0.1247  0.3245  0.5987
  113OSM   C18F11808   6.378   6.541   8.950  0.4611 -0.1181  0.1190
  113OSM   H18F11809   6.436   6.632   8.976  0.1747  0.6187 -1.6937
  113OSM   H18G11810   6.270   6.566   8.958 -0.2225 -2.8177  0.3879
  113OSM   H18H11811   6.396   6.523   8.842 -0.5827 -0.0667 -0.0806
  114OSM      N11812   0.779   4.794  11.052  0.7995  0.4473  0.4334
  114OSM    C1511813   0.685   4.848  11.160  0.9880  0.7600 -0.0446
  114OSM   H15A11814   0.647   4.946  11.135 -1.2040  0.1281  0.6040
  114OSM   H15B11815   0.741   4.846  11.253 -3.1383  1.0779  2.7107
  114OSM   H15C11816   0.594   4.792  11.176  0.0044  2.2474 -0.2134
  114OSM    C1411817   0.840   4.674  11.112 -0.3265  0.6968 -0.3707
  114OSM   H14A11818   0.902   4.690  11.198  0.4324 -1.5035 -0.4362
  114OSM   H14B11819   0.893   4.607  11.045 -0.7219 -1.4545  1.3497
  114OSM   H14C11820   0.766   4.599  11.139  1.2436 -1.6404 -2.1222
  114OSM    C1311821   0.697   4.753  10.931 -0.0537  0.3888 -0.3597
  114OSM   H13A11822   0.612   4.694  10.961  1.0281 -1.3447 -0.5180
  114OSM   H13B11823   0.753   4.695  10.859  1.1433  1.3225 -0.2099
  114OSM   H13C11824   0.666   4.839  10.874  2.4390  1.7049  0.1289
  114OSM    C1211825   0.881   4.897  11.013  0.1940  0.2474 -0.3348
  114OSM   H12A11826   0.830   4.977  10.962 -1.0368 -0.1266  0.2716
  114OSM   H12B11827   0.943   4.845  10.942  1.8452  2.1179 -0.3594
  114OSM    C1111828   0.977   4.955  11.118 -0.3298  0.2082 -0.1310
  114OSM   H11A11829   0.913   4.980  11.206 -0.1848 -0.5120  0.1897
  114OSM   H11B11830   1.028   5.046  11.081 -2.4552  2.6954  2.5978
  114OSM      P11831   1.212   4.893  11.207 -0.2787 -0.0207  0.2601
  114OSM    O1311832   1.230   5.020  11.280  0.1610 -0.0774 -0.6519
  114OSM    O1411833   1.270   4.779  11.271  0.3319 -0.1206  0.1540
  114OSM    O1111834   1.275   4.916  11.059  0.5873  0.1165 -0.4220
  114OSM    O1211835   1.061   4.857  11.178  0.3861 -0.5441  0.0224
  114OSM    C1S11836   1.236   4.844  10.937  0.2851  0.1649 -0.3531
  114OSM    H1S11837   1.138   4.794  10.957  1.2891 -1.3638  1.0254
  114OSM    H1T11838   1.311   4.765  10.919  0.7379  0.7209 -0.9189
  114OSM     NF11839   1.186   4.854  10.703  0.1360  0.9514 -0.1498
  114OSM    HNF11840   1.261   4.834  10.640  0.8382 -0.5238  1.0896
  114OSM    C2S11841   1.216   4.943  10.819 -0.0317  0.8542  0.9973
  114OSM    H2S11842   1.124   5.003  10.834 -0.8591  0.7943 -2.7886
  114OSM    C3S11843   1.338   5.035  10.807 -0.2425 -0.0349  0.2232
  114OSM    H3S11844   1.435   4.983  10.810  1.0893  2.2348 -0.7014
  114OSM     O311845   1.354   5.126  10.910  0.0086  0.0660  0.0737
  114OSM    HO311846   1.274   5.116  10.962 -0.6175  1.7917 -0.4935
  114OSM    C4S11847   1.347   5.109  10.677  0.0623 -0.0442  0.2470
  114OSM    H4S11848   1.395   5.054  10.595 -0.1731  1.0505 -0.6446
  114OSM    C5S11849   1.299   5.230  10.637  0.4181 -0.3583 -0.2130
  114OSM    H5S11850   1.245   5.287  10.714  0.6885 -0.4082  0.0150
  114OSM    C6S11851   1.307   5.286  10.502 -0.1976  0.2905 -0.5634
  114OSM    H6S11852   1.352   5.387  10.508  1.2802 -0.3519 -0.2061
  114OSM    H6T11853   1.205   5.310  10.465 -0.1967  0.8104 -0.2240
  114OSM    C7S11854   1.380   5.205  10.390  0.2357 -0.4614 -0.8317
  114OSM    H7S11855   1.344   5.101  10.406  0.0183 -0.2954 -0.1908
  114OSM    H7T11856   1.485   5.224  10.420  0.1939  0.5055 -1.2567
  114OSM    C8S11857   1.346   5.268  10.257  0.1872  0.3660 -0.4249
  114OSM    H8S11858   1.377   5.374  10.262  1.2179  0.1001 -0.8133
  114OSM    H8T11859   1.238   5.246  10.251  0.4281 -1.4115  0.6971
  114OSM    C9S11860   1.417   5.208  10.134  0.0443  0.7402 -0.9162
  114OSM    H9S11861   1.436   5.099  10.148 -1.1261  0.5172 -0.9711
  114OSM    H9T11862   1.514   5.263  10.131  0.6695 -0.2555  0.1083
  114OSM   C10S11863   1.343   5.260  10.009 -0.0527 -0.4356  0.5052
  114OSM   H10S11864   1.306   5.364  10.020 -0.7720 -0.7510  1.1479
  114OSM   H10T11865   1.257   5.190   9.997  0.5158 -1.2352  0.9593
  114OSM   C11S11866   1.437   5.249   9.890 -0.7946  0.6212  0.0454
  114OSM   H11S11867   1.464   5.142   9.879  1.5266  1.0178  1.2734
  114OSM   H11T11868   1.531   5.304   9.912 -1.6007  1.3158  2.0081
  114OSM   C12S11869   1.374   5.308   9.766 -0.0950  0.4518 -0.6264
  114OSM   H12S11870   1.361   5.415   9.795  0.9667  1.6267 -4.0010
  114OSM   H12T11871   1.272   5.265   9.759  1.1622 -2.7821 -0.9803
  114OSM   C13S11872   1.462   5.303   9.642 -0.3255 -0.0469  0.0948
  114OSM   H13S11873   1.493   5.200   9.612 -1.3475 -0.0087 -1.1911
  114OSM   H13T11874   1.554   5.360   9.665 -0.6560  0.5193  0.0286
  114OSM   C14S11875   1.393   5.366   9.524  0.1719  0.7161 -0.0846
  114OSM   H14S11876   1.376   5.474   9.542 -0.7689  0.8190 -1.4665
  114OSM   H14T11877   1.297   5.312   9.514  2.4259 -4.3199  1.9387
  114OSM   C15S11878   1.479   5.339   9.399 -0.0527  0.3560 -0.9503
  114OSM   H15S11879   1.486   5.228   9.399  1.3702  0.4334 -1.3660
  114OSM   H15T11880   1.575   5.385   9.430  0.1544  0.2806 -1.4634
  114OSM   C16S11881   1.408   5.398   9.275 -0.2494  0.2880  0.2555
  114OSM   H16S11882   1.440   5.503   9.265  0.6934 -0.0707 -0.6099
  114OSM   H16T11883   1.298   5.384   9.285 -0.0467 -0.2246  2.2497
  114OSM   C17S11884   1.462   5.321   9.148  0.3715 -0.2338  0.1626
  114OSM   H17S11885   1.438   5.213   9.162  0.6787 -0.1452  1.4742
  114OSM   H17T11886   1.573   5.319   9.145  0.5349  1.9973  1.9419
  114OSM   C18S11887   1.409   5.383   9.017  0.4184  0.4201 -0.4226
  114OSM   H18S11888   1.401   5.494   9.014  0.0238  0.4165  0.3647
  114OSM   H18T11889   1.303   5.357   8.999 -0.0396  0.8134  1.4937
  114OSM   H18U11890   1.477   5.353   8.935  2.4462 -2.4591  2.0726
  114OSM    C1F11891   1.065   4.794  10.681 -0.1220 -0.7423 -0.0124
  114OSM     OF11892   0.983   4.790  10.771 -0.9881  0.0901  0.1666
  114OSM    C2F11893   1.037   4.739  10.546  0.4064 -0.1044 -0.1191
  114OSM    H2F11894   0.932   4.770  10.527  1.0919  1.4074 -1.8284
  114OSM    H2G11895   1.054   4.629  10.541 -0.2924 -0.2341  0.4092
  114OSM    C3F11896   1.111   4.817  10.434 -0.6645 -0.2555  0.6052
  114OSM    H3F11897   1.220   4.798  10.445 -0.8681 -1.0164  1.3668
  114OSM    H3G11898   1.089   4.926  10.440  0.7763  0.1943 -1.1279
  114OSM    C4F11899   1.093   4.776  10.295  0.3491  0.6142  0.7717
  114OSM    H4F11900   0.990   4.811  10.274  0.9353  1.0014 -1.8526
  114OSM    H4G11901   1.086   4.665  10.295 -1.2590  0.6781  2.3392
  114OSM    C5F11902   1.206   4.810  10.198  0.5037  0.5195  0.7766
  114OSM    H5F11903   1.301   4.761  10.228 -0.3494 -1.6250  0.1866
  114OSM    H5G11904   1.222   4.920  10.207  0.0317  0.6108  0.5508
  114OSM    C6F11905   1.169   4.800  10.048 -0.8110  0.1123  0.1681
  114OSM    H6F11906   1.068   4.846  10.035 -0.1206  1.6726  0.0712
  114OSM    H6G11907   1.164   4.690  10.032  1.8742 -0.0646  0.1047
  114OSM    C7F11908   1.273   4.856   9.951 -0.0974 -0.0476  0.5551
  114OSM    H7F11909   1.362   4.790   9.941  0.5392  0.9537 -0.6498
  114OSM    H7G11910   1.315   4.951   9.991  2.2572 -0.9808  0.4347
  114OSM    C8F11911   1.205   4.882   9.818  0.1123  0.3837 -0.1954
  114OSM    H8F11912   1.115   4.943   9.839  2.0891  3.7013 -0.6351
  114OSM    H8G11913   1.171   4.784   9.778 -0.4479 -0.6320  2.5654
  114OSM    C9F11914   1.279   4.962   9.714 -0.1798  0.2858  0.3020
  114OSM    H9F11915   1.353   5.029   9.760 -1.6835  0.9001  1.9191
  114OSM   C10F11916   1.270   4.943   9.577 -0.4348  0.1472 -0.0974
  114OSM   H10F11917   1.327   5.010   9.512 -0.8992  0.8937  0.2526
  114OSM   C11F11918   1.181   4.850   9.501  0.0771 -0.0778  0.1689
  114OSM   H11F11919   1.075   4.885   9.496 -1.3807 -3.9868  0.5269
  114OSM   H11G11920   1.179   4.753   9.554  1.1644  0.3410  1.0190
  114OSM   C12F11921   1.232   4.832   9.354 -0.0332  0.7004  0.0182
  114OSM   H12F11922   1.187   4.735   9.325  1.9430 -0.2916  0.1834
  114OSM   H12G11923   1.341   4.813   9.349 -0.3235 -0.7215 -2.1458
  114OSM   C13F11924   1.209   4.953   9.260 -0.8223 -0.2731 -0.0438
  114OSM   H13F11925   1.273   5.040   9.285  0.7316 -0.4226 -2.9674
  114OSM   H13G11926   1.104   4.986   9.268 -0.5794  0.8468 -1.1840
  114OSM   C14F11927   1.249   4.921   9.115 -0.4173 -0.3109  0.2522
  114OSM   H14F11928   1.180   4.841   9.081  0.0746 -1.0606  0.9761
  114OSM   H14G11929   1.352   4.880   9.113 -1.5661 -3.4422 -0.1238
  114OSM   C15F11930   1.231   5.039   9.013 -0.4177 -0.0456  0.9807
  114OSM   H15F11931   1.312   5.108   9.047  0.5875 -0.5554 -0.2912
  114OSM   H15G11932   1.131   5.084   9.026 -0.4489  0.3056 -0.3211
  114OSM   C16F11933   1.248   4.999   8.867 -0.5304 -0.1253 -0.0688
  114OSM   H16F11934   1.216   5.083   8.801  1.1164  0.7163  0.1440
  114OSM   H16G11935   1.181   4.919   8.830 -2.4881  1.3071  0.1927
  114OSM   C17F11936   1.391   4.955   8.840 -0.0339  0.4003  0.3846
  114OSM   H17F11937   1.410   4.860   8.895 -1.4781 -0.1554 -0.0449
  114OSM   H17G11938   1.464   5.035   8.864 -0.8865  1.4598 -0.4880
  114OSM   C18F11939   1.398   4.902   8.698 -0.2287 -0.0676  0.8795
  114OSM   H18F11940   1.504   4.877   8.676  0.5788  2.1218  1.9007
  114OSM   H18G11941   1.373   4.989   8.634 -1.0275 -1.0198 -0.1410
  114OSM   H18H11942   1.323   4.821   8.686 -0.9249  0.5769  0.8370
  115OSM      N11943   0.186   2.050   6.237  0.0960  0.7562 -0.7339
  115OSM    C1511944   0.148   1.910   6.261 -0.3090  0.4663  0.1810
  115OSM   H15A11945   0.080   1.902   6.345 -2.7743  0.4626 -1.6806
  115OSM   H15B11946   0.242   1.859   6.271  0.1186  0.2901 -3.4530
  115OSM   H15C11947   0.095   1.869   6.176  0.2025 -1.8124  0.9111
  115OSM    C1411948   0.261   2.060   6.110 -0.5123 -0.0413  0.4634
  115OSM   H14A11949   0.198   2.070   6.023 -2.2690 -1.6659  1.4578
  115OSM   H14B11950   0.326   1.976   6.091 -1.4733 -0.2063 -2.6822
  115OSM   H14C11951   0.328   2.145   6.111  0.2395 -0.5970  2.1505
  115OSM    C1311952   0.060   2.134   6.237 -0.7247 -0.7540 -0.2249
  115OSM   H13A11953   0.084   2.232   6.197 -0.6148 -0.6064  0.1939
  115OSM   H13B11954   0.001   2.135   6.328 -1.0925 -1.6357 -0.4494
  115OSM   H13C11955  -0.010   2.095   6.165  0.7380 -0.6770 -1.7550
  115OSM    C1211956   0.277   2.081   6.360  0.4712 -0.3758  0.2639
  115OSM   H12A11957   0.226   2.062   6.453  0.6546 -1.1931  0.2040
  115OSM   H12B11958   0.301   2.186   6.355  1.4525 -0.6112 -0.2427
  115OSM    C1111959   0.417   2.019   6.371 -0.8614 -0.2068 -0.2159
  115OSM   H11A11960   0.423   1.910   6.347  2.9583  0.0256 -0.8091
  115OSM   H11B11961   0.441   2.015   6.479  2.5867 -1.8439 -0.9262
  115OSM      P11962   0.584   2.207   6.324  0.4614 -0.2913  0.4607
  115OSM    O1311963   0.673   2.249   6.214 -0.1672 -0.4412 -0.2257
  115OSM    O1411964   0.485   2.301   6.374  0.0450  0.1045 -0.0821
  115OSM    O1111965   0.664   2.158   6.443  0.2935 -0.1573 -0.3485
  115OSM    O1211966   0.502   2.082   6.279  0.0836  0.6716  0.1834
  115OSM    C1S11967   0.710   2.222   6.561  0.1455  0.0177 -0.5521
  115OSM    H1S11968   0.664   2.323   6.562 -1.3960 -0.5838 -2.5035
  115OSM    H1T11969   0.820   2.229   6.559  0.0788  1.9810  0.4905
  115OSM     NF11970   0.747   2.196   6.811  1.0965  0.7723  0.6025
  115OSM    HNF11971   0.815   2.139   6.858 -0.8491 -0.8009  1.6272
  115OSM    C2S11972   0.685   2.135   6.693  0.8648  0.0235 -0.3127
  115OSM    H2S11973   0.577   2.122   6.714  0.7831  2.0701  0.7750
  115OSM    C3S11974   0.741   1.988   6.670 -0.1254  0.3403  0.5153
  115OSM    H3S11975   0.850   2.005   6.657 -0.5045  1.6213 -1.3770
  115OSM     O311976   0.700   1.923   6.551  0.0694 -0.1574 -0.2377
  115OSM    HO311977   0.667   1.996   6.498 -1.4718 -0.2008  0.5997
  115OSM    C4S11978   0.726   1.902   6.796 -0.0200 -0.4208 -0.0025
  115OSM    H4S11979   0.783   1.927   6.887 -1.9751  0.9160  0.9144
  115OSM    C5S11980   0.621   1.821   6.817 -0.0764 -0.3986 -0.5228
  115OSM    H5S11981   0.540   1.831   6.744 -0.8114  0.5768  0.3938
  115OSM    C6S11982   0.587   1.742   6.943  0.2541 -0.1458 -0.5193
  115OSM    H6S11983   0.566   1.635   6.922 -1.5390 -0.1380  0.9325
  115OSM    H6T11984   0.496   1.787   6.988  0.0336  0.3909 -1.4796
  115OSM    C7S11985   0.691   1.750   7.050  0.1663 -0.0969 -0.4448
  115OSM    H7S11986   0.711   1.855   7.079  0.7020 -0.6033  1.1585
  115OSM    H7T11987   0.789   1.702   7.026 -0.4419 -1.4866 -0.2086
  115OSM    C8S11988   0.638   1.683   7.177  0.1404  0.2845 -0.1523
  115OSM    H8S11989   0.613   1.578   7.147  0.5697  0.4333 -1.0938
  115OSM    H8T11990   0.542   1.734   7.198  1.0607  1.5546  1.0939
  115OSM    C9S11991   0.738   1.692   7.296  0.4721 -0.0811  0.2248
  115OSM    H9S11992   0.805   1.780   7.287  0.6687 -0.3632 -1.3491
  115OSM    H9T11993   0.799   1.600   7.288  0.0850 -0.3706  0.5190
  115OSM   C10S11994   0.651   1.707   7.425  0.8384  0.3010  0.3232
  115OSM   H10S11995   0.573   1.629   7.432  1.8501 -0.8380 -0.5673
  115OSM   H10T11996   0.591   1.800   7.439  1.9356  0.5723  4.8360
  115OSM   C11S11997   0.741   1.676   7.548  0.1946 -0.0702  0.5074
  115OSM   H11S11998   0.820   1.754   7.550  0.5472 -0.4284  0.7163
  115OSM   H11T11999   0.792   1.578   7.538  2.0788  0.7846  1.1989
  115OSM   C12S12000   0.663   1.694   7.678  0.6012 -0.0958 -0.9243
  115OSM   H12S12001   0.583   1.618   7.691  1.4790 -0.6800  1.4929
  115OSM   H12T12002   0.599   1.785   7.675 -0.5856 -0.9137 -2.5562
  115OSM   C13S12003   0.749   1.689   7.808  0.3929  0.0343 -0.9607
  115OSM   H13S12004   0.815   1.778   7.799 -0.1364  0.2938 -2.6981
  115OSM   H13T12005   0.806   1.594   7.806 -0.4879 -0.8218  3.7812
  115OSM   C14S12006   0.661   1.694   7.929  0.1708 -0.6753 -0.5139
  115OSM   H14S12007   0.586   1.613   7.914  0.8872 -1.2350 -1.1122
  115OSM   H14T12008   0.606   1.791   7.930  0.7695 -0.3330 -0.2324
  115OSM   C15S12009   0.747   1.674   8.054 -0.6578 -0.0144 -0.6404
  115OSM   H15S12010   0.820   1.753   8.082  0.2958 -0.1722 -2.4839
  115OSM   H15T12011   0.800   1.579   8.035 -1.1991 -0.0223 -2.2903
  115OSM   C16S12012   0.663   1.680   8.188 -0.7438  0.4813  0.0856
  115OSM   H16S12013   0.564   1.633   8.176 -0.1227 -1.2855  1.4158
  115OSM   H16T12014   0.648   1.789   8.202 -1.1585  0.5287 -0.7048
  115OSM   C17S12015   0.733   1.630   8.312 -0.7835  0.3946 -0.4947
  115OSM   H17S12016   0.829   1.681   8.335  0.7426 -2.6159  0.2396
  115OSM   H17T12017   0.763   1.523   8.308  1.2947  0.7567  2.4329
  115OSM   C18S12018   0.636   1.635   8.427 -0.2767 -0.6883 -0.5369
  115OSM   H18S12019   0.664   1.576   8.517  1.0529 -0.8065 -1.0032
  115OSM   H18T12020   0.536   1.596   8.399 -0.2635 -1.4735  0.4476
  115OSM   H18U12021   0.627   1.741   8.457  0.0718 -0.2715 -1.8246
  115OSM    C1F12022   0.702   2.307   6.864 -0.7435  0.1928 -0.9722
  115OSM     OF12023   0.615   2.363   6.808  0.3168 -0.3373  0.9296
  115OSM    C2F12024   0.768   2.349   6.986  0.1573  0.5245 -0.0646
  115OSM    H2F12025   0.875   2.372   6.972  0.1439  1.8606  1.6028
  115OSM    H2G12026   0.770   2.268   7.062  1.8402  2.0475  1.6500
  115OSM    C3F12027   0.701   2.481   7.040  0.0349 -1.0480  0.2605
  115OSM    H3F12028   0.591   2.479   7.048  0.1506 -3.1363  2.4387
  115OSM    H3G12029   0.728   2.557   6.964 -1.5404  0.2446  0.9630
  115OSM    C4F12030   0.740   2.538   7.182 -0.0129  0.7438  0.6805
  115OSM    H4F12031   0.718   2.460   7.258  0.5174  0.1118  0.2002
  115OSM    H4G12032   0.683   2.631   7.204 -0.6909 -0.0199  2.2699
  115OSM    C5F12033   0.886   2.578   7.183 -1.1544  0.5525  0.0813
  115OSM    H5F12034   0.907   2.662   7.115 -1.1993  0.1563 -0.4249
  115OSM    H5G12035   0.940   2.491   7.140 -0.8474  1.9140 -2.4171
  115OSM    C6F12036   0.938   2.615   7.323  0.5905  0.2564  0.1224
  115OSM    H6F12037   0.862   2.675   7.376  1.9036  1.3193  0.8658
  115OSM    H6G12038   1.018   2.690   7.306 -0.5335  0.9308 -3.0346
  115OSM    C7F12039   0.995   2.494   7.393  0.2151  0.0164 -0.1199
  115OSM    H7F12040   1.073   2.450   7.327 -1.2295 -1.7161 -0.7598
  115OSM    H7G12041   0.922   2.410   7.391  1.6792 -1.3186  0.5429
  115OSM    C8F12042   1.048   2.532   7.530 -0.2341  0.5988  0.4510
  115OSM    H8F12043   1.121   2.615   7.542  1.3066 -0.4736 -0.9370
  115OSM    H8G12044   1.112   2.452   7.573  0.4187  1.1598  0.5349
  115OSM    C9F12045   0.930   2.550   7.622 -0.2002  0.7510 -0.5684
  115OSM    H9F12046   0.844   2.608   7.588 -0.1411  1.8230  1.0335
  115OSM   C10F12047   0.924   2.508   7.753 -0.3128 -0.1715 -0.7282
  115OSM   H10F12048   0.832   2.530   7.809  0.2884  0.1608  0.1396
  115OSM   C11F12049   1.016   2.417   7.832  0.4820  0.0707 -0.5213
  115OSM   H11F12050   1.111   2.391   7.781  1.0777  0.2156  0.4810
  115OSM   H11G12051   0.965   2.326   7.872  1.4503  0.1014  0.8364
  115OSM   C12F12052   1.066   2.493   7.956 -0.3214  0.0737 -0.1157
  115OSM   H12F12053   1.111   2.591   7.931  0.5896 -0.7009 -1.6963
  115OSM   H12G12054   1.151   2.436   8.000 -0.2951  0.8537  0.8762
  115OSM   C13F12055   0.965   2.512   8.073 -1.0218 -0.0197 -0.4889
  115OSM   H13F12056   0.933   2.408   8.094  2.5364 -1.0776  0.2825
  115OSM   H13G12057   0.877   2.565   8.031  0.3032  1.3713 -1.6692
  115OSM   C14F12058   1.033   2.584   8.191 -0.3057  0.1675  0.6554
  115OSM   H14F12059   1.084   2.679   8.165 -1.3672  0.8439  0.9714
  115OSM   H14G12060   1.106   2.513   8.234  0.2259  1.0370  1.2190
  115OSM   C15F12061   0.954   2.607   8.324 -0.0484 -0.6677 -0.1989
  115OSM   H15F12062   0.884   2.527   8.355 -0.9964 -0.1932 -1.0481
  115OSM   H15G12063   0.886   2.693   8.307 -0.3485 -0.9425 -0.4118
  115OSM   C16F12064   1.047   2.634   8.448 -0.7304  0.0663 -0.4903
  115OSM   H16F12065   0.985   2.690   8.520  0.9272  0.6141  0.5532
  115OSM   H16G12066   1.120   2.709   8.411 -1.9012  2.0709  1.0638
  115OSM   C17F12067   1.108   2.510   8.532  0.4283 -0.0839 -0.0574
  115OSM   H17F12068   1.170   2.564   8.606 -0.1002 -1.9061  1.8082
  115OSM   H17G12069   1.177   2.440   8.479  0.7733  1.9968 -2.5527
  115OSM   C18F12070   1.007   2.428   8.610 -0.3400  0.6436 -0.5173
  115OSM   H18F12071   0.935   2.494   8.664  0.4507  1.3131 -0.2510
  115OSM   H18G12072   1.066   2.374   8.687 -0.8801  0.3226 -0.3257
  115OSM   H18H12073   0.953   2.350   8.553  1.3710 -0.4922 -0.6551
  116OSM      N12074   2.293   6.721   6.263  0.4593  0.1560 -0.3207
  116OSM    C1512075   2.335   6.831   6.177 -0.9070 -0.1119  0.2228
  116OSM   H15A12076   2.352   6.931   6.216  0.1114  0.6755 -2.0995
  116OSM   H15B12077   2.271   6.833   6.090 -0.4097 -1.1408 -0.1742
  116OSM   H15C12078   2.428   6.808   6.128 -1.5350 -2.8366  0.1957
  116OSM    C1412079   2.268   6.603   6.180 -0.1519  0.2547  0.4996
  116OSM   H14A12080   2.349   6.586   6.111 -0.4406 -0.3177  0.2931
  116OSM   H14B12081   2.176   6.605   6.124  0.1857  1.7543 -0.0393
  116OSM   H14C12082   2.244   6.518   6.242  0.7016 -0.9214 -0.7311
  116OSM    C1312083   2.405   6.705   6.358 -0.4932 -0.1522 -0.1529
  116OSM   H13A12084   2.500   6.671   6.319  0.8041  1.5868  1.3249
  116OSM   H13B12085   2.382   6.638   6.439 -2.4868  1.3319  0.5845
  116OSM   H13C12086   2.428   6.798   6.407 -0.7938  1.1434 -2.3396
  116OSM    C1212087   2.167   6.772   6.343  0.5146 -0.2781  0.5746
  116OSM   H12A12088   2.081   6.786   6.279  1.9728 -0.0829 -1.4427
  116OSM   H12B12089   2.187   6.870   6.384  2.7330 -0.0303 -0.9459
  116OSM    C1112090   2.112   6.687   6.455  0.6245  0.0603 -0.3606
  116OSM   H11A12091   2.027   6.738   6.504  0.2823 -1.9428  1.2750
  116OSM   H11B12092   2.185   6.670   6.537 -0.8500 -0.8673  0.8159
  116OSM      P12093   1.933   6.524   6.345 -0.4647 -0.0796 -0.2624
  116OSM    O1312094   1.900   6.642   6.262  0.0140 -0.9416  0.1049
  116OSM    O1412095   1.948   6.393   6.273  0.5269 -0.4028  0.2819
  116OSM    O1112096   1.826   6.518   6.459 -0.6336  0.1950  0.7155
  116OSM    O1212097   2.071   6.559   6.416 -0.6517  0.6065 -0.0457
  116OSM    C1S12098   1.811   6.413   6.549  0.0205 -0.2127  0.2087
  116OSM    H1S12099   1.881   6.327   6.538  1.3420  0.9069 -0.5749
  116OSM    H1T12100   1.705   6.381   6.540  0.0450  0.2330 -3.6411
  116OSM     NF12101   1.858   6.362   6.798 -0.3901 -0.9831  0.3610
  116OSM    HNF12102   1.774   6.351   6.851  0.5159  1.2060  2.4469
  116OSM    C2S12103   1.841   6.465   6.697  0.1419 -0.1646 -0.6994
  116OSM    H2S12104   1.932   6.528   6.705 -0.8506  1.0936  3.1221
  116OSM    C3S12105   1.728   6.569   6.738 -0.0032 -0.3549  0.0304
  116OSM    H3S12106   1.627   6.523   6.726  0.6660 -2.7328  2.6660
  116OSM     O312107   1.722   6.681   6.648 -0.4882  0.7297 -0.5557
  116OSM    HO312108   1.769   6.647   6.571 -0.0875 -1.3851  0.5609
  116OSM    C4S12109   1.738   6.621   6.877 -0.8883 -0.6207 -0.4662
  116OSM    H4S12110   1.713   6.548   6.955  0.2149  0.1270  0.6328
  116OSM    C5S12111   1.788   6.742   6.921 -0.0701  0.3930  0.4800
  116OSM    H5S12112   1.835   6.803   6.842 -1.0569 -0.5052 -0.8295
  116OSM    C6S12113   1.804   6.791   7.066  0.1097 -0.7029  0.4664
  116OSM    H6S12114   1.750   6.888   7.067  2.1308  0.4702  0.0516
  116OSM    H6T12115   1.911   6.801   7.091 -0.1002 -0.8284  1.4519
  116OSM    C7S12116   1.743   6.705   7.172  0.6655  1.5330 -0.4516
  116OSM    H7S12117   1.783   6.602   7.171 -0.1603  1.1892 -2.1488
  116OSM    H7T12118   1.633   6.698   7.157  0.3078  2.5245  1.3855
  116OSM    C8S12119   1.758   6.763   7.311 -0.8727  0.7639 -1.0451
  116OSM    H8S12120   1.690   6.849   7.328 -1.2957  0.2566 -0.0522
  116OSM    H8T12121   1.860   6.802   7.333 -1.1669  0.7873  0.3904
  116OSM    C9S12122   1.719   6.658   7.417  0.5879  0.2568  0.1129
  116OSM    H9S12123   1.792   6.575   7.418 -0.7555 -1.0247 -1.5739
  116OSM    H9T12124   1.626   6.612   7.377  1.0749 -0.1748 -0.5480
  116OSM   C10S12125   1.701   6.716   7.558 -0.2721  0.4055  0.7755
  116OSM   H10S12126   1.633   6.804   7.557 -0.0563  0.5845  1.3399
  116OSM   H10T12127   1.803   6.753   7.583  0.5301 -1.7498  0.8448
  116OSM   C11S12128   1.660   6.612   7.663  0.5156  0.1463  0.4142
  116OSM   H11S12129   1.720   6.519   7.653  0.4779  0.1740 -0.1242
  116OSM   H11T12130   1.552   6.588   7.654  0.7460 -0.4391 -1.1753
  116OSM   C12S12131   1.684   6.666   7.810 -0.0400 -0.2260 -0.1411
  116OSM   H12S12132   1.709   6.774   7.812  1.2952 -0.5119 -0.5046
  116OSM   H12T12133   1.769   6.607   7.852  0.7882  0.5961 -0.6208
  116OSM   C13S12134   1.563   6.639   7.900  0.2571  0.2018 -0.4310
  116OSM   H13S12135   1.545   6.538   7.944 -1.3215  1.8693  3.1548
  116OSM   H13T12136   1.471   6.664   7.844 -1.5643  0.2820  2.4178
  116OSM   C14S12137   1.579   6.733   8.026 -0.2017  0.0081 -0.2000
  116OSM   H14S12138   1.476   6.769   8.044  0.0419  1.2723 -1.1985
  116OSM   H14T12139   1.637   6.824   7.997  1.9952 -2.0097 -2.6769
  116OSM   C15S12140   1.638   6.664   8.149 -0.1559  0.3773 -0.5148
  116OSM   H15S12141   1.746   6.644   8.134 -0.6352 -2.0418 -1.0774
  116OSM   H15T12142   1.583   6.573   8.179  1.6212 -0.4316  0.4668
  116OSM   C16S12143   1.625   6.750   8.272 -0.2460 -0.1827  0.2055
  116OSM   H16S12144   1.521   6.790   8.280 -0.3023 -0.0463 -1.0237
  116OSM   H16T12145   1.689   6.835   8.240 -0.1515 -1.3605 -3.1112
  116OSM   C17S12146   1.669   6.685   8.396  0.4538 -0.1415 -0.4208
  116OSM   H17S12147   1.694   6.757   8.477 -2.1832 -0.8016  1.1178
  116OSM   H17T12148   1.768   6.640   8.377  0.0886 -0.6028 -1.2670
  116OSM   C18S12149   1.577   6.575   8.457 -0.6867  0.4638 -0.2256
  116OSM   H18S12150   1.481   6.624   8.482 -0.2975  0.6706  0.9250
  116OSM   H18T12151   1.623   6.528   8.546  1.4739 -2.0947 -2.5045
  116OSM   H18U12152   1.572   6.500   8.375  0.0330  1.3062 -1.0738
  116OSM    C1F12153   1.960   6.271   6.792  0.7705  0.5917 -0.9349
  116OSM     OF12154   2.044   6.276   6.706 -0.6871 -0.2145  0.5158
  116OSM    C2F12155   1.959   6.168   6.905  0.0640  0.1217  1.2213
  116OSM    H2F12156   1.861   6.119   6.925 -1.3034  1.3615 -1.7613
  116OSM    H2G12157   1.992   6.214   7.000  0.6528  0.8694  0.6666
  116OSM    C3F12158   2.051   6.051   6.862  0.0452  0.3981 -0.1785
  116OSM    H3F12159   2.151   6.084   6.825  0.9532 -0.1762  1.6628
  116OSM    H3G12160   1.998   5.997   6.781 -1.8193  1.1770  0.4862
  116OSM    C4F12161   2.090   5.952   6.978  0.2573 -0.0254 -0.2290
  116OSM    H4F12162   2.004   5.891   7.014  1.0630 -0.7794  0.4590
  116OSM    H4G12163   2.133   6.008   7.063  1.9865 -2.2123  0.4506
  116OSM    C5F12164   2.202   5.856   6.919 -0.1957 -0.5216 -0.1285
  116OSM    H5F12165   2.286   5.913   6.874 -1.9617  0.5370 -2.2586
  116OSM    H5G12166   2.152   5.798   6.839 -1.6226 -0.6119  0.7912
  116OSM    C6F12167   2.254   5.761   7.028  0.5041  0.5324 -0.1085
  116OSM    H6F12168   2.167   5.704   7.065  1.6767 -0.8584  0.5991
  116OSM    H6G12169   2.283   5.827   7.113  1.3991 -1.2137  1.0085
  116OSM    C7F12170   2.374   5.672   6.993 -0.8367  0.4144  0.5296
  116OSM    H7F12171   2.445   5.737   6.937  1.0052  0.0098  2.2904
  116OSM    H7G12172   2.342   5.589   6.926  1.6508 -0.2817  0.1050
  116OSM    C8F12173   2.456   5.621   7.105  0.1532 -0.3674  0.0217
  116OSM    H8F12174   2.481   5.703   7.176 -1.6387 -0.0693  0.3673
  116OSM    H8G12175   2.555   5.580   7.078 -0.1852  0.5596 -2.9195
  116OSM    C9F12176   2.383   5.514   7.179 -0.3611  0.2941 -0.6636
  116OSM    H9F12177   2.355   5.430   7.114  1.6658 -0.6673 -0.3917
  116OSM   C10F12178   2.333   5.524   7.304 -0.2214 -0.4230  0.3030
  116OSM   H10F12179   2.279   5.443   7.355  1.6353 -1.9643 -0.0536
  116OSM   C11F12180   2.358   5.645   7.397  0.1884  0.0189  0.3737
  116OSM   H11F12181   2.272   5.663   7.465  0.4225  0.9078  0.4486
  116OSM   H11G12182   2.372   5.734   7.333  0.5867 -0.6780 -0.5338
  116OSM   C12F12183   2.490   5.625   7.477  0.1812  0.2763 -0.1976
  116OSM   H12F12184   2.550   5.559   7.411 -1.4228 -3.5110  1.8388
  116OSM   H12G12185   2.462   5.555   7.558 -2.0089  2.0663  0.7037
  116OSM   C13F12186   2.554   5.749   7.545 -0.1368 -0.1313 -0.4953
  116OSM   H13F12187   2.562   5.828   7.467 -0.1735  0.6709  0.2925
  116OSM   H13G12188   2.656   5.718   7.575 -1.2269 -1.4324  2.1502
  116OSM   C14F12189   2.465   5.799   7.664  0.2915  0.6270  0.5668
  116OSM   H14F12190   2.363   5.833   7.637 -0.6962 -2.7468 -0.4019
  116OSM   H14G12191   2.517   5.884   7.714  1.6313  0.9013 -1.1801
  116OSM   C15F12192   2.440   5.683   7.770  0.0304  0.3301 -0.7181
  116OSM   H15F12193   2.521   5.607   7.762 -0.8562 -0.8836  1.0314
  116OSM   H15G12194   2.345   5.629   7.752 -0.8088  0.9014  1.6603
  116OSM   C16F12195   2.441   5.748   7.909 -0.1182 -0.3948 -0.2549
  116OSM   H16F12196   2.356   5.818   7.900  1.3241  1.4082 -0.3964
  116OSM   H16G12197   2.534   5.808   7.913 -0.2618 -0.1696 -0.2550
  116OSM   C17F12198   2.433   5.644   8.022 -0.5343 -0.1783  0.4422
  116OSM   H17F12199   2.524   5.581   8.013 -0.6771 -0.6923  2.2345
  116OSM   H17G12200   2.347   5.573   8.011  0.8357 -1.7411 -0.8426
  116OSM   C18F12201   2.451   5.712   8.157  0.5627  0.3311 -0.4628
  116OSM   H18F12202   2.393   5.670   8.242 -1.2216  1.1205 -1.2410
  116OSM   H18G12203   2.405   5.813   8.151  0.8770  0.4063 -1.9356
  116OSM   H18H12204   2.559   5.721   8.179  0.8557  0.4943 -1.8634
  117OSM      N12205   6.349   1.555   6.242 -0.7663 -0.0885  0.5059
  117OSM    C1512206   6.463   1.499   6.162 -0.1681  1.0453 -0.3579
  117OSM   H15A12207   6.452   1.498   6.054 -0.0923 -1.0860 -0.3790
  117OSM   H15B12208   6.474   1.393   6.177  2.1093  1.3086  0.2499
  117OSM   H15C12209   6.563   1.538   6.179  0.4076  1.0246 -3.1614
  117OSM    C1412210   6.325   1.694   6.183  0.3180  1.0319  0.5294
  117OSM   H14A12211   6.423   1.740   6.187  1.2001 -0.8303  2.4391
  117OSM   H14B12212   6.249   1.752   6.233 -0.6351  0.0343  0.2647
  117OSM   H14C12213   6.288   1.691   6.082  0.0566  3.1473  0.5193
  117OSM    C1312214   6.227   1.481   6.206  0.4927  0.6151  0.2772
  117OSM   H13A12215   6.199   1.473   6.102  0.6391 -2.4222  0.3759
  117OSM   H13B12216   6.139   1.517   6.258  0.1222  0.7177 -0.4137
  117OSM   H13C12217   6.240   1.376   6.228 -1.8290 -0.6445 -3.4376
  117OSM    C1212218   6.371   1.553   6.394  0.5615  0.4741 -0.1494
  117OSM   H12A12219   6.390   1.451   6.426  0.4027 -0.1588 -1.9697
  117OSM   H12B12220   6.283   1.591   6.445  2.0281  2.7238  0.8235
  117OSM    C1112221   6.487   1.637   6.455  0.5450 -0.0940  0.1286
  117OSM   H11A12222   6.583   1.588   6.428  0.4116 -0.6023  0.5580
  117OSM   H11B12223   6.483   1.619   6.564  0.4025  0.9675  0.3105
  117OSM      P12224   6.584   1.865   6.366 -0.3462 -0.2610 -0.0539
  117OSM    O1312225   6.671   1.798   6.268  0.4612 -0.0102 -0.0323
  117OSM    O1412226   6.518   1.996   6.342 -0.0473  0.2365 -0.5367
  117OSM    O1112227   6.666   1.877   6.506  0.0801 -0.0269  0.1050
  117OSM    O1212228   6.472   1.771   6.415  0.6985 -0.2434  0.1147
  117OSM    C1S12229   6.592   1.936   6.610 -0.1873 -0.6740 -0.1254
  117OSM    H1S12230   6.506   1.873   6.641 -0.2995 -0.6143 -0.3145
  117OSM    H1T12231   6.550   2.033   6.575 -1.2195 -1.2017 -0.3738
  117OSM     NF12232   6.624   2.006   6.848  0.0477  0.8456 -0.2703
  117OSM    HNF12233   6.613   2.102   6.872 -1.8303 -0.0577  3.2190
  117OSM    C2S12234   6.697   1.977   6.720 -1.0328 -0.2555  0.3755
  117OSM    H2S12235   6.764   1.890   6.736  1.3072  0.7255 -3.0278
  117OSM    C3S12236   6.788   2.091   6.676 -0.3877  0.4863 -0.6346
  117OSM    H3S12237   6.742   2.192   6.679  1.8528  1.5939 -0.8936
  117OSM     O312238   6.842   2.085   6.544  0.0873  0.4469  0.3759
  117OSM    HO312239   6.795   2.005   6.519 -1.1597  0.1559  3.2483
  117OSM    C4S12240   6.907   2.106   6.775  0.3761 -0.4612  1.2702
  117OSM    H4S12241   6.873   2.169   6.858 -2.6207 -1.7682  1.1641
  117OSM    C5S12242   7.029   2.045   6.766 -0.3070 -1.0163 -0.2775
  117OSM    H5S12243   7.047   1.979   6.680 -0.3741  0.9392 -1.8560
  117OSM    C6S12244   7.138   2.059   6.877  0.3682  0.4416  0.3885
  117OSM    H6S12245   7.229   2.116   6.851 -0.3656  2.5137  2.0324
  117OSM    H6T12246   7.167   1.957   6.911 -0.6103  0.6367  1.8983
  117OSM    C7S12247   7.084   2.123   7.008 -0.2258  0.5616 -0.2271
  117OSM    H7S12248   7.014   2.055   7.063 -0.4202  0.6120 -0.4079
  117OSM    H7T12249   7.039   2.221   6.980 -0.8575  0.4687  0.4196
  117OSM    C8S12250   7.210   2.155   7.104  0.3760 -0.7518  0.3416
  117OSM    H8S12251   7.175   2.202   7.199  1.1818 -0.2319  0.3973
  117OSM    H8T12252   7.274   2.229   7.052 -0.9707  1.7258  2.0231
  117OSM    C9S12253   7.290   2.030   7.144 -0.1275  0.1016 -1.1395
  117OSM    H9S12254   7.348   1.992   7.057  1.0311 -5.5809  1.6911
  117OSM    H9T12255   7.219   1.954   7.182  0.5889 -0.5218 -1.0171
  117OSM   C10S12256   7.391   2.066   7.256 -0.3183 -0.5443  0.9529
  117OSM   H10S12257   7.458   2.147   7.219 -0.0965 -1.1394  0.0218
  117OSM   H10T12258   7.446   1.970   7.263 -0.3714 -0.5282  1.6536
  117OSM   C11S12259   7.328   2.102   7.393 -0.2545  0.1398  0.0381
  117OSM   H11S12260   7.254   2.023   7.418 -0.1213 -0.4457 -1.3014
  117OSM   H11T12261   7.288   2.205   7.405  0.3188  0.2508  1.1028
  117OSM   C12S12262   7.431   2.099   7.510 -0.9231  0.3114 -0.2999
  117OSM   H12S12263   7.501   2.183   7.487 -1.0421 -0.1861 -2.8219
  117OSM   H12T12264   7.499   2.012   7.494  1.4757  2.2472 -1.2354
  117OSM   C13S12265   7.363   2.129   7.645 -0.4869 -0.3900  0.7026
  117OSM   H13S12266   7.282   2.053   7.655 -0.5661 -0.4529 -0.2781
  117OSM   H13T12267   7.319   2.231   7.639  0.6097  0.0125 -1.3379
  117OSM   C14S12268   7.453   2.114   7.767  0.6185 -0.3895 -1.5844
  117OSM   H14S12269   7.525   2.198   7.780 -1.7113  1.3610  1.0365
  117OSM   H14T12270   7.505   2.017   7.754  0.3058 -0.7152 -0.5209
  117OSM   C15S12271   7.359   2.106   7.891 -0.2141  0.5390 -0.2684
  117OSM   H15S12272   7.291   2.019   7.882 -1.4189  0.8649  3.5435
  117OSM   H15T12273   7.308   2.205   7.895 -1.9803 -0.3223 -0.6021
  117OSM   C16S12274   7.443   2.087   8.022 -0.3857 -0.4390  0.2585
  117OSM   H16S12275   7.520   2.009   8.003 -0.0812 -0.2258  0.5987
  117OSM   H16T12276   7.373   2.044   8.097 -0.3152  0.5269  0.8962
  117OSM   C17S12277   7.503   2.214   8.078  0.1490  0.5794  0.1090
  117OSM   H17S12278   7.560   2.266   7.998  1.0028 -0.7165 -0.1593
  117OSM   H17T12279   7.580   2.182   8.152 -0.7236 -1.3100  0.2660
  117OSM   C18S12280   7.405   2.311   8.145 -0.0330 -0.4635  0.2857
  117OSM   H18S12281   7.459   2.385   8.207  1.3541 -0.8794 -0.3861
  117OSM   H18T12282   7.345   2.246   8.212 -0.4694 -0.9633 -0.5648
  117OSM   H18U12283   7.332   2.352   8.071  0.8245 -1.8444 -1.4159
  117OSM    C1F12284   6.571   1.906   6.931 -0.6372 -0.1247 -0.3906
  117OSM     OF12285   6.599   1.790   6.918  0.2796  0.4082  0.3579
  117OSM    C2F12286   6.490   1.953   7.047 -0.2334 -0.0945 -0.0792
  117OSM    H2F12287   6.391   1.906   7.032 -0.7087  1.1322 -0.9923
  117OSM    H2G12288   6.480   2.064   7.053  0.4766  0.1135 -1.9847
  117OSM    C3F12289   6.535   1.900   7.185 -0.2188 -0.0188  0.0203
  117OSM    H3F12290   6.621   1.959   7.225 -1.7044  1.1759  1.6186
  117OSM    H3G12291   6.574   1.796   7.178  1.5297  0.7116 -2.3318
  117OSM    C4F12292   6.423   1.884   7.294  0.5572  0.3330 -0.0284
  117OSM    H4F12293   6.351   1.814   7.247  1.0921  0.1831 -0.6518
  117OSM    H4G12294   6.367   1.980   7.298  0.2627  0.1570  0.0699
  117OSM    C5F12295   6.481   1.837   7.428  0.3578 -0.9707  0.0776
  117OSM    H5F12296   6.560   1.763   7.405 -0.4478 -1.6639 -0.5635
  117OSM    H5G12297   6.396   1.791   7.484  1.7923 -2.8018  0.8377
  117OSM    C6F12298   6.523   1.971   7.496  0.2298  0.1397 -0.1218
  117OSM    H6F12299   6.433   2.035   7.505  0.6774  0.6039  1.5055
  117OSM    H6G12300   6.592   2.025   7.427 -0.7655  0.3605 -0.9635
  117OSM    C7F12301   6.606   1.955   7.624 -0.5037 -0.2928  0.6054
  117OSM    H7F12302   6.708   1.925   7.589 -1.3016  0.6113 -2.9089
  117OSM    H7G12303   6.559   1.880   7.692  2.7490 -3.4009 -0.2339
  117OSM    C8F12304   6.646   2.085   7.703  0.1371  0.1676  0.8011
  117OSM    H8F12305   6.687   2.154   7.627 -2.8558  0.1729 -0.9901
  117OSM    H8G12306   6.731   2.053   7.766  0.4965 -0.3352  0.0801
  117OSM    C9F12307   6.540   2.158   7.774 -0.3457 -0.9169 -0.4274
  117OSM    H9F12308   6.477   2.227   7.716  2.4807  2.6638  0.4234
  117OSM   C10F12309   6.498   2.145   7.903 -0.1917  0.5259  0.2849
  117OSM   H10F12310   6.414   2.204   7.941 -0.8761  0.8671 -1.6495
  117OSM   C11F12311   6.558   2.055   8.009  0.1845  0.0560 -0.1342
  117OSM   H11F12312   6.664   2.028   7.989 -0.3811 -0.5248 -2.5527
  117OSM   H11G12313   6.494   1.966   8.027  0.2962 -0.0585 -0.3123
  117OSM   C12F12314   6.580   2.122   8.147  0.6020 -0.4651 -0.3795
  117OSM   H12F12315   6.657   2.202   8.136 -1.2141  1.3297 -0.5280
  117OSM   H12G12316   6.621   2.048   8.219  5.1090  2.1256  0.1298
  117OSM   C13F12317   6.457   2.195   8.218 -0.2197 -0.3857 -0.3181
  117OSM   H13F12318   6.428   2.269   8.140  1.7889  1.3108  0.4722
  117OSM   H13G12319   6.508   2.243   8.303  0.3133 -0.8603 -0.3630
  117OSM   C14F12320   6.340   2.104   8.255  0.1498 -0.5379  0.4474
  117OSM   H14F12321   6.386   2.019   8.310  0.6760 -1.5848 -1.5239
  117OSM   H14G12322   6.301   2.058   8.162  1.6086 -1.6441  0.3443
  117OSM   C15F12323   6.225   2.163   8.334 -0.2317  0.6074  0.1173
  117OSM   H15F12324   6.175   2.234   8.264 -1.3180  0.2382  0.5045
  117OSM   H15G12325   6.257   2.199   8.434 -0.8394 -0.8805  0.8790
  117OSM   C16F12326   6.114   2.056   8.375 -0.0778 -0.3741 -0.2464
  117OSM   H16F12327   6.164   1.967   8.419 -0.4849 -0.5028 -0.0332
  117OSM   H16G12328   6.078   2.016   8.277 -1.2679  1.9888 -0.8652
  117OSM   C17F12329   6.009   2.113   8.467  0.1591 -0.0904 -0.1696
  117OSM   H17F12330   6.062   2.154   8.556 -1.3605 -0.2242  0.8402
  117OSM   H17G12331   5.964   2.197   8.410 -0.1811 -0.4673 -0.4596
  117OSM   C18F12332   5.900   2.015   8.500  0.2871 -1.0286  0.1346
  117OSM   H18F12333   5.840   2.057   8.584  0.5181 -0.7191  0.1461
  117OSM   H18G12334   5.932   1.911   8.522 -0.9235 -1.3734  0.3836
  117OSM   H18H12335   5.832   2.007   8.412  0.7406  1.4346 -0.4965
  118OSM      N12336   4.046   3.691   5.952 -0.3399  0.2259  1.6436
  118OSM    C1512337   4.049   3.812   5.864 -0.5435 -0.0173 -0.6691
  118OSM   H15A12338   4.018   3.784   5.764  1.0544 -2.0988 -0.6538
  118OSM   H15B12339   4.143   3.866   5.864  0.5714 -1.8125  1.4878
  118OSM   H15C12340   3.979   3.885   5.903  2.9836  2.4494  1.7031
  118OSM    C1412341   3.908   3.662   6.002  0.0788  0.6802 -0.4315
  118OSM   H14A12342   3.904   3.593   6.085  2.0500  1.9909  0.8484
  118OSM   H14B12343   3.851   3.619   5.921 -0.9930  1.1435  0.0525
  118OSM   H14C12344   3.863   3.756   6.030 -0.4751  0.0363  0.9035
  118OSM    C1312345   4.089   3.575   5.870  0.2003  0.0866  0.0804
  118OSM   H13A12346   4.072   3.491   5.935  1.1826 -1.6840 -1.8221
  118OSM   H13B12347   4.190   3.581   5.831  0.3029  0.9452  0.4634
  118OSM   H13C12348   4.017   3.553   5.792 -2.1945  3.7603  1.0001
  118OSM    C1212349   4.131   3.712   6.073  0.2162  0.0025  0.2030
  118OSM   H12A12350   4.237   3.711   6.053  0.1375 -0.8756 -0.2373
  118OSM   H12B12351   4.129   3.621   6.130  1.3069 -0.0065  0.2458
  118OSM    C1112352   4.094   3.827   6.173  0.2560  0.2287 -0.4010
  118OSM   H11A12353   4.076   3.917   6.111 -0.4100 -0.0650 -0.6465
  118OSM   H11B12354   4.189   3.836   6.230 -1.0167  1.0671  1.6972
  118OSM      P12355   3.852   3.879   6.261  0.2503  0.5345 -0.7803
  118OSM    O1312356   3.827   3.947   6.138  0.1195  0.0642  0.4002
  118OSM    O1412357   3.744   3.790   6.309  0.7704  0.2010 -0.1777
  118OSM    O1112358   3.881   3.997   6.373  0.2440  0.2341  0.1426
  118OSM    O1212359   3.986   3.800   6.257  0.2493  0.4544  0.4311
  118OSM    C1S12360   3.858   3.951   6.507  0.1451 -0.3194  0.3632
  118OSM    H1S12361   3.943   3.883   6.525  0.4997 -0.2832 -1.0683
  118OSM    H1T12362   3.756   3.907   6.520  0.6437 -1.1928  1.4815
  118OSM     NF12363   3.864   4.016   6.744  0.1214 -0.3370  0.0206
  118OSM    HNF12364   3.776   4.006   6.789 -0.1669 -0.6997 -0.6141
  118OSM    C2S12365   3.853   4.066   6.606 -0.2398  0.0661 -0.4748
  118OSM    H2S12366   3.939   4.133   6.583  2.2939 -2.6185  0.5375
  118OSM    C3S12367   3.727   4.160   6.575 -0.0733  0.7963  0.0249
  118OSM    H3S12368   3.629   4.113   6.599  0.3439 -2.2459 -3.3537
  118OSM     O312369   3.710   4.196   6.443 -0.0093 -0.0347  0.2535
  118OSM    HO312370   3.783   4.152   6.400  0.4334 -0.7729  1.7295
  118OSM    C4S12371   3.749   4.278   6.660  0.4051 -0.7472  0.0649
  118OSM    H4S12372   3.690   4.271   6.752  0.3913  2.0134  0.3616
  118OSM    C5S12373   3.821   4.392   6.639  1.3578 -0.4353  0.0106
  118OSM    H5S12374   3.874   4.415   6.545  3.7947 -1.0093  1.1702
  118OSM    C6S12375   3.830   4.501   6.741  0.6408  0.0520 -0.1563
  118OSM    H6S12376   3.760   4.583   6.715  1.6676  1.8502  2.3236
  118OSM    H6T12377   3.924   4.561   6.741 -0.6966  2.5098  3.3357
  118OSM    C7S12378   3.800   4.468   6.885  0.0319  0.0004 -0.4219
  118OSM    H7S12379   3.873   4.389   6.911 -0.8037 -0.5550  0.3079
  118OSM    H7T12380   3.701   4.420   6.899 -0.1657 -0.4790 -2.9982
  118OSM    C8S12381   3.806   4.593   6.974 -0.6443  0.5015 -0.3303
  118OSM    H8S12382   3.736   4.673   6.944 -0.5480  0.4342 -0.7393
  118OSM    H8T12383   3.911   4.631   6.975 -0.8342  1.0270  0.1102
  118OSM    C9S12384   3.780   4.561   7.129  0.2587 -0.1217  0.1697
  118OSM    H9S12385   3.863   4.491   7.152 -0.1751 -1.4689 -1.9969
  118OSM    H9T12386   3.678   4.518   7.135 -0.2389  1.0735  0.4234
  118OSM   C10S12387   3.785   4.678   7.221  0.1596 -0.4146  0.3964
  118OSM   H10S12388   3.696   4.742   7.207  0.0877 -0.1231  2.0371
  118OSM   H10T12389   3.876   4.743   7.223  0.6520 -0.9025 -2.1017
  118OSM   C11S12390   3.754   4.632   7.366  0.6968  0.5302 -0.1325
  118OSM   H11S12391   3.850   4.609   7.417  1.1936  1.6135 -0.5450
  118OSM   H11T12392   3.692   4.540   7.363 -0.8761  1.5436  0.1314
  118OSM   C12S12393   3.667   4.730   7.441  0.5919 -0.1048 -0.0592
  118OSM   H12S12394   3.573   4.740   7.382 -1.9028  0.0794  3.6248
  118OSM   H12T12395   3.725   4.824   7.442  0.9618 -0.3352  0.4079
  118OSM   C13S12396   3.625   4.686   7.578 -0.2277 -0.2855  0.2615
  118OSM   H13S12397   3.562   4.595   7.581 -0.8066  0.1246  0.8875
  118OSM   H13T12398   3.557   4.764   7.619 -1.3760 -0.4736 -1.1969
  118OSM   C14S12399   3.743   4.659   7.675 -0.0113 -0.3197 -0.4370
  118OSM   H14S12400   3.808   4.749   7.683 -0.9301  0.4095 -0.9150
  118OSM   H14T12401   3.794   4.564   7.649 -0.5080 -0.1594 -2.1112
  118OSM   C15S12402   3.698   4.632   7.820 -0.0971 -0.2708 -0.5382
  118OSM   H15S12403   3.783   4.610   7.888 -1.1349 -0.0627  0.8736
  118OSM   H15T12404   3.635   4.541   7.816  0.1014 -0.4717  0.6729
  118OSM   C16S12405   3.622   4.756   7.880  0.7029  0.5810 -0.1079
  118OSM   H16S12406   3.542   4.797   7.814  1.3082  2.9887  0.5213
  118OSM   H16T12407   3.693   4.841   7.894  0.3681  0.8168  0.1744
  118OSM   C17S12408   3.560   4.712   8.015  0.4705 -0.2991  0.8756
  118OSM   H17S12409   3.639   4.672   8.081 -1.2211 -0.7461  2.7128
  118OSM   H17T12410   3.492   4.628   7.990  1.3708  0.1658 -4.2948
  118OSM   C18S12411   3.479   4.830   8.075 -0.6549 -0.8884 -0.3835
  118OSM   H18S12412   3.410   4.866   7.996 -1.4707 -1.0141  0.2615
  118OSM   H18T12413   3.553   4.906   8.108 -1.5987 -0.6247  1.2048
  118OSM   H18U12414   3.429   4.795   8.168 -0.6666  0.4084  0.1163
  118OSM    C1F12415   3.972   3.963   6.792  0.2535 -0.0814 -0.0584
  118OSM     OF12416   4.083   3.964   6.735 -0.2660 -0.3778 -0.1297
  118OSM    C2F12417   3.962   3.903   6.929 -0.4310 -0.4705 -0.2115
  118OSM    H2F12418   3.901   3.810   6.932  0.3467 -0.9615  1.6042
  118OSM    H2G12419   3.911   3.972   6.999 -0.5840 -1.4108  0.6194
  118OSM    C3F12420   4.102   3.864   6.982 -0.1102 -0.0541  0.1028
  118OSM    H3F12421   4.166   3.955   6.989 -0.5686  0.3768 -1.0228
  118OSM    H3G12422   4.148   3.794   6.909  1.0241  1.1229 -0.3594
  118OSM    C4F12423   4.082   3.793   7.118  0.5979  0.0524 -0.3996
  118OSM    H4F12424   4.015   3.704   7.120 -0.0280  0.5265 -0.1460
  118OSM    H4G12425   4.020   3.868   7.170 -2.0876 -0.2781 -2.8907
  118OSM    C5F12426   4.204   3.759   7.203 -0.6727 -1.2393 -0.1776
  118OSM    H5F12427   4.285   3.835   7.212 -1.8592 -0.0048  0.3911
  118OSM    H5G12428   4.241   3.662   7.163  0.7097 -0.8708  0.1562
  118OSM    C6F12429   4.145   3.737   7.346  0.5607  0.3256 -0.1969
  118OSM    H6F12430   4.054   3.798   7.366  0.5051  0.0027  0.5589
  118OSM    H6G12431   4.219   3.783   7.415  0.3307 -2.5117  2.1078
  118OSM    C7F12432   4.139   3.585   7.387 -0.7306  0.2518 -0.5491
  118OSM    H7F12433   4.243   3.549   7.373 -0.3658  1.2660 -0.5957
  118OSM    H7G12434   4.077   3.540   7.307 -0.1675  0.2823 -1.0111
  118OSM    C8F12435   4.087   3.577   7.524  0.2197  0.0223  0.0954
  118OSM    H8F12436   4.001   3.643   7.550 -0.7580 -0.4721 -1.7194
  118OSM    H8G12437   4.173   3.606   7.588  1.6640 -2.7317 -0.4594
  118OSM    C9F12438   4.045   3.438   7.553 -0.1319  0.3284 -0.2186
  118OSM    H9F12439   3.953   3.395   7.512  0.2745  1.7571 -2.8173
  118OSM   C10F12440   4.118   3.356   7.635  0.1998  0.2770 -0.0342
  118OSM   H10F12441   4.071   3.259   7.656  1.8662 -0.4967  0.2882
  118OSM   C11F12442   4.244   3.383   7.705  0.2387  0.8102 -0.3163
  118OSM   H11F12443   4.304   3.464   7.659  0.6183  0.0632 -1.1762
  118OSM   H11G12444   4.317   3.299   7.703  3.0053  3.0301  0.3745
  118OSM   C12F12445   4.236   3.409   7.862 -0.1574 -0.0369  0.5022
  118OSM   H12F12446   4.156   3.484   7.877 -1.6142 -1.3621 -0.3032
  118OSM   H12G12447   4.328   3.447   7.910  0.2393 -0.4963  0.1244
  118OSM   C13F12448   4.203   3.280   7.941  0.0785 -1.2553  0.1918
  118OSM   H13F12449   4.269   3.194   7.917 -0.8319 -2.0921  0.6124
  118OSM   H13G12450   4.102   3.248   7.909  0.0201 -0.6541 -0.2469
  118OSM   C14F12451   4.208   3.300   8.088  0.3910 -0.3241  0.4558
  118OSM   H14F12452   4.183   3.405   8.113 -2.2328 -0.1955 -2.1172
  118OSM   H14G12453   4.310   3.266   8.118  0.7352 -1.1102 -1.4375
  118OSM   C15F12454   4.100   3.205   8.147  0.4386  0.2548  0.4801
  118OSM   H15F12455   4.112   3.101   8.109 -1.1681  0.3907 -0.4714
  118OSM   H15G12456   4.004   3.235   8.100 -0.1594 -3.2773 -0.8668
  118OSM   C16F12457   4.098   3.217   8.296  0.1227 -1.5223 -0.2827
  118OSM   H16F12458   4.184   3.278   8.329 -2.0702  0.9554  1.1438
  118OSM   H16G12459   4.101   3.114   8.339 -4.3438 -2.3405 -1.3509
  118OSM   C17F12460   3.979   3.298   8.345 -0.1856  0.0232  0.0582
  118OSM   H17F12461   3.889   3.234   8.331  0.0187 -0.2670  0.0712
  118OSM   H17G12462   3.974   3.391   8.285  2.3420  0.7341  0.8195
  118OSM   C18F12463   3.982   3.334   8.491 -0.0929 -0.1365  0.7339
  118OSM   H18F12464   4.009   3.440   8.508 -0.5188  0.1248 -0.1513
  118OSM   H18G12465   4.051   3.264   8.544 -0.5362 -2.0500 -1.0689
  118OSM   H18H12466   3.882   3.326   8.537 -0.3726 -0.5368  0.0666
  119OSM      N12467   3.858   4.466   6.157 -0.7945  0.0535 -0.4502
  119OSM    C1512468   3.931   4.541   6.266  0.0284  1.0923  0.3300
  119OSM   H15A12469   3.965   4.475   6.344 -0.3101  1.2212  0.5876
  119OSM   H15B12470   3.861   4.612   6.308  0.6612  1.0366  1.5208
  119OSM   H15C12471   4.013   4.600   6.227 -0.7178  2.6537  1.0138
  119OSM    C1412472   3.739   4.405   6.220  0.3590  0.4611 -0.7416
  119OSM   H14A12473   3.689   4.342   6.148 -0.8781  0.9904 -0.3668
  119OSM   H14B12474   3.664   4.475   6.252  1.4128  0.4412  2.0631
  119OSM   H14C12475   3.760   4.340   6.304 -2.1792  1.1503  0.5125
  119OSM    C1312476   3.812   4.572   6.065 -0.1913  0.0578  0.6190
  119OSM   H13A12477   3.741   4.639   6.111 -0.0481  1.0662 -0.5636
  119OSM   H13B12478   3.756   4.533   5.980 -1.4717  0.2983  1.3229
  119OSM   H13C12479   3.896   4.632   6.033 -1.9205  1.4269 -1.7410
  119OSM    C1212480   3.956   4.359   6.098  0.5199  0.4442 -0.1739
  119OSM   H12A12481   4.049   4.401   6.064 -0.0514  1.1890 -0.8535
  119OSM   H12B12482   3.900   4.322   6.014 -1.4080  1.9937  0.3632
  119OSM    C1112483   4.005   4.248   6.190  0.3438  0.5941 -0.1851
  119OSM   H11A12484   3.917   4.183   6.210  0.2580  1.2328  1.8421
  119OSM   H11B12485   4.045   4.282   6.288  1.0324  4.1916 -1.5552
  119OSM      P12486   4.257   4.224   6.130  0.5322  0.2472  0.3808
  119OSM    O1312487   4.343   4.120   6.072 -0.5573 -0.0113 -0.0155
  119OSM    O1412488   4.268   4.361   6.061 -0.7971 -0.0522 -0.6357
  119OSM    O1112489   4.286   4.243   6.283  0.0898 -0.3807 -0.4436
  119OSM    O1212490   4.103   4.174   6.119  0.0728 -0.5232  1.1983
  119OSM    C1S12491   4.286   4.142   6.385 -0.7953 -0.4612  0.2444
  119OSM    H1S12492   4.366   4.071   6.357  0.2647  1.1186 -0.9683
  119OSM    H1T12493   4.186   4.095   6.386 -1.6257  1.2013 -0.0058
  119OSM     NF12494   4.309   4.071   6.619 -0.4895  0.2831  0.5431
  119OSM    HNF12495   4.236   4.045   6.681 -0.2939 -2.4401 -0.2294
  119OSM    C2S12496   4.303   4.189   6.534 -0.2071 -0.2541  0.3568
  119OSM    H2S12497   4.403   4.235   6.552  1.3907 -3.5111  0.4917
  119OSM    C3S12498   4.183   4.291   6.564 -0.2420  0.0320  0.5167
  119OSM    H3S12499   4.093   4.241   6.523  0.5036 -1.8941  1.1071
  119OSM     O312500   4.191   4.417   6.498 -0.3951  0.4735  0.2112
  119OSM    HO312501   4.233   4.395   6.415  1.5269  2.1319  0.6529
  119OSM    C4S12502   4.162   4.311   6.712 -0.3710 -0.1104 -0.4585
  119OSM    H4S12503   4.104   4.228   6.754 -0.4560  0.3526  0.3743
  119OSM    C5S12504   4.208   4.417   6.786  0.6338  0.7901 -0.5021
  119OSM    H5S12505   4.257   4.501   6.735  1.2676  0.2939 -0.7214
  119OSM    C6S12506   4.191   4.435   6.928 -0.3471 -0.0930  0.2239
  119OSM    H6S12507   4.106   4.506   6.938  0.5582  1.3813 -1.7542
  119OSM    H6T12508   4.283   4.490   6.958  1.7010 -1.6999 -2.6070
  119OSM    C7S12509   4.167   4.302   7.002 -0.6457  0.2450 -0.7743
  119OSM    H7S12510   4.255   4.236   6.984  0.5691  1.9277 -1.2037
  119OSM    H7T12511   4.070   4.258   6.969 -0.6463 -0.3536 -0.0118
  119OSM    C8S12512   4.158   4.319   7.153 -0.2583  0.2171 -0.5173
  119OSM    H8S12513   4.072   4.388   7.158 -0.9152 -0.6528  0.4127
  119OSM    H8T12514   4.246   4.375   7.193 -0.5269  0.9128 -0.8944
  119OSM    C9S12515   4.158   4.190   7.229  0.9831  0.2622 -0.7155
  119OSM    H9S12516   4.257   4.147   7.203  1.7025  1.9745 -0.9474
  119OSM    H9T12517   4.069   4.132   7.197  1.0962  0.1574 -0.8413
  119OSM   C10S12518   4.150   4.202   7.381 -0.1014  0.7314  0.1446
  119OSM   H10S12519   4.062   4.261   7.415 -1.9302 -0.9254 -1.4576
  119OSM   H10T12520   4.243   4.252   7.415  3.0229 -3.1763 -1.7776
  119OSM   C11S12521   4.139   4.071   7.453  0.3351 -0.8057  0.2966
  119OSM   H11S12522   4.222   4.015   7.406  0.3224  0.0563 -0.8004
  119OSM   H11T12523   4.048   4.014   7.428  0.5802 -0.1683 -2.2809
  119OSM   C12S12524   4.160   4.088   7.599 -0.4231 -0.4193 -0.1678
  119OSM   H12S12525   4.089   4.161   7.644 -1.5519 -0.4105 -1.8859
  119OSM   H12T12526   4.259   4.133   7.625 -1.0292 -0.2238  2.0291
  119OSM   C13S12527   4.152   3.960   7.681 -0.1775 -0.7334  0.0994
  119OSM   H13S12528   4.239   3.901   7.643 -0.1716 -0.1087 -0.9143
  119OSM   H13T12529   4.055   3.914   7.655 -1.1767  0.9115  0.7567
  119OSM   C14S12530   4.163   3.979   7.829 -0.6357  0.2763 -1.6455
  119OSM   H14S12531   4.074   4.026   7.875  0.0981 -1.4724  1.8732
  119OSM   H14T12532   4.246   4.049   7.854 -0.7967  0.4981 -1.7228
  119OSM   C15S12533   4.175   3.841   7.900 -0.0773  0.3367  0.8801
  119OSM   H15S12534   4.255   3.777   7.856 -1.3470  1.1591 -2.9951
  119OSM   H15T12535   4.086   3.777   7.881 -0.5772  0.9553  1.1259
  119OSM   C16S12536   4.202   3.859   8.057 -0.1191  0.9369 -0.0136
  119OSM   H16S12537   4.108   3.891   8.108  0.1563 -0.7346  1.6502
  119OSM   H16T12538   4.273   3.942   8.079  1.2976  0.0261 -1.0001
  119OSM   C17S12539   4.264   3.729   8.127 -0.2903 -0.1339  0.0981
  119OSM   H17S12540   4.371   3.728   8.098 -0.5535 -0.2546 -0.9004
  119OSM   H17T12541   4.229   3.630   8.092  1.4471 -0.8836  0.3661
  119OSM   C18S12542   4.240   3.729   8.280 -0.1037 -0.7112 -0.0624
  119OSM   H18S12543   4.307   3.798   8.335  0.4581 -2.2768  1.3021
  119OSM   H18T12544   4.254   3.627   8.322  1.9589 -0.2771  0.3759
  119OSM   H18U12545   4.137   3.764   8.305  0.2160 -0.6877  1.2969
  119OSM    C1F12546   4.422   4.007   6.607 -0.2828  0.7290 -0.0391
  119OSM     OF12547   4.517   4.043   6.536 -0.7898  0.0958  0.2191
  119OSM    C2F12548   4.426   3.889   6.700 -0.1634  0.1530 -0.1448
  119OSM    H2F12549   4.435   3.799   6.635 -2.0262 -1.0144  1.1024
  119OSM    H2G12550   4.330   3.878   6.755 -1.5564 -0.4659 -2.5645
  119OSM    C3F12551   4.537   3.898   6.804 -0.7036  0.2442 -0.0978
  119OSM    H3F12552   4.526   3.991   6.863  1.0227  1.5965 -1.8034
  119OSM    H3G12553   4.631   3.911   6.746  0.0060 -0.1188  0.9416
  119OSM    C4F12554   4.541   3.777   6.894 -0.2674 -0.2860  0.4079
  119OSM    H4F12555   4.550   3.680   6.841  0.3325  0.0811 -0.1719
  119OSM    H4G12556   4.448   3.777   6.955  0.0736  0.1462  0.9447
  119OSM    C5F12557   4.654   3.778   6.996  0.0758  0.0371  0.0856
  119OSM    H5F12558   4.681   3.883   7.023  1.0530 -0.4661  1.1652
  119OSM    H5G12559   4.743   3.741   6.941  1.3615  0.8518  1.5555
  119OSM    C6F12560   4.628   3.683   7.113  0.6388 -0.3391 -0.5767
  119OSM    H6F12561   4.596   3.579   7.091 -1.5773 -0.2874  1.9394
  119OSM    H6G12562   4.549   3.734   7.172 -1.7228 -1.1443 -2.8779
  119OSM    C7F12563   4.749   3.674   7.211 -0.2578  0.5335 -0.1914
  119OSM    H7F12564   4.773   3.763   7.273 -0.4130 -1.7524  3.4471
  119OSM    H7G12565   4.843   3.644   7.160 -1.5926 -0.1428 -2.3782
  119OSM    C8F12566   4.730   3.567   7.315 -0.4249  0.3841  0.0243
  119OSM    H8F12567   4.802   3.592   7.396 -1.5471 -1.3031  1.6347
  119OSM    H8G12568   4.759   3.471   7.266 -0.9577  0.5904 -0.6986
  119OSM    C9F12569   4.592   3.557   7.376  0.2002  0.2581  0.6984
  119OSM    H9F12570   4.513   3.523   7.307  1.8984 -0.8394 -0.7956
  119OSM   C10F12571   4.556   3.589   7.498 -0.3121  0.3053  0.0887
  119OSM   H10F12572   4.451   3.571   7.523 -0.1091 -0.4220  0.4719
  119OSM   C11F12573   4.651   3.634   7.607  0.4346  0.3752 -0.3186
  119OSM   H11F12574   4.696   3.731   7.579 -0.8279  0.2302 -3.1156
  119OSM   H11G12575   4.740   3.568   7.614 -0.0090 -0.3916 -1.6076
  119OSM   C12F12576   4.587   3.663   7.744  0.9832  0.1577  0.3789
  119OSM   H12F12577   4.523   3.579   7.777 -1.6521  0.4508 -3.3460
  119OSM   H12G12578   4.518   3.749   7.727  0.0358 -0.6185  0.2443
  119OSM   C13F12579   4.696   3.702   7.848 -0.0646  0.2026  0.6718
  119OSM   H13F12580   4.744   3.798   7.818  1.1262  0.1680  2.3387
  119OSM   H13G12581   4.776   3.627   7.832 -0.7999 -1.1589  2.9614
  119OSM   C14F12582   4.642   3.704   7.987 -0.2762 -0.6353 -0.9452
  119OSM   H14F12583   4.587   3.609   8.004 -0.3113 -0.4744 -0.1043
  119OSM   H14G12584   4.557   3.776   7.983 -2.5582 -3.1518 -0.5334
  119OSM   C15F12585   4.746   3.749   8.100 -0.4578 -0.2257  0.1659
  119OSM   H15F12586   4.787   3.843   8.058  1.4054 -0.3709  1.5458
  119OSM   H15G12587   4.828   3.673   8.097 -0.7521 -0.6897  2.3098
  119OSM   C16F12588   4.709   3.749   8.252  0.2650  0.3950  0.0177
  119OSM   H16F12589   4.725   3.646   8.291 -1.8166  0.1654  0.3628
  119OSM   H16G12590   4.602   3.772   8.270  0.6765  3.1140 -0.5939
  119OSM   C17F12591   4.799   3.841   8.331  0.0574 -0.5725 -0.7198
  119OSM   H17F12592   4.752   3.857   8.430 -0.4487  0.5263 -1.1201
  119OSM   H17G12593   4.802   3.945   8.291 -2.2723  0.7866  2.2812
  119OSM   C18F12594   4.938   3.786   8.366 -0.3987 -0.5346  0.3515
  119OSM   H18F12595   4.932   3.681   8.401 -1.1107 -0.9018 -0.8086
  119OSM   H18G12596   4.986   3.858   8.435 -0.6001 -1.4733  1.4908
  119OSM   H18H12597   5.001   3.787   8.274 -0.6494 -2.2209  0.1406
  120OSM      N12598   2.138   2.226   6.417  0.1808 -0.6435  0.1678
  120OSM    C1512599   2.042   2.334   6.376 -0.0030  0.1820 -0.5877
  120OSM   H15A12600   2.079   2.428   6.415  2.2183 -0.8014 -0.2059
  120OSM   H15B12601   1.944   2.313   6.418  0.1069 -0.0773 -0.4613
  120OSM   H15C12602   2.033   2.347   6.269  0.0917  3.2065 -0.3244
  120OSM    C1412603   2.121   2.204   6.563 -0.6003  0.1324  0.6049
  120OSM   H14A12604   2.016   2.185   6.582 -0.3600 -1.0602  0.8454
  120OSM   H14B12605   2.145   2.293   6.618  0.2501 -0.0471  0.5287
  120OSM   H14C12606   2.187   2.128   6.601 -1.2127 -1.2979 -1.0528
  120OSM    C1312607   2.096   2.097   6.346  0.4318 -0.4895  0.1606
  120OSM   H13A12608   2.106   2.106   6.239  0.8039 -4.2637 -0.2645
  120OSM   H13B12609   1.998   2.070   6.383  0.3272  0.4576  0.5935
  120OSM   H13C12610   2.156   2.012   6.373 -1.7992 -1.7533  1.4672
  120OSM    C1212611   2.284   2.261   6.379 -0.1569 -0.1368 -0.4656
  120OSM   H12A12612   2.305   2.356   6.426 -1.4744 -1.1069  2.3119
  120OSM   H12B12613   2.292   2.265   6.272  0.6995 -3.0107 -0.5967
  120OSM    C1112614   2.397   2.164   6.424  0.2401 -0.0671 -0.0828
  120OSM   H11A12615   2.413   2.166   6.534 -4.5015  0.9492  0.8144
  120OSM   H11B12616   2.496   2.200   6.388  1.8537 -2.1053  2.0366
  120OSM      P12617   2.390   1.900   6.469 -0.0376  0.3040 -0.3202
  120OSM    O1312618   2.269   1.817   6.443  0.2209  0.0861 -0.5724
  120OSM    O1412619   2.522   1.831   6.468 -0.1212 -0.6011 -0.1485
  120OSM    O1112620   2.364   1.966   6.608 -0.1852  0.0782  0.8113
  120OSM    O1212621   2.385   2.028   6.371  0.2124 -0.5331  0.3885
  120OSM    C1S12622   2.320   1.878   6.719 -0.1718 -0.5076 -0.1448
  120OSM    H1S12623   2.354   1.773   6.710  2.1573  0.1003  0.8721
  120OSM    H1T12624   2.209   1.876   6.725 -0.1598 -0.2833  0.2204
  120OSM     NF12625   2.329   1.827   6.958  0.1028  0.6992  0.7057
  120OSM    HNF12626   2.248   1.843   7.014 -1.5302 -1.9400 -0.7336
  120OSM    C2S12627   2.366   1.922   6.860  0.4218 -0.1186 -0.6879
  120OSM    H2S12628   2.476   1.939   6.861  0.2694  0.9864  0.2064
  120OSM    C3S12629   2.304   2.065   6.891 -0.6699  0.5635  0.7267
  120OSM    H3S12630   2.194   2.057   6.899 -0.9024 -3.6623 -3.0966
  120OSM     O312631   2.330   2.157   6.787  0.1471 -0.0701  0.0870
  120OSM    HO312632   2.338   2.106   6.706  0.3731 -0.2670  0.2302
  120OSM    C4S12633   2.370   2.117   7.014 -0.4610  0.4684  0.3711
  120OSM    H4S12634   2.480   2.112   7.008 -0.1298  0.6156  4.0846
  120OSM    C5S12635   2.311   2.152   7.133  0.5018  0.3076 -0.1043
  120OSM    H5S12636   2.201   2.146   7.142  0.6460  0.2447  2.0742
  120OSM    C6S12637   2.358   2.205   7.262  0.0194  0.0094 -0.5441
  120OSM    H6S12638   2.301   2.294   7.295 -0.3927 -0.2206 -0.6254
  120OSM    H6T12639   2.469   2.213   7.261  0.1473 -1.0071  0.9442
  120OSM    C7S12640   2.347   2.097   7.372 -0.0580  0.8216  0.7000
  120OSM    H7S12641   2.395   2.002   7.343 -1.7728  1.0916 -3.7592
  120OSM    H7T12642   2.242   2.065   7.392  0.3974  0.3505  2.5883
  120OSM    C8S12643   2.387   2.137   7.514 -0.2846 -0.2820  0.3175
  120OSM    H8S12644   2.312   2.205   7.561 -0.8381  0.2975 -1.3288
  120OSM    H8T12645   2.480   2.198   7.511 -0.1930 -0.4660 -1.0954
  120OSM    C9S12646   2.403   2.014   7.596 -0.2951  0.4041 -0.2649
  120OSM    H9S12647   2.470   1.942   7.543  1.3999  0.6428  1.4503
  120OSM    H9T12648   2.303   1.967   7.607 -0.7704  1.9409  3.4964
  120OSM   C10S12649   2.471   2.040   7.729 -0.4372  1.1530 -0.0767
  120OSM   H10S12650   2.407   2.111   7.784 -1.4513  1.1454 -1.2062
  120OSM   H10T12651   2.570   2.089   7.712  0.5178 -0.9320 -0.9774
  120OSM   C11S12652   2.492   1.915   7.817 -0.0934 -0.2569  0.6805
  120OSM   H11S12653   2.550   1.839   7.760  1.0033  1.7183 -1.0230
  120OSM   H11T12654   2.398   1.871   7.856 -0.6115  0.7213  0.5756
  120OSM   C12S12655   2.580   1.937   7.947  0.4973  0.5235  0.1703
  120OSM   H12S12656   2.672   1.993   7.920 -0.0200  1.1819 -0.2569
  120OSM   H12T12657   2.604   1.834   7.982 -0.1836 -0.7368 -2.7514
  120OSM   C13S12658   2.507   1.997   8.066 -0.7453 -0.3438  0.0758
  120OSM   H13S12659   2.418   1.939   8.100 -0.6631  0.1337  1.1343
  120OSM   H13T12660   2.466   2.095   8.033  1.1717  1.2480  2.0967
  120OSM   C14S12661   2.605   2.036   8.177 -0.3892  0.3483 -0.1942
  120OSM   H14S12662   2.696   2.087   8.137 -0.2329 -0.4506 -0.8980
  120OSM   H14T12663   2.633   1.941   8.228 -0.4911 -0.2400 -1.2037
  120OSM   C15S12664   2.543   2.138   8.284  0.2807  0.3725  0.0164
  120OSM   H15S12665   2.443   2.105   8.319  0.0269 -1.7096 -2.3518
  120OSM   H15T12666   2.542   2.242   8.247  3.3283  0.1791 -0.9291
  120OSM   C16S12667   2.646   2.149   8.405  0.6654 -0.0994 -0.5819
  120OSM   H16S12668   2.745   2.184   8.370  0.2167  1.2280 -0.6175
  120OSM   H16T12669   2.661   2.044   8.437  1.6811  0.1265 -0.3048
  120OSM   C17S12670   2.598   2.226   8.524 -0.7665 -0.1045  0.2673
  120OSM   H17S12671   2.665   2.197   8.607 -1.2599 -0.7538  0.4423
  120OSM   H17T12672   2.498   2.197   8.564 -0.1036 -1.0662  1.2705
  120OSM   C18S12673   2.604   2.383   8.511 -0.2564  0.1838 -0.3300
  120OSM   H18S12674   2.534   2.411   8.430  0.5070  0.5459 -0.8773
  120OSM   H18T12675   2.699   2.440   8.499  0.6208 -1.0942  0.2392
  120OSM   H18U12676   2.554   2.424   8.602  0.3776  0.7034 -0.2061
  120OSM    C1F12677   2.401   1.719   6.973 -0.3924  0.9765  0.0169
  120OSM     OF12678   2.503   1.700   6.906 -0.4978  0.1171  0.1173
  120OSM    C2F12679   2.362   1.627   7.085  0.1512  1.0318  0.4861
  120OSM    H2F12680   2.341   1.524   7.051 -0.3632  0.0555  3.4390
  120OSM    H2G12681   2.266   1.664   7.128 -0.7724  0.1572 -0.7491
  120OSM    C3F12682   2.459   1.612   7.204 -1.2251 -0.5480 -0.9582
  120OSM    H3F12683   2.492   1.716   7.227  1.3628 -1.4904 -0.0675
  120OSM    H3G12684   2.551   1.558   7.175 -1.1465 -0.7155 -0.4054
  120OSM    C4F12685   2.410   1.551   7.336 -0.0004  0.8931 -0.8393
  120OSM    H4F12686   2.476   1.465   7.364  0.0034  1.2186  0.2173
  120OSM    H4G12687   2.306   1.515   7.323 -0.2323  1.2739 -0.1195
  120OSM    C5F12688   2.392   1.655   7.452  0.2237  0.7785  0.0333
  120OSM    H5F12689   2.321   1.737   7.428  2.0840  2.2050 -0.8233
  120OSM    H5G12690   2.487   1.703   7.483  0.2667  1.1793 -0.7017
  120OSM    C6F12691   2.358   1.577   7.585  0.0645 -1.1687  0.0491
  120OSM    H6F12692   2.364   1.649   7.669 -2.2385 -1.7268  0.7681
  120OSM    H6G12693   2.434   1.498   7.605 -0.5316 -1.8834 -0.4252
  120OSM    C7F12694   2.219   1.505   7.575 -0.2794 -0.7304 -0.6784
  120OSM    H7F12695   2.217   1.427   7.496 -3.5105 -0.9077 -0.5296
  120OSM    H7G12696   2.152   1.587   7.541 -2.1221  0.0069  4.0703
  120OSM    C8F12697   2.161   1.453   7.708 -0.2122  0.2131  0.1253
  120OSM    H8F12698   2.228   1.379   7.757 -3.3654 -0.7465  3.4341
  120OSM    H8G12699   2.069   1.401   7.675  0.2183  0.5921 -1.8106
  120OSM    C9F12700   2.125   1.559   7.806  0.5232 -0.1805  0.5967
  120OSM    H9F12701   2.063   1.631   7.750 -0.0175 -0.9496  0.1906
  120OSM   C10F12702   2.139   1.576   7.943 -0.0700 -0.0238 -0.2811
  120OSM   H10F12703   2.104   1.666   7.994  1.1809 -1.6634  3.8899
  120OSM   C11F12704   2.205   1.484   8.039 -0.4227  0.2198  0.3623
  120OSM   H11F12705   2.229   1.385   7.997 -1.3641  0.6920 -1.3906
  120OSM   H11G12706   2.135   1.468   8.124  0.3498  2.0806  1.4179
  120OSM   C12F12707   2.331   1.548   8.104  0.3819  0.5076 -0.1521
  120OSM   H12F12708   2.295   1.644   8.148  0.6204  0.5649 -0.0791
  120OSM   H12G12709   2.400   1.579   8.023  0.5161 -0.9197 -0.6111
  120OSM   C13F12710   2.386   1.464   8.210 -0.3168 -0.6082 -0.7019
  120OSM   H13F12711   2.442   1.379   8.166 -0.3671 -0.2292 -1.5185
  120OSM   H13G12712   2.303   1.429   8.275  0.3268  2.9637  2.4111
  120OSM   C14F12713   2.478   1.560   8.293  0.1875 -0.0093 -0.1634
  120OSM   H14F12714   2.419   1.630   8.357  1.4908  1.6677 -0.7114
  120OSM   H14G12715   2.528   1.628   8.220 -1.1506  0.0594 -1.0762
  120OSM   C15F12716   2.580   1.472   8.373 -0.0316  0.0421 -0.5544
  120OSM   H15F12717   2.631   1.408   8.297 -1.1111 -0.1808 -1.1143
  120OSM   H15G12718   2.521   1.408   8.442 -2.7913  0.7627 -2.1166
  120OSM   C16F12719   2.674   1.567   8.443 -0.2307  0.5410 -0.3178
  120OSM   H16F12720   2.614   1.625   8.516 -1.7165 -1.0237 -0.2548
  120OSM   H16G12721   2.724   1.641   8.376 -2.2495  1.6198 -0.7036
  120OSM   C17F12722   2.789   1.482   8.514  0.6130  0.2326 -0.4892
  120OSM   H17F12723   2.843   1.420   8.439  1.6877 -0.4680  0.8130
  120OSM   H17G12724   2.732   1.422   8.589  0.0190  0.3596 -0.8320
  120OSM   C18F12725   2.900   1.569   8.574 -0.3200  0.7572 -0.0247
  120OSM   H18F12726   2.964   1.503   8.637 -1.4120 -1.9699 -1.5741
  120OSM   H18G12727   2.855   1.642   8.645 -1.0450  0.6715 -0.3802
  120OSM   H18H12728   2.957   1.625   8.497  1.8329 -2.6420 -1.1096
  121OSM      N12729   5.622   3.978   6.080  0.6776 -0.0110 -0.2133
  121OSM    C1512730   5.480   3.947   6.100  0.4907  0.9492 -0.4173
  121OSM   H15A12731   5.472   3.909   6.200 -0.5027  0.9038 -0.4961
  121OSM   H15B12732   5.442   3.870   6.034 -0.2262  0.4701  0.5225
  121OSM   H15C12733   5.411   4.030   6.087 -0.3615  0.2437 -0.5345
  121OSM    C1412734   5.643   3.991   5.933 -0.0767 -0.1155 -0.0992
  121OSM   H14A12735   5.736   4.023   5.888 -0.8408 -0.3983 -1.9463
  121OSM   H14B12736   5.583   4.072   5.895  0.0728  0.6710  1.2739
  121OSM   H14C12737   5.607   3.899   5.889  1.5331 -2.0685  2.3412
  121OSM    C1312738   5.653   4.109   6.139 -0.7893  0.7571  0.5410
  121OSM   H13A12739   5.642   4.103   6.246  0.6027 -0.1577  0.6537
  121OSM   H13B12740   5.594   4.194   6.107 -0.6589  1.0018  0.9425
  121OSM   H13C12741   5.758   4.126   6.120  0.1772 -2.8307  1.9820
  121OSM    C1212742   5.711   3.864   6.137 -0.2669 -0.3448 -0.8293
  121OSM   H12A12743   5.816   3.888   6.127 -0.5626  2.4546  1.5662
  121OSM   H12B12744   5.687   3.781   6.072 -1.3528  0.1951 -1.1358
  121OSM    C1112745   5.675   3.816   6.290  0.7168  0.0081 -0.1148
  121OSM   H11A12746   5.670   3.902   6.359  1.1108  0.4514 -0.6282
  121OSM   H11B12747   5.752   3.749   6.334 -0.7076 -0.3511  1.9569
  121OSM      P12748   5.539   3.608   6.253 -0.1071  0.0562 -0.0522
  121OSM    O1312749   5.404   3.592   6.190 -0.3182  0.0355 -0.2358
  121OSM    O1412750   5.657   3.585   6.165 -0.3101 -0.1257 -0.3845
  121OSM    O1112751   5.550   3.520   6.390  0.2368  0.6114 -0.0009
  121OSM    O1212752   5.547   3.754   6.298 -0.3104  0.0913 -0.6181
  121OSM    C1S12753   5.464   3.550   6.497 -0.6524  0.6697 -0.1929
  121OSM    H1S12754   5.431   3.656   6.502  0.3771  0.9756  0.5886
  121OSM    H1T12755   5.521   3.518   6.587 -0.2977 -0.9799 -0.9654
  121OSM     NF12756   5.257   3.508   6.617  0.0382  0.6344 -0.2244
  121OSM    HNF12757   5.260   3.454   6.701  2.1998 -0.3062 -0.8401
  121OSM    C2S12758   5.338   3.461   6.507  0.6075 -0.0767 -0.3233
  121OSM    H2S12759   5.275   3.471   6.416  0.0893 -0.6751 -0.0383
  121OSM    C3S12760   5.380   3.309   6.520  0.1199 -0.3770 -0.1874
  121OSM    H3S12761   5.442   3.310   6.613 -1.2172 -1.1732  0.7548
  121OSM     O312762   5.460   3.259   6.416 -0.1119 -0.0412  0.7274
  121OSM    HO312763   5.490   3.336   6.367  0.5996 -2.2029 -2.5034
  121OSM    C4S12764   5.251   3.231   6.541 -0.0726  0.0608  0.3474
  121OSM    H4S12765   5.195   3.193   6.455 -1.8056  0.2729  1.3218
  121OSM    C5S12766   5.198   3.187   6.658 -0.3030 -0.2515  0.5870
  121OSM    H5S12767   5.242   3.207   6.757  0.1265 -0.1458  0.3787
  121OSM    C6S12768   5.074   3.107   6.673  0.0930 -0.1097 -0.0058
  121OSM    H6S12769   5.043   3.062   6.576  1.3432 -1.2515  0.0979
  121OSM    H6T12770   4.990   3.169   6.711 -1.0462 -2.3193  1.3349
  121OSM    C7S12771   5.084   2.991   6.767  0.1649  0.2119 -0.2244
  121OSM    H7S12772   5.104   3.025   6.870 -0.1678  2.5356 -0.8540
  121OSM    H7T12773   5.162   2.920   6.733 -0.3442 -0.2268 -0.5115
  121OSM    C8S12774   4.950   2.914   6.774  0.2551  0.6434 -0.2374
  121OSM    H8S12775   4.932   2.875   6.671  0.4061  0.6815 -0.2785
  121OSM    H8T12776   4.871   2.990   6.791  0.6665  1.5959 -2.3155
  121OSM    C9S12777   4.958   2.794   6.869  0.7537  0.1615 -0.4744
  121OSM    H9S12778   5.048   2.730   6.853  1.3742  0.4809  1.4471
  121OSM    H9T12779   4.875   2.722   6.852  1.1901 -0.6525  0.7016
  121OSM   C10S12780   4.949   2.848   7.014  0.2936  0.2395  0.3233
  121OSM   H10S12781   4.847   2.893   7.016 -0.5804 -1.2739 -2.9557
  121OSM   H10T12782   5.020   2.932   7.032  2.7361 -1.6319 -0.0279
  121OSM   C11S12783   4.990   2.752   7.121  0.0798 -0.5320  0.4521
  121OSM   H11S12784   5.093   2.717   7.101  0.4723  0.5489  0.5210
  121OSM   H11T12785   4.920   2.667   7.114 -0.4755 -0.1470  1.1546
  121OSM   C12S12786   4.981   2.821   7.259  0.0847  0.0065 -0.8374
  121OSM   H12S12787   4.890   2.883   7.272 -1.0235 -1.5468 -0.8011
  121OSM   H12T12788   5.075   2.878   7.269 -0.2742  0.4421  0.1816
  121OSM   C13S12789   4.992   2.719   7.379 -0.2997 -0.1232 -0.4382
  121OSM   H13S12790   5.089   2.666   7.368  0.3155  0.6255  1.0477
  121OSM   H13T12791   4.907   2.648   7.369  1.1750 -2.1345  0.6659
  121OSM   C14S12792   4.976   2.793   7.505 -0.7830  0.3435 -0.0568
  121OSM   H14S12793   4.903   2.876   7.503  1.9733  2.9716 -0.2310
  121OSM   H14T12794   5.075   2.836   7.532 -1.3131  1.4518  0.1690
  121OSM   C15S12795   4.932   2.704   7.624 -0.5604 -0.0819 -0.6005
  121OSM   H15S12796   4.993   2.611   7.626  0.1297  0.2835 -2.5698
  121OSM   H15T12797   4.832   2.661   7.601 -0.1581 -1.1055 -0.4971
  121OSM   C16S12798   4.949   2.779   7.758  0.0294 -0.0366  0.5256
  121OSM   H16S12799   4.910   2.882   7.749  2.2134  0.7722 -0.6591
  121OSM   H16T12800   5.058   2.796   7.773  0.2515 -1.0602  0.1514
  121OSM   C17S12801   4.888   2.723   7.879  0.1516  0.0828 -0.9485
  121OSM   H17S12802   4.914   2.616   7.896 -1.2272  0.2221  3.1527
  121OSM   H17T12803   4.779   2.733   7.861 -0.5474 -1.4691  1.8326
  121OSM   C18S12804   4.916   2.805   8.003  0.4430  1.4422  0.2674
  121OSM   H18S12805   4.886   2.746   8.092 -0.2182 -0.4617 -1.1588
  121OSM   H18T12806   4.861   2.902   7.997  0.5376  1.4159 -1.7417
  121OSM   H18U12807   5.026   2.823   8.002  0.9929 -1.4125 -1.5235
  121OSM    C1F12808   5.201   3.633   6.632 -0.1975 -0.4577  0.1226
  121OSM     OF12809   5.176   3.706   6.537  0.3654  0.8650  0.0701
  121OSM    C2F12810   5.168   3.675   6.778 -0.6027  0.0772  0.0114
  121OSM    H2F12811   5.264   3.678   6.833 -1.6986  1.3918  1.9929
  121OSM    H2G12812   5.107   3.591   6.818 -1.6405  0.6902 -0.2140
  121OSM    C3F12813   5.088   3.804   6.804 -0.0516  0.7176 -0.6979
  121OSM    H3F12814   4.996   3.799   6.742  2.1504  0.4221 -4.2027
  121OSM    H3G12815   5.145   3.888   6.761  1.6378 -0.7239 -1.4156
  121OSM    C4F12816   5.064   3.832   6.952 -0.2473  0.5023  0.6445
  121OSM    H4F12817   5.155   3.816   7.014 -0.1773 -0.3561  0.3421
  121OSM    H4G12818   4.982   3.766   6.987 -0.1002  0.1825  0.3894
  121OSM    C5F12819   5.028   3.978   6.986  0.4509  0.3144  0.1770
  121OSM    H5F12820   4.941   4.011   6.924 -0.1972 -2.3138 -0.4254
  121OSM    H5G12821   5.109   4.038   6.941 -1.5801  3.0759 -0.0849
  121OSM    C6F12822   5.018   4.006   7.137 -0.3034 -0.4442  0.2166
  121OSM    H6F12823   4.937   3.934   7.161  0.8424 -2.1726 -0.9162
  121OSM    H6G12824   4.993   4.113   7.159 -0.1267 -0.4919  0.6399
  121OSM    C7F12825   5.138   3.962   7.226  0.0772 -0.2468 -0.1328
  121OSM    H7F12826   5.231   3.979   7.167 -1.1650  1.2959 -1.7440
  121OSM    H7G12827   5.138   3.852   7.239 -2.0351 -0.3047 -0.3074
  121OSM    C8F12828   5.135   4.027   7.362 -0.0626 -0.9473  0.7675
  121OSM    H8F12829   5.139   4.137   7.342 -2.9674 -1.2325 -2.0236
  121OSM    H8G12830   5.223   3.990   7.420  0.5639  1.5736  1.5787
  121OSM    C9F12831   5.010   3.990   7.431  0.7065  0.1943  0.0661
  121OSM    H9F12832   4.919   4.034   7.388  0.5550  1.0197  1.1797
  121OSM   C10F12833   4.986   3.905   7.536 -0.4090  0.6523  0.1957
  121OSM   H10F12834   4.883   3.880   7.562  0.0987 -0.0690  1.5814
  121OSM   C11F12835   5.084   3.835   7.622  0.0591 -0.6553 -0.3294
  121OSM   H11F12836   5.177   3.822   7.563  0.6617 -1.2919  0.7409
  121OSM   H11G12837   5.039   3.741   7.659 -1.6178 -0.1990 -1.1369
  121OSM   C12F12838   5.129   3.923   7.737 -0.3409  0.1395 -0.0660
  121OSM   H12F12839   5.186   4.011   7.701  1.1273 -0.3075  1.0502
  121OSM   H12G12840   5.204   3.863   7.793 -0.1361  1.3932  1.0684
  121OSM   C13F12841   5.022   3.970   7.836 -0.3256 -0.2000 -0.1452
  121OSM   H13F12842   4.973   3.879   7.877  0.3966 -0.5860 -0.1140
  121OSM   H13G12843   4.945   4.024   7.776  1.1125  1.7830 -0.2960
  121OSM   C14F12844   5.090   4.062   7.937  0.4310  0.0668 -0.3231
  121OSM   H14F12845   5.015   4.088   8.015  2.1089  0.0243  1.3949
  121OSM   H14G12846   5.132   4.155   7.893 -0.5441 -0.6211 -2.9236
  121OSM   C15F12847   5.201   3.999   8.023 -0.2825 -0.1271  0.3895
  121OSM   H15F12848   5.292   3.989   7.960  0.3582  0.5981  1.1566
  121OSM   H15G12849   5.185   3.901   8.073 -2.9514 -0.1512 -0.4107
  121OSM   C16F12850   5.237   4.086   8.148  0.1558 -0.0402  1.0355
  121OSM   H16F12851   5.145   4.093   8.211 -0.1292  3.5652  0.4714
  121OSM   H16G12852   5.255   4.188   8.106 -1.0143 -0.3382 -0.2804
  121OSM   C17F12853   5.355   4.023   8.229 -0.3468  0.5486  0.7188
  121OSM   H17F12854   5.444   4.012   8.163 -0.4353 -1.0114  0.8150
  121OSM   H17G12855   5.325   3.920   8.259  0.7884 -0.0644 -0.1510
  121OSM   C18F12856   5.411   4.126   8.336  0.2596  0.1291  0.7901
  121OSM   H18F12857   5.447   4.215   8.281 -3.5077  2.3100  1.4987
  121OSM   H18G12858   5.490   4.078   8.398  0.8660 -0.7004 -0.5899
  121OSM   H18H12859   5.329   4.155   8.406 -1.1205  0.6909 -0.9997
  122OSM      N12860   2.136   5.024   5.675  0.5513  0.2635  0.7033
  122OSM    C1512861   2.060   5.123   5.596 -0.6224  0.1068 -0.0896
  122OSM   H15A12862   2.079   5.215   5.650 -1.0416 -0.7805  1.6308
  122OSM   H15B12863   1.953   5.107   5.597 -0.7564  0.9726  0.4824
  122OSM   H15C12864   2.105   5.132   5.498  0.9832 -0.0182  0.6149
  122OSM    C1412865   2.123   4.884   5.613  0.3552  0.1345 -0.1040
  122OSM   H14A12866   2.176   4.808   5.669 -1.8134 -3.0931 -2.0972
  122OSM   H14B12867   2.155   4.869   5.511 -2.3602  0.0831 -1.0207
  122OSM   H14C12868   2.019   4.856   5.617  0.4034 -0.3767 -1.6426
  122OSM    C1312869   2.282   5.049   5.678  0.1635  0.0376  0.1996
  122OSM   H13A12870   2.330   4.964   5.726  0.2554 -0.0206  0.0033
  122OSM   H13B12871   2.320   5.140   5.722 -0.9680  0.0025  1.3264
  122OSM   H13C12872   2.317   5.058   5.577 -0.1247  1.8644  0.2279
  122OSM    C1212873   2.086   5.024   5.817 -0.2857  0.0971  0.3717
  122OSM   H12A12874   1.984   4.989   5.825 -0.7974  1.9102  2.9818
  122OSM   H12B12875   2.091   5.124   5.856  1.2300  0.5700 -0.9201
  122OSM    C1112876   2.165   4.931   5.914 -0.0583 -0.1353  0.7730
  122OSM   H11A12877   2.124   4.946   6.016 -0.5486  0.5550  0.4813
  122OSM   H11B12878   2.275   4.949   5.907  0.4311 -2.1361  2.5315
  122OSM      P12879   2.016   4.730   5.925  0.0259  0.0805 -0.1285
  122OSM    O1312880   1.919   4.837   5.935  0.2728  0.3167 -0.2310
  122OSM    O1412881   1.980   4.624   5.830  0.1544  0.0651  0.0297
  122OSM    O1112882   2.041   4.670   6.071  0.7437 -0.0652 -0.1864
  122OSM    O1212883   2.152   4.792   5.879 -0.3488 -0.3826  0.5435
  122OSM    C1S12884   1.934   4.655   6.164  1.2328 -0.3378 -1.0910
  122OSM    H1S12885   1.869   4.574   6.124  0.3989 -0.6141  0.7139
  122OSM    H1T12886   1.872   4.747   6.177  1.2472 -0.5808  1.0592
  122OSM     NF12887   1.867   4.598   6.400  0.0897 -0.4088  0.2717
  122OSM    HNF12888   1.849   4.657   6.479 -1.1312  0.8302 -0.8691
  122OSM    C2S12889   1.978   4.625   6.309  0.0688  1.1090 -0.7133
  122OSM    H2S12890   2.050   4.541   6.314  1.6866  2.4433 -0.2132
  122OSM    C3S12891   2.064   4.744   6.366  0.3165  0.0019 -0.1186
  122OSM    H3S12892   2.004   4.837   6.353 -0.9592 -1.0178 -2.2013
  122OSM     O312893   2.195   4.758   6.302  0.1614 -0.3488 -0.0342
  122OSM    HO312894   2.209   4.693   6.232  0.2479  0.8201 -1.1448
  122OSM    C4S12895   2.091   4.716   6.516 -0.5018 -0.0315  0.5499
  122OSM    H4S12896   2.133   4.615   6.526 -1.3157 -0.3526  0.7746
  122OSM    C5S12897   2.075   4.809   6.611 -0.4416 -0.2288 -0.1641
  122OSM    H5S12898   2.046   4.910   6.576 -0.0510  0.4368  1.3281
  122OSM    C6S12899   2.104   4.802   6.759 -0.2331 -0.1960  1.1017
  122OSM    H6S12900   2.093   4.904   6.802 -2.8769 -0.3187  0.8509
  122OSM    H6T12901   2.207   4.762   6.767  1.0563  2.2911 -1.2275
  122OSM    C7S12902   1.992   4.722   6.824  0.1187 -0.0740 -0.3957
  122OSM    H7S12903   1.997   4.617   6.788 -0.0857 -0.1558 -0.1861
  122OSM    H7T12904   1.897   4.767   6.788  1.0764  0.1438 -2.8897
  122OSM    C8S12905   1.999   4.713   6.980 -0.1175  0.4601 -0.1394
  122OSM    H8S12906   1.916   4.652   7.021  0.3500  0.4026  0.7302
  122OSM    H8T12907   2.003   4.812   7.029  0.5343  0.0313  0.6926
  122OSM    C9S12908   2.130   4.644   7.029  0.6137 -0.4059 -0.6054
  122OSM    H9S12909   2.220   4.702   7.001 -1.0412  2.3319 -0.5136
  122OSM    H9T12910   2.137   4.553   6.966  0.1144  0.5099 -2.0132
  122OSM   C10S12911   2.142   4.621   7.177 -0.1942  0.0582  0.8327
  122OSM   H10S12912   2.063   4.544   7.188  0.5986 -0.7568  0.8320
  122OSM   H10T12913   2.114   4.718   7.225  0.0281  0.8963 -0.6492
  122OSM   C11S12914   2.278   4.565   7.219 -0.0548 -0.6819 -0.0572
  122OSM   H11S12915   2.357   4.640   7.238 -0.2222  0.2396 -2.5634
  122OSM   H11T12916   2.314   4.521   7.124  0.9110  1.3955 -0.7107
  122OSM   C12S12917   2.260   4.479   7.345  0.8110 -0.4207  0.0469
  122OSM   H12S12918   2.186   4.397   7.331  0.4532 -0.2663  0.9565
  122OSM   H12T12919   2.213   4.547   7.419  1.8002  2.3061 -1.6801
  122OSM   C13S12920   2.390   4.421   7.391 -0.8311 -0.2405 -0.4035
  122OSM   H13S12921   2.451   4.501   7.439 -0.0130 -1.4174  0.5697
  122OSM   H13T12922   2.453   4.372   7.314  1.5363  2.3063 -0.2435
  122OSM   C14S12923   2.367   4.313   7.501  0.1977 -0.0679 -0.9192
  122OSM   H14S12924   2.318   4.221   7.461  0.3109 -0.0246 -1.1641
  122OSM   H14T12925   2.303   4.365   7.575 -0.0138 -0.5445 -0.7648
  122OSM   C15S12926   2.485   4.263   7.590  0.8601 -0.1890  0.4094
  122OSM   H15S12927   2.516   4.334   7.669  0.7843 -0.4398  0.6644
  122OSM   H15T12928   2.571   4.233   7.527 -1.2707 -1.5221 -2.0739
  122OSM   C16S12929   2.447   4.135   7.670  0.1168 -0.3708  0.4150
  122OSM   H16S12930   2.450   4.038   7.616 -0.2074 -2.2464  3.5447
  122OSM   H16T12931   2.361   4.156   7.737  1.6924 -0.7629  2.7035
  122OSM   C17S12932   2.550   4.117   7.788 -0.0887 -0.2334  0.7368
  122OSM   H17S12933   2.579   4.205   7.849  2.2364 -1.0715  0.9276
  122OSM   H17T12934   2.635   4.071   7.734 -0.5048 -1.9675  1.4910
  122OSM   C18S12935   2.509   4.014   7.895  0.8199  0.4771  0.4195
  122OSM   H18S12936   2.494   3.914   7.848  0.7889  1.1711 -1.1256
  122OSM   H18T12937   2.424   4.057   7.952  1.3404  1.0762  0.7508
  122OSM   H18U12938   2.593   4.011   7.967  1.7029  1.0013 -0.5420
  122OSM    C1F12939   1.800   4.482   6.395 -1.0359 -0.2457 -0.1315
  122OSM     OF12940   1.837   4.398   6.309  0.0620  0.2067 -0.0999
  122OSM    C2F12941   1.691   4.450   6.496 -0.0987 -0.6665 -0.2783
  122OSM    H2F12942   1.742   4.380   6.566 -1.8413 -0.1860  1.5857
  122OSM    H2G12943   1.616   4.386   6.444  0.9713 -2.0479 -0.1770
  122OSM    C3F12944   1.631   4.579   6.577 -0.6308  0.8452 -0.1716
  122OSM    H3F12945   1.595   4.652   6.501 -0.3201  0.5612 -0.5981
  122OSM    H3G12946   1.714   4.624   6.635  0.1458  3.1800 -2.8480
  122OSM    C4F12947   1.499   4.542   6.653  0.6518 -0.1039 -0.0692
  122OSM    H4F12948   1.439   4.487   6.577  1.6437 -1.6295  0.2189
  122OSM    H4G12949   1.450   4.637   6.685  2.6920 -0.2303  4.1501
  122OSM    C5F12950   1.512   4.445   6.774  0.2072  0.4008  0.4297
  122OSM    H5F12951   1.591   4.493   6.835  0.1519  5.1293 -2.6934
  122OSM    H5G12952   1.548   4.351   6.727  2.4751  2.0786 -1.4553
  122OSM    C6F12953   1.385   4.425   6.851  0.2147  0.5175  0.0583
  122OSM    H6F12954   1.330   4.352   6.787  1.4486  0.3242 -0.8074
  122OSM    H6G12955   1.331   4.521   6.862  1.0157  0.8893  0.8325
  122OSM    C7F12956   1.398   4.351   6.987 -0.3867 -0.0708 -0.2367
  122OSM    H7F12957   1.470   4.407   7.050 -0.4986  0.5621 -0.6662
  122OSM    H7G12958   1.436   4.248   6.968 -0.4985  0.3509 -3.2734
  122OSM    C8F12959   1.265   4.328   7.065  0.2459  0.0992 -0.4350
  122OSM    H8F12960   1.300   4.275   7.157 -0.7434  1.5834  0.8522
  122OSM    H8G12961   1.189   4.268   7.010 -2.2858  2.2831  0.5083
  122OSM    C9F12962   1.198   4.454   7.110  0.3180  0.2383 -0.7923
  122OSM    H9F12963   1.175   4.524   7.028 -2.8280 -1.5247 -1.6211
  122OSM   C10F12964   1.166   4.490   7.233  0.3622 -0.3316 -0.6426
  122OSM   H10F12965   1.118   4.587   7.250  1.0589 -0.2687  1.2531
  122OSM   C11F12966   1.173   4.421   7.369  0.0828  0.4853 -0.3431
  122OSM   H11F12967   1.249   4.340   7.375  1.4519  1.7242 -0.6357
  122OSM   H11G12968   1.078   4.366   7.391  0.8377 -1.4737 -1.6829
  122OSM   C12F12969   1.207   4.499   7.499  0.1838 -0.3263  0.0022
  122OSM   H12F12970   1.203   4.425   7.582  0.6021 -0.4682 -0.1032
  122OSM   H12G12971   1.132   4.575   7.531  2.8986  1.2843  3.1899
  122OSM   C13F12972   1.347   4.566   7.488  0.4874  0.0704  0.3628
  122OSM   H13F12973   1.329   4.645   7.413 -1.3139 -1.4591 -0.9158
  122OSM   H13G12974   1.416   4.496   7.436 -0.4313 -1.9408  1.7132
  122OSM   C14F12975   1.410   4.610   7.618 -0.3691 -0.4348  0.2170
  122OSM   H14F12976   1.410   4.524   7.688 -1.9359  0.3786  1.2549
  122OSM   H14G12977   1.327   4.675   7.652 -0.0975  0.3945 -0.6634
  122OSM   C15F12978   1.548   4.685   7.614 -0.4123  0.1435 -0.2213
  122OSM   H15F12979   1.563   4.726   7.512  1.7801  0.7622  0.3051
  122OSM   H15G12980   1.629   4.616   7.642 -1.4686 -0.2938  1.9680
  122OSM   C16F12981   1.553   4.816   7.704 -0.3728 -0.0279 -0.0484
  122OSM   H16F12982   1.486   4.889   7.652  0.0238 -0.2892 -0.9367
  122OSM   H16G12983   1.656   4.854   7.693  0.1193 -1.6744 -1.4744
  122OSM   C17F12984   1.517   4.793   7.845  0.1136  0.5409 -0.9301
  122OSM   H17F12985   1.584   4.721   7.898  2.1279  2.7278 -0.3586
  122OSM   H17G12986   1.413   4.754   7.852  0.7764 -1.1647  0.1708
  122OSM   C18F12987   1.515   4.932   7.912 -0.0628  0.7679 -0.3861
  122OSM   H18F12988   1.499   4.934   8.022  2.4846  1.1870  0.0374
  122OSM   H18G12989   1.443   5.006   7.869 -0.5198 -0.0869 -1.1385
  122OSM   H18H12990   1.613   4.980   7.891  1.8109 -2.3896  0.5177
  123OSM      N12991   1.095   0.621   6.179 -0.4151  0.1150  0.5739
  123OSM    C1512992   0.992   0.714   6.130 -0.7199  0.4884  0.8562
  123OSM   H15A12993   0.898   0.667   6.157 -1.1812  1.6565  1.3355
  123OSM   H15B12994   0.995   0.734   6.025 -1.3212 -1.7677  0.3453
  123OSM   H15C12995   0.998   0.812   6.176  0.7505  1.2846 -0.9356
  123OSM    C1412996   1.057   0.480   6.137  0.3346 -0.2565 -0.0927
  123OSM   H14A12997   1.045   0.496   6.031  2.1954 -1.3228 -0.5058
  123OSM   H14B12998   0.968   0.446   6.187  0.6873  0.8636  1.3640
  123OSM   H14C12999   1.137   0.408   6.151  2.4922  2.0781  0.1430
  123OSM    C1313000   1.222   0.645   6.108 -0.2676 -0.0653  0.1063
  123OSM   H13A13001   1.221   0.668   6.002  2.1276 -1.2690 -0.2690
  123OSM   H13B13002   1.289   0.561   6.125 -1.5349 -1.0432  0.4559
  123OSM   H13C13003   1.273   0.729   6.152  1.7773 -1.6393  0.9158
  123OSM    C1213004   1.105   0.619   6.323 -0.5422  0.1272 -0.5735
  123OSM   H12A13005   1.168   0.699   6.358 -2.1306  0.9298  0.5428
  123OSM   H12B13006   1.156   0.533   6.364  1.1918  1.7162  0.7703
  123OSM    C1113007   0.972   0.629   6.413 -0.4594  0.0575 -0.2950
  123OSM   H11A13008   0.937   0.734   6.403  1.5867  0.5202 -4.4372
  123OSM   H11B13009   1.005   0.613   6.518  1.9812 -1.5503 -1.2241
  123OSM      P13010   0.722   0.557   6.412 -0.3538  0.0923  0.0257
  123OSM    O1313011   0.665   0.679   6.350 -0.1924 -0.0044 -0.0308
  123OSM    O1413012   0.650   0.429   6.385  0.0635 -0.2113 -0.7830
  123OSM    O1113013   0.724   0.581   6.569  0.2657  0.6138 -0.4053
  123OSM    O1213014   0.873   0.531   6.373 -0.6868  0.2133  0.2836
  123OSM    C1S13015   0.710   0.469   6.669 -0.2815 -0.2184  0.7024
  123OSM    H1S13016   0.789   0.391   6.663  1.5013  1.5981 -1.1607
  123OSM    H1T13017   0.620   0.408   6.647  0.3849 -0.7349 -0.7246
  123OSM     NF13018   0.712   0.422   6.918 -0.5630  1.1285  0.7449
  123OSM    HNF13019   0.622   0.384   6.939 -0.0838  0.4821  1.7130
  123OSM    C2S13020   0.715   0.526   6.816 -0.6576  0.1220 -0.5081
  123OSM    H2S13021   0.816   0.573   6.820 -0.5356  0.0919 -2.3144
  123OSM    C3S13022   0.607   0.635   6.830  0.2755 -0.7368 -0.5018
  123OSM    H3S13023   0.507   0.591   6.845  0.1691 -0.0553  0.9873
  123OSM     O313024   0.602   0.737   6.726 -0.1379 -0.1845 -0.2206
  123OSM    HO313025   0.658   0.710   6.653 -0.8549 -0.1903 -0.7787
  123OSM    C4S13026   0.615   0.696   6.979  0.5040  0.0793 -0.8119
  123OSM    H4S13027   0.555   0.646   7.056  1.8091 -0.3861 -0.0612
  123OSM    C5S13028   0.703   0.794   7.011  0.1683 -1.1801  0.1555
  123OSM    H5S13029   0.746   0.852   6.928 -2.2429 -0.4391 -0.6729
  123OSM    C6S13030   0.718   0.851   7.148 -0.7950 -0.6729 -0.5972
  123OSM    H6S13031   0.718   0.961   7.140 -0.2888 -0.6152  0.1011
  123OSM    H6T13032   0.823   0.829   7.179 -1.5145 -1.2808  1.5800
  123OSM    C7S13033   0.636   0.784   7.255 -0.2210  0.3360 -0.2543
  123OSM    H7S13034   0.661   0.676   7.263  1.6000  0.8332  2.0203
  123OSM    H7T13035   0.531   0.805   7.228 -0.8031 -0.6642  1.1130
  123OSM    C8S13036   0.665   0.842   7.395  0.5876  0.4045 -0.3158
  123OSM    H8S13037   0.647   0.951   7.385  1.0782  0.7519  2.0217
  123OSM    H8T13038   0.769   0.824   7.430  1.0335  2.4899 -0.4642
  123OSM    C9S13039   0.561   0.780   7.491  0.2995 -0.0259 -0.3890
  123OSM    H9S13040   0.576   0.671   7.510 -1.9557 -0.3330 -0.0331
  123OSM    H9T13041   0.461   0.788   7.444 -0.0073 -0.7374  0.1208
  123OSM   C10S13042   0.558   0.856   7.633  0.9796 -1.0097  0.1817
  123OSM   H10S13043   0.458   0.835   7.676  0.8181 -0.6953 -0.0369
  123OSM   H10T13044   0.563   0.966   7.620  0.5703 -0.9071  0.8602
  123OSM   C11S13045   0.662   0.815   7.731 -0.4768  0.4927 -0.3910
  123OSM   H11S13046   0.761   0.856   7.699 -1.2157  1.6870 -1.2260
  123OSM   H11T13047   0.670   0.705   7.722 -0.1982  0.5297 -0.5999
  123OSM   C12S13048   0.636   0.860   7.870  0.1627  0.0659 -0.6916
  123OSM   H12S13049   0.538   0.840   7.919  0.7766 -1.6848 -0.1041
  123OSM   H12T13050   0.650   0.969   7.878 -1.0591  0.0842  2.0896
  123OSM   C13S13051   0.734   0.805   7.980  0.9214  0.4278  0.6286
  123OSM   H13S13052   0.838   0.825   7.948  0.9343 -0.9973 -0.3163
  123OSM   H13T13053   0.729   0.694   7.993  0.7633  0.0714 -2.0453
  123OSM   C14S13054   0.698   0.860   8.119  0.5407 -0.5124 -0.5549
  123OSM   H14S13055   0.594   0.834   8.145 -0.0323  2.5244  0.6780
  123OSM   H14T13056   0.709   0.971   8.111 -2.9576  0.0292  0.3557
  123OSM   C15S13057   0.784   0.806   8.233  0.3395 -0.4699  0.1435
  123OSM   H15S13058   0.882   0.857   8.221 -0.5874  0.8405 -2.5668
  123OSM   H15T13059   0.783   0.695   8.227 -0.2225 -0.4673  0.0976
  123OSM   C16S13060   0.725   0.850   8.371  0.0838  0.1926  0.6757
  123OSM   H16S13061   0.631   0.790   8.367 -0.4895  1.0348  1.3223
  123OSM   H16T13062   0.692   0.956   8.361  1.1772  0.7756  2.6966
  123OSM   C17S13063   0.811   0.808   8.489  0.3043  0.3543 -0.2261
  123OSM   H17S13064   0.903   0.871   8.493 -0.4663  1.4182  1.7722
  123OSM   H17T13065   0.861   0.711   8.464 -0.0228  0.2346 -0.4269
  123OSM   C18S13066   0.758   0.806   8.628 -0.5064 -0.0059  0.8093
  123OSM   H18S13067   0.703   0.901   8.645 -0.7797  0.0330 -0.2578
  123OSM   H18T13068   0.836   0.784   8.704 -1.4650 -0.6666  1.6313
  123OSM   H18U13069   0.685   0.723   8.622 -0.5693  0.0305  1.0455
  123OSM    C1F13070   0.822   0.351   6.953 -0.3993 -0.7760  0.1580
  123OSM     OF13071   0.931   0.378   6.899  0.2646 -0.8184  0.2979
  123OSM    C2F13072   0.825   0.241   7.052  0.8556  0.3301  0.0419
  123OSM    H2F13073   0.792   0.151   6.996  0.7253  0.6416 -0.3896
  123OSM    H2G13074   0.753   0.271   7.132  1.7796  2.3419  0.1779
  123OSM    C3F13075   0.959   0.208   7.124 -0.3974 -0.3728 -0.0721
  123OSM    H3F13076   1.033   0.182   7.045 -0.1827  2.5261 -0.9296
  123OSM    H3G13077   0.931   0.118   7.182  0.8973  0.5259  2.0360
  123OSM    C4F13078   1.020   0.314   7.215 -0.1308  0.2005 -0.5108
  123OSM    H4F13079   1.011   0.413   7.165  0.6521  0.9402  0.7562
  123OSM    H4G13080   1.126   0.294   7.240 -0.3709 -0.6049 -0.1127
  123OSM    C5F13081   0.942   0.324   7.347  0.4250 -0.4110  0.4239
  123OSM    H5F13082   0.944   0.222   7.393  1.7813  0.1547  1.6897
  123OSM    H5G13083   0.837   0.356   7.334  0.5465 -0.4828 -0.9030
  123OSM    C6F13084   1.001   0.435   7.431  0.5962 -0.8869 -0.1259
  123OSM    H6F13085   1.018   0.523   7.365 -0.5750 -0.4275  0.1472
  123OSM    H6G13086   1.098   0.409   7.480  2.1784  1.3514 -1.8540
  123OSM    C7F13087   0.906   0.494   7.549 -0.2903  0.5455  0.3175
  123OSM    H7F13088   0.823   0.551   7.501  0.6474  1.9304  0.2790
  123OSM    H7G13089   0.956   0.573   7.608 -0.3087  1.3922 -0.7648
  123OSM    C8F13090   0.853   0.379   7.635 -0.1375 -0.6214 -0.8108
  123OSM    H8F13091   0.787   0.313   7.575  0.4809 -1.8557 -0.1476
  123OSM    H8G13092   0.785   0.433   7.704  0.8029 -1.2068  0.6022
  123OSM    C9F13093   0.939   0.280   7.717 -0.4876 -1.1082  0.5294
  123OSM    H9F13094   0.975   0.191   7.663  0.0761 -0.6932  0.1937
  123OSM   C10F13095   0.980   0.300   7.842 -0.2622 -0.6547 -0.7706
  123OSM   H10F13096   1.035   0.226   7.903 -1.2117  0.7423  1.9731
  123OSM   C11F13097   0.948   0.423   7.925  0.2651 -0.8024 -0.2803
  123OSM   H11F13098   0.918   0.501   7.852 -1.4815 -0.2702  0.9537
  123OSM   H11G13099   1.036   0.464   7.980 -0.3954 -0.6958  0.7078
  123OSM   C12F13100   0.846   0.409   8.034 -0.3955  0.4957 -0.8627
  123OSM   H12F13101   0.746   0.401   7.988  1.0183  0.8742 -4.3213
  123OSM   H12G13102   0.846   0.494   8.106  2.1196  0.0388 -0.1957
  123OSM   C13F13103   0.879   0.285   8.119 -0.0368  0.7009 -0.0339
  123OSM   H13F13104   0.986   0.295   8.147  0.0779  0.3977 -0.3442
  123OSM   H13G13105   0.877   0.197   8.050 -3.4510  2.2002 -2.1162
  123OSM   C14F13106   0.794   0.265   8.242 -0.5276 -0.6087  0.2388
  123OSM   H14F13107   0.835   0.179   8.299 -1.2016 -1.0966 -0.0004
  123OSM   H14G13108   0.686   0.255   8.218 -0.1223 -0.5900 -1.8214
  123OSM   C15F13109   0.788   0.377   8.347  0.3034 -0.0239  0.1308
  123OSM   H15F13110   0.708   0.444   8.308 -1.7948 -1.2683  2.0518
  123OSM   H15G13111   0.889   0.417   8.369  0.1949  0.1217  0.3698
  123OSM   C16F13112   0.731   0.325   8.476  0.6373  0.4374 -0.0549
  123OSM   H16F13113   0.810   0.254   8.508 -1.1739 -1.1226  1.2269
  123OSM   H16G13114   0.636   0.270   8.456 -0.0548  1.2361  0.8814
  123OSM   C17F13115   0.687   0.435   8.581  0.2705 -0.5531  0.3037
  123OSM   H17F13116   0.771   0.503   8.605 -0.0098  0.9558 -2.4868
  123OSM   H17G13117   0.676   0.384   8.679 -3.1543  0.2991  0.4956
  123OSM   C18F13118   0.557   0.512   8.563 -0.7670 -0.1028 -0.0295
  123OSM   H18F13119   0.557   0.566   8.466 -2.0037  0.0377  0.0311
  123OSM   H18G13120   0.545   0.593   8.638  4.4523  0.5508  0.4820
  123OSM   H18H13121   0.471   0.442   8.561 -1.6683  0.9638 -1.7039
  124OSM      N13122   2.360   3.560   6.227 -0.0289 -0.3099 -0.1541
  124OSM    C1513123   2.427   3.512   6.098 -0.0031 -0.4108 -0.1451
  124OSM   H15A13124   2.511   3.448   6.123  0.7227 -0.1319 -1.7144
  124OSM   H15B13125   2.461   3.593   6.035  0.7820 -0.1862  0.5591
  124OSM   H15C13126   2.362   3.442   6.048 -0.2396 -1.0813  1.0802
  124OSM    C1413127   2.325   3.443   6.308  0.4104  0.7714  0.4058
  124OSM   H14A13128   2.298   3.472   6.408  0.6378  0.2953  0.6082
  124OSM   H14B13129   2.409   3.376   6.315 -0.1106  0.1791  1.0845
  124OSM   H14C13130   2.235   3.408   6.262  0.1766  0.6382  0.9614
  124OSM    C1313131   2.454   3.646   6.296  0.1896 -0.2202 -0.4197
  124OSM   H13A13132   2.442   3.651   6.403 -1.3668  1.4271 -0.6296
  124OSM   H13B13133   2.450   3.751   6.270 -1.7750 -0.2048 -0.1812
  124OSM   H13C13134   2.552   3.599   6.291 -1.4200 -4.2031  1.2378
  124OSM    C1213135   2.234   3.639   6.195  0.5403 -0.0162  0.0883
  124OSM   H12A13136   2.270   3.728   6.146 -0.1408  0.0962 -0.2231
  124OSM   H12B13137   2.189   3.655   6.292  0.1098  1.0896 -0.2740
  124OSM    C1113138   2.130   3.567   6.104  0.5876  0.8480 -0.0983
  124OSM   H11A13139   2.168   3.551   6.001  1.5415  2.1413  0.0313
  124OSM   H11B13140   2.048   3.640   6.086 -0.1775  0.1814  0.5986
  124OSM      P13141   1.922   3.416   6.135  0.0945 -0.2022 -0.0702
  124OSM    O1313142   1.839   3.533   6.176  0.5038  0.1358 -0.1298
  124OSM    O1413143   1.900   3.362   6.000 -0.3215 -0.3020  0.2366
  124OSM    O1113144   1.881   3.303   6.232 -1.0508 -0.3213  0.4748
  124OSM    O1213145   2.073   3.444   6.157  0.2597  0.6021  0.3398
  124OSM    C1S13146   1.968   3.259   6.339 -0.3773 -0.6004  0.0975
  124OSM    H1S13147   2.070   3.301   6.335  0.3384 -2.3468 -1.3412
  124OSM    H1T13148   1.979   3.148   6.338  2.2849 -0.3945 -1.0160
  124OSM     NF13149   2.002   3.240   6.579 -0.2962 -0.1475 -0.3600
  124OSM    HNF13150   1.975   3.149   6.610 -1.1187  0.4211  0.6493
  124OSM    C2S13151   1.912   3.294   6.481 -0.1143  0.0995 -0.6071
  124OSM    H2S13152   1.910   3.403   6.502 -1.6158 -0.3444  2.1341
  124OSM    C3S13153   1.770   3.220   6.498 -0.5840  0.1556 -0.2298
  124OSM    H3S13154   1.781   3.109   6.500  2.1468  0.3502 -0.3180
  124OSM     O313155   1.685   3.262   6.392 -0.1428  0.5042  0.5475
  124OSM    HO313156   1.741   3.291   6.320 -0.6219 -0.0308 -0.0476
  124OSM    C4S13157   1.722   3.263   6.637  0.9626  0.3845  0.4306
  124OSM    H4S13158   1.695   3.368   6.654 -1.4569 -0.2120  0.6640
  124OSM    C5S13159   1.706   3.178   6.734  0.5004 -0.1779 -0.2440
  124OSM    H5S13160   1.733   3.074   6.713  1.9153 -0.1130  1.0439
  124OSM    C6S13161   1.643   3.208   6.874 -0.1857  0.3424  0.5933
  124OSM    H6S13162   1.554   3.144   6.891  0.1072 -0.2970 -0.2263
  124OSM    H6T13163   1.627   3.318   6.877  3.7806  1.0782 -0.4464
  124OSM    C7S13164   1.733   3.169   6.991 -0.2259 -0.1783 -0.8818
  124OSM    H7S13165   1.817   3.240   6.973 -1.3945  0.8549 -2.6021
  124OSM    H7T13166   1.772   3.065   6.995 -1.7522 -0.7338  1.2376
  124OSM    C8S13167   1.671   3.211   7.128 -0.6742 -0.1050 -0.7074
  124OSM    H8S13168   1.570   3.169   7.146 -0.3462 -1.0003 -0.9151
  124OSM    H8T13169   1.658   3.321   7.123 -1.8036 -0.2844 -3.6500
  124OSM    C9S13170   1.753   3.161   7.249 -0.1261 -0.2696  0.1566
  124OSM    H9S13171   1.855   3.204   7.240 -0.1482 -0.0680  0.7891
  124OSM    H9T13172   1.764   3.051   7.240  1.4529 -0.3039  1.7672
  124OSM   C10S13173   1.689   3.197   7.384  0.7306  0.1502  0.1597
  124OSM   H10S13174   1.590   3.148   7.398  0.0461  1.5347  0.3585
  124OSM   H10T13175   1.673   3.307   7.383 -0.6415 -0.0323 -0.7574
  124OSM   C11S13176   1.772   3.156   7.503 -0.5229  0.2648  0.1278
  124OSM   H11S13177   1.873   3.199   7.483 -0.3917 -0.3446 -0.5421
  124OSM   H11T13178   1.775   3.045   7.504 -1.0961  0.2501  1.5269
  124OSM   C12S13179   1.727   3.199   7.639 -0.4763 -0.1173 -0.1842
  124OSM   H12S13180   1.622   3.174   7.665  0.5307 -0.2715  4.7212
  124OSM   H12T13181   1.727   3.309   7.649  0.0228 -0.2831  2.2650
  124OSM   C13S13182   1.815   3.147   7.757  0.5455  0.7791  0.1706
  124OSM   H13S13183   1.905   3.211   7.764  1.6024 -0.2644 -2.5902
  124OSM   H13T13184   1.836   3.039   7.740  1.0525  0.9879 -0.5672
  124OSM   C14S13185   1.736   3.150   7.889 -0.6508 -0.2155 -0.0178
  124OSM   H14S13186   1.656   3.073   7.886 -1.3156  0.4884 -0.7047
  124OSM   H14T13187   1.694   3.252   7.902 -0.6727 -0.0804 -1.0634
  124OSM   C15S13188   1.821   3.113   8.017 -0.3275  0.3219  0.0526
  124OSM   H15S13189   1.773   3.153   8.108  1.1127  0.9747  0.5479
  124OSM   H15T13190   1.914   3.172   8.013 -0.4406  0.4796 -0.3767
  124OSM   C16S13191   1.835   2.966   8.033 -0.2597 -0.7307 -0.7906
  124OSM   H16S13192   1.877   2.925   7.938  1.4060  3.3965 -2.0446
  124OSM   H16T13193   1.744   2.904   8.049 -0.7504 -0.4307 -2.3183
  124OSM   C17S13194   1.936   2.937   8.145  0.2523  0.2398 -0.2590
  124OSM   H17S13195   1.881   2.964   8.237 -2.7103  1.5747 -2.2878
  124OSM   H17T13196   2.021   3.008   8.133 -0.6456  1.2763 -0.5446
  124OSM   C18S13197   1.980   2.788   8.153  0.2761 -0.6372 -0.3932
  124OSM   H18S13198   2.023   2.752   8.249  0.1427 -0.3214 -0.2110
  124OSM   H18T13199   2.067   2.788   8.084  0.2253  0.0547 -0.4686
  124OSM   H18U13200   1.903   2.718   8.114  0.6433  0.2997 -2.9942
  124OSM    C1F13201   2.118   3.292   6.617 -0.2030 -0.3710  0.0100
  124OSM     OF13202   2.167   3.383   6.549  0.2189  0.1675 -0.3828
  124OSM    C2F13203   2.186   3.245   6.743 -0.2209 -0.4276 -1.3008
  124OSM    H2F13204   2.280   3.191   6.720 -0.0093 -0.0573 -1.3032
  124OSM    H2G13205   2.103   3.182   6.783 -1.6882  1.9014 -0.4495
  124OSM    C3F13206   2.204   3.368   6.844 -0.0247 -0.0815 -0.0955
  124OSM    H3F13207   2.271   3.450   6.811  0.4096 -0.5882 -0.5100
  124OSM    H3G13208   2.258   3.305   6.918  0.5818  0.6769  0.1195
  124OSM    C4F13209   2.070   3.414   6.908 -0.0968  0.3669  0.3602
  124OSM    H4F13210   2.095   3.454   7.009  0.3251  0.1374  0.3506
  124OSM    H4G13211   2.000   3.329   6.918 -1.2661  1.3051  0.3197
  124OSM    C5F13212   1.999   3.519   6.827  0.3186 -0.2021 -0.0558
  124OSM    H5F13213   1.974   3.472   6.729 -1.8224 -0.2487  0.4816
  124OSM    H5G13214   2.063   3.608   6.811  0.2428 -0.3635 -1.3539
  124OSM    C6F13215   1.869   3.551   6.900  0.3013  0.4125  0.0472
  124OSM    H6F13216   1.880   3.569   7.008 -1.9588 -1.1008  0.6181
  124OSM    H6G13217   1.807   3.462   6.874  2.1913 -0.4964 -1.6282
  124OSM    C7F13218   1.796   3.673   6.835 -0.6649  0.1302 -0.2227
  124OSM    H7F13219   1.790   3.637   6.730 -0.6881  1.2993 -0.6390
  124OSM    H7G13220   1.868   3.758   6.835 -0.4548 -0.0331 -1.2797
  124OSM    C8F13221   1.664   3.709   6.906 -0.0431 -0.3611  0.7417
  124OSM    H8F13222   1.625   3.614   6.948  0.3036 -0.6034  0.5270
  124OSM    H8G13223   1.583   3.744   6.839  0.3588 -1.9285 -0.6237
  124OSM    C9F13224   1.678   3.801   7.020 -0.2191 -0.6858  0.6581
  124OSM    H9F13225   1.700   3.904   6.987 -2.2149  0.1559  1.7349
  124OSM   C10F13226   1.679   3.775   7.151 -0.2597  0.9981 -0.1930
  124OSM   H10F13227   1.689   3.865   7.213 -4.0151  3.0757 -2.1814
  124OSM   C11F13228   1.673   3.639   7.210 -0.0021  0.5493 -0.5687
  124OSM   H11F13229   1.730   3.562   7.154 -2.0917 -1.0952 -0.5718
  124OSM   H11G13230   1.570   3.598   7.206  0.8430 -1.8275  0.0177
  124OSM   C12F13231   1.735   3.633   7.356  0.0503  0.4007 -0.6966
  124OSM   H12F13232   1.819   3.700   7.383  2.1525 -1.9814 -0.9243
  124OSM   H12G13233   1.775   3.532   7.379 -0.3946  0.1605 -0.9701
  124OSM   C13F13234   1.628   3.666   7.457 -0.2603 -0.5369  0.5020
  124OSM   H13F13235   1.536   3.605   7.448 -0.3307 -0.1395 -3.1710
  124OSM   H13G13236   1.599   3.773   7.447  2.4321  0.2465  0.1872
  124OSM   C14F13237   1.697   3.656   7.599 -0.4505 -0.8403  0.2681
  124OSM   H14F13238   1.781   3.728   7.607 -2.6535  1.8946  0.1218
  124OSM   H14G13239   1.742   3.555   7.609  2.0368  0.0443 -1.1619
  124OSM   C15F13240   1.599   3.697   7.711 -0.2241 -0.0746  0.0664
  124OSM   H15F13241   1.507   3.636   7.697 -0.9775  1.1853 -0.6797
  124OSM   H15G13242   1.574   3.805   7.707  0.6315  0.0933 -1.1123
  124OSM   C16F13243   1.674   3.681   7.849  0.2010 -0.2761 -0.3084
  124OSM   H16F13244   1.690   3.573   7.872 -1.7291 -0.4306  0.4734
  124OSM   H16G13245   1.609   3.717   7.931 -1.7843  0.0988 -1.9680
  124OSM   C17F13246   1.807   3.758   7.867  0.1213  0.2441 -0.9674
  124OSM   H17F13247   1.774   3.860   7.836 -1.1158 -0.4180 -1.9185
  124OSM   H17G13248   1.887   3.726   7.798  1.8506 -1.1017  1.5158
  124OSM   C18F13249   1.870   3.754   8.004 -0.3735  0.2193  0.4542
  124OSM   H18F13250   1.794   3.805   8.066 -0.2921 -0.7792  1.4123
  124OSM   H18G13251   1.969   3.799   8.029 -0.2149 -1.2714  2.8046
  124OSM   H18H13252   1.876   3.648   8.038 -0.8898  0.3645  1.0070
  125OSM      N13253   6.234   0.692   6.397  0.1450  0.2114 -0.0804
  125OSM    C1513254   6.310   0.637   6.284 -0.0426  0.1489 -0.0423
  125OSM   H15A13255   6.412   0.670   6.281 -0.0429  0.1147 -1.6330
  125OSM   H15B13256   6.267   0.664   6.188 -0.3715 -0.6044 -0.1225
  125OSM   H15C13257   6.310   0.529   6.291  1.6158  0.0976 -0.3514
  125OSM    C1413258   6.100   0.620   6.387 -0.3347 -0.1741 -0.0321
  125OSM   H14A13259   6.040   0.647   6.472  0.1108  1.4523 -0.2051
  125OSM   H14B13260   6.106   0.512   6.392 -1.0881 -0.3649 -2.0518
  125OSM   H14C13261   6.046   0.654   6.299  0.1613 -0.3227 -0.4010
  125OSM    C1313262   6.297   0.651   6.521  0.3340  0.0767 -0.3013
  125OSM   H13A13263   6.394   0.697   6.531  0.8719 -1.0961 -0.0260
  125OSM   H13B13264   6.317   0.545   6.521 -0.1643 -0.0346  1.3778
  125OSM   H13C13265   6.245   0.675   6.612 -1.4499  1.7248 -1.6611
  125OSM    C1213266   6.229   0.839   6.383 -0.2411 -0.5884 -0.3910
  125OSM   H12A13267   6.184   0.861   6.287 -0.2955 -0.7566 -0.4035
  125OSM   H12B13268   6.329   0.878   6.387  0.0718 -1.4637  0.9487
  125OSM    C1113269   6.142   0.922   6.484  0.2759  0.0042  0.5997
  125OSM   H11A13270   6.160   1.028   6.455  1.2992 -0.3530 -0.1219
  125OSM   H11B13271   6.186   0.919   6.586  1.6347  0.4124  0.0599
  125OSM      P13272   5.888   0.970   6.427 -0.1963  0.0069  0.5063
  125OSM    O1313273   5.925   1.021   6.291  0.6271 -0.2697  0.1213
  125OSM    O1413274   5.763   0.893   6.445 -0.5519 -0.2061 -0.0963
  125OSM    O1113275   5.876   1.090   6.532  0.0650 -0.5180  0.4138
  125OSM    O1213276   6.003   0.876   6.482 -0.0865  0.1889 -0.3972
  125OSM    C1S13277   5.809   1.073   6.656  0.4684  0.2801 -0.1008
  125OSM    H1S13278   5.769   0.969   6.657 -0.7232  0.7176  1.1924
  125OSM    H1T13279   5.722   1.141   6.673 -1.3382 -2.2246  1.4143
  125OSM     NF13280   5.818   1.079   6.895  0.2636  0.1099 -0.0972
  125OSM    HNF13281   5.804   1.165   6.944 -0.4242 -0.5470  0.8915
  125OSM    C2S13282   5.906   1.076   6.779  0.4064  0.6225 -0.2856
  125OSM    H2S13283   5.968   0.984   6.780  1.0858  0.9531 -3.3165
  125OSM    C3S13284   6.000   1.202   6.763  0.4591  0.4259  0.2811
  125OSM    H3S13285   5.949   1.300   6.750  2.2672  1.5308  1.1216
  125OSM     O313286   6.079   1.201   6.644 -0.0677 -0.2527  0.2448
  125OSM    HO313287   6.021   1.142   6.595 -1.0416  0.7532  0.1682
  125OSM    C4S13288   6.087   1.201   6.882  0.0146 -0.5915 -0.1461
  125OSM    H4S13289   6.151   1.113   6.892 -1.0217 -1.5660 -1.6203
  125OSM    C5S13290   6.079   1.297   6.972 -0.2602 -0.3015 -0.6574
  125OSM    H5S13291   6.005   1.376   6.954  0.8233  0.7740 -0.5085
  125OSM    C6S13292   6.159   1.296   7.100 -0.6667  0.2735  0.3515
  125OSM    H6S13293   6.231   1.380   7.093 -0.1397 -0.2990 -1.7938
  125OSM    H6T13294   6.227   1.208   7.103  0.3650  1.0930  1.6298
  125OSM    C7S13295   6.078   1.316   7.232 -0.1144 -0.2419 -0.1918
  125OSM    H7S13296   6.030   1.416   7.230  0.8358  0.2979  1.6290
  125OSM    H7T13297   6.161   1.330   7.304 -1.1308  0.7303  0.8310
  125OSM    C8S13298   5.978   1.202   7.257 -0.2284 -0.7260 -0.3293
  125OSM    H8S13299   6.040   1.110   7.244  1.3565  0.5749 -2.5050
  125OSM    H8T13300   5.895   1.216   7.185 -0.2473 -0.7444 -0.3110
  125OSM    C9S13301   5.926   1.199   7.401  0.2667  0.1289  0.0210
  125OSM    H9S13302   5.839   1.130   7.398  0.1113  0.3623 -1.5290
  125OSM    H9T13303   5.897   1.304   7.425  1.2311  0.6168 -0.8779
  125OSM   C10S13304   6.043   1.146   7.495  0.1539  0.1526  0.4496
  125OSM   H10S13305   6.117   1.229   7.500  0.2358  0.0404  1.2032
  125OSM   H10T13306   6.088   1.060   7.443 -1.9146  0.2287 -1.6169
  125OSM   C11S13307   6.006   1.113   7.638 -0.1803 -0.2672 -0.0474
  125OSM   H11S13308   5.942   1.022   7.638 -0.4358 -0.0897 -0.1535
  125OSM   H11T13309   5.945   1.202   7.666  1.8668  0.7244  1.5525
  125OSM   C12S13310   6.125   1.102   7.725 -0.1844 -0.0277 -0.2669
  125OSM   H12S13311   6.200   1.041   7.668 -0.4748 -0.0731 -0.6059
  125OSM   H12T13312   6.088   1.031   7.802 -2.0802  0.5148 -0.6229
  125OSM   C13S13313   6.190   1.230   7.780  0.6375 -0.0746 -0.1880
  125OSM   H13S13314   6.124   1.284   7.852 -0.6416 -2.0674  0.2069
  125OSM   H13T13315   6.230   1.293   7.698  3.0237 -0.5668  0.5120
  125OSM   C14S13316   6.321   1.203   7.870  0.4126  0.3281  0.3663
  125OSM   H14S13317   6.374   1.301   7.880  0.1614  0.7425 -1.8956
  125OSM   H14T13318   6.400   1.142   7.822 -0.5609  0.4679 -1.4996
  125OSM   C15S13319   6.286   1.148   8.010  0.0638  0.3973 -0.1454
  125OSM   H15S13320   6.254   1.042   7.999  1.1320 -0.0557  0.9633
  125OSM   H15T13321   6.210   1.207   8.066 -1.3188 -2.7872  1.5951
  125OSM   C16S13322   6.407   1.132   8.103  0.4738 -0.0905  0.1116
  125OSM   H16S13323   6.474   1.054   8.060  0.1634 -1.6208  2.2520
  125OSM   H16T13324   6.364   1.094   8.198  0.1446 -0.8094 -0.3193
  125OSM   C17S13325   6.485   1.263   8.121 -0.5005 -0.0139  0.0255
  125OSM   H17S13326   6.524   1.289   8.020 -0.4959 -3.9017 -1.1540
  125OSM   H17T13327   6.570   1.230   8.186 -0.6316 -1.5870 -0.5467
  125OSM   C18S13328   6.410   1.381   8.197  0.0416 -0.1484  0.5349
  125OSM   H18S13329   6.313   1.398   8.144  0.6438  1.8093  0.0040
  125OSM   H18T13330   6.475   1.469   8.212 -1.3778  0.7221  1.8664
  125OSM   H18U13331   6.403   1.343   8.301 -0.7437 -0.6829  0.3079
  125OSM    C1F13332   5.749   0.971   6.930 -0.5170  0.2817 -1.1888
  125OSM     OF13333   5.757   0.869   6.861 -0.1831  0.0595  0.1731
  125OSM    C2F13334   5.681   0.976   7.065  0.0123 -0.1296 -0.3687
  125OSM    H2F13335   5.607   1.059   7.063  2.7219  2.4931 -1.6269
  125OSM    H2G13336   5.753   1.009   7.144 -0.9280 -0.9717  0.8683
  125OSM    C3F13337   5.619   0.841   7.116  0.6211 -0.6761  1.0075
  125OSM    H3F13338   5.595   0.863   7.223  1.0403 -0.0989  0.9873
  125OSM    H3G13339   5.695   0.761   7.123  2.5784  0.9920 -0.2017
  125OSM    C4F13340   5.493   0.796   7.042 -0.5136 -0.0943 -0.2849
  125OSM    H4F13341   5.532   0.756   6.946  0.6824 -0.9186  0.5139
  125OSM    H4G13342   5.417   0.875   7.024  0.3333  0.6568 -0.6187
  125OSM    C5F13343   5.419   0.681   7.111 -0.6173 -0.2724 -0.2763
  125OSM    H5F13344   5.486   0.593   7.116 -0.4286 -0.1215 -0.1533
  125OSM    H5G13345   5.338   0.647   7.044 -2.0484  1.5359  0.4331
  125OSM    C6F13346   5.357   0.704   7.248  0.5193  0.5547  0.8905
  125OSM    H6F13347   5.275   0.778   7.237 -0.6148 -0.9350 -1.5339
  125OSM    H6G13348   5.434   0.736   7.322 -0.7599  0.2368  2.4122
  125OSM    C7F13349   5.297   0.568   7.304  0.0920 -0.1146 -0.3416
  125OSM    H7F13350   5.379   0.493   7.298  1.0854  0.9633 -0.5083
  125OSM    H7G13351   5.213   0.539   7.238  0.2151 -0.3726 -0.3887
  125OSM    C8F13352   5.252   0.589   7.448 -0.7200 -0.0090  0.3126
  125OSM    H8F13353   5.345   0.628   7.495 -1.1429  0.8388  0.4764
  125OSM    H8G13354   5.230   0.486   7.484 -1.0347 -1.0389 -2.5529
  125OSM    C9F13355   5.133   0.678   7.468  0.3395  0.3520 -0.1205
  125OSM    H9F13356   5.054   0.674   7.391 -1.1912 -1.1134  1.4358
  125OSM   C10F13357   5.111   0.756   7.574  0.6127 -0.5723 -0.0921
  125OSM   H10F13358   5.025   0.820   7.598  1.2890 -0.1926  1.5079
  125OSM   C11F13359   5.200   0.760   7.694 -0.3173 -0.8173 -0.4170
  125OSM   H11F13360   5.213   0.866   7.723  0.4412  0.2704 -4.1593
  125OSM   H11G13361   5.302   0.722   7.673 -0.4143 -1.3363 -0.0014
  125OSM   C12F13362   5.140   0.685   7.819  0.3866 -0.8815 -0.0635
  125OSM   H12F13363   5.224   0.659   7.886  0.6375  1.7204  0.7364
  125OSM   H12G13364   5.088   0.591   7.789 -0.1397  0.1940 -2.7842
  125OSM   C13F13365   5.038   0.778   7.893 -1.5437  0.1475  0.0885
  125OSM   H13F13366   4.951   0.791   7.825 -1.2073 -1.2201 -0.6399
  125OSM   H13G13367   5.093   0.874   7.903  0.9892 -1.0566 -1.2706
  125OSM   C14F13368   4.981   0.723   8.029  0.3348  0.0076  0.0277
  125OSM   H14F13369   5.057   0.654   8.071 -1.5769 -1.8017  0.6507
  125OSM   H14G13370   4.890   0.665   8.005  0.1359  0.0978  0.5465
  125OSM   C15F13371   4.939   0.843   8.115 -0.4694 -0.3630  0.1003
  125OSM   H15F13372   4.853   0.805   8.175  0.0369  0.7406  1.5615
  125OSM   H15G13373   4.885   0.923   8.059 -0.5085  0.8731  1.8264
  125OSM   C16F13374   5.049   0.903   8.213  0.8334 -0.7580  1.1318
  125OSM   H16F13375   5.114   0.960   8.144 -1.6961  1.7916  0.6573
  125OSM   H16G13376   5.104   0.819   8.261 -0.5319 -1.4491  1.5400
  125OSM   C17F13377   4.991   0.996   8.316  0.9117 -0.3954 -0.2275
  125OSM   H17F13378   4.947   1.078   8.255  0.6612 -0.6298 -0.3661
  125OSM   H17G13379   5.070   1.037   8.382 -1.7909  2.4904  1.4917
  125OSM   C18F13380   4.887   0.941   8.420 -0.8972  0.1602  0.7417
  125OSM   H18F13381   4.825   1.023   8.461  1.0950  2.4459 -0.5846
  125OSM   H18G13382   4.934   0.912   8.517 -0.7943 -0.4165  0.5266
  125OSM   H18H13383   4.836   0.848   8.387 -0.4278 -0.7573  2.4547
  126OSM      N13384   1.560   5.694   6.261 -0.1574  0.4298 -0.7964
  126OSM    C1513385   1.555   5.835   6.330  0.2651  0.2889  0.2372
  126OSM   H15A13386   1.605   5.827   6.425  0.0276 -2.2032  0.2093
  126OSM   H15B13387   1.452   5.862   6.344  0.4029  0.5735  0.7095
  126OSM   H15C13388   1.609   5.906   6.269 -0.0644 -0.9159 -1.5315
  126OSM    C1413389   1.497   5.698   6.126 -0.2932  0.0930  0.7578
  126OSM   H14A13390   1.512   5.603   6.078 -0.6505 -0.7762  2.2713
  126OSM   H14B13391   1.535   5.777   6.063 -1.7490  1.1286  1.1103
  126OSM   H14C13392   1.391   5.716   6.122 -0.8549 -2.7939  0.5743
  126OSM    C1313393   1.706   5.655   6.259 -0.1567  0.1038  0.5838
  126OSM   H13A13394   1.719   5.567   6.198 -1.7951  0.2562 -0.0487
  126OSM   H13B13395   1.748   5.639   6.357  1.4052  1.8037  0.2483
  126OSM   H13C13396   1.761   5.733   6.208 -0.1065 -1.0953 -1.2856
  126OSM    C1213397   1.492   5.587   6.350 -0.7451 -0.9311  0.1670
  126OSM   H12A13398   1.522   5.493   6.306  0.7674  0.6903 -2.5584
  126OSM   H12B13399   1.386   5.610   6.344 -0.7018  0.1624  2.3151
  126OSM    C1113400   1.514   5.594   6.505 -0.3205  0.1717  0.2628
  126OSM   H11A13401   1.624   5.580   6.517 -0.4359 -1.8864 -0.5978
  126OSM   H11B13402   1.469   5.503   6.550  0.6923 -0.9695 -0.9408
  126OSM      P13403   1.314   5.705   6.622 -0.1117 -0.0772  0.1288
  126OSM    O1313404   1.277   5.829   6.693 -0.4035 -0.2692 -0.1464
  126OSM    O1413405   1.235   5.672   6.503 -0.3505 -0.2795 -0.7318
  126OSM    O1113406   1.312   5.582   6.719  0.2055 -0.0312  0.5821
  126OSM    O1213407   1.463   5.711   6.567  0.0850 -0.1747  0.3696
  126OSM    C1S13408   1.401   5.568   6.829 -0.2955  0.2161  0.8777
  126OSM    H1S13409   1.503   5.598   6.797 -0.1480 -1.6227 -0.5016
  126OSM    H1T13410   1.397   5.460   6.852 -0.9522  0.3179  1.2757
  126OSM     NF13411   1.456   5.641   7.059  0.0533 -0.3403 -0.0895
  126OSM    HNF13412   1.438   5.589   7.142  2.7248 -0.1477  0.7160
  126OSM    C2S13413   1.353   5.645   6.958  0.1908  0.0717  0.2389
  126OSM    H2S13414   1.335   5.747   6.918  1.9469  0.9640  1.5927
  126OSM    C3S13415   1.218   5.578   6.995  0.7563  1.3535  0.3616
  126OSM    H3S13416   1.244   5.472   7.014 -1.8371  0.9331  2.0384
  126OSM     O313417   1.116   5.579   6.894 -0.0403  0.0799  0.5325
  126OSM    HO313418   1.161   5.612   6.817 -1.6098  1.6549  0.2426
  126OSM    C4S13419   1.158   5.629   7.121 -0.7223  0.3811 -0.4671
  126OSM    H4S13420   1.174   5.566   7.209 -1.5298 -0.7549 -1.1048
  126OSM    C5S13421   1.088   5.741   7.134  0.5357 -0.6208  0.1558
  126OSM    H5S13422   1.070   5.792   7.038  0.6715 -2.2384 -0.7593
  126OSM    C6S13423   1.020   5.804   7.258 -0.2280 -0.8325 -0.2445
  126OSM    H6S13424   0.909   5.790   7.258 -0.3827  0.2523 -1.0080
  126OSM    H6T13425   1.032   5.914   7.250  0.0985 -0.9089 -0.8490
  126OSM    C7S13426   1.075   5.744   7.387 -0.4477  0.1224 -0.3641
  126OSM    H7S13427   1.173   5.789   7.414 -0.7719  0.2512  0.6360
  126OSM    H7T13428   1.099   5.636   7.394  3.1119  0.8564  1.1047
  126OSM    C8S13429   0.980   5.775   7.505 -0.3950  0.5670 -0.7783
  126OSM    H8S13430   0.887   5.713   7.512 -1.5115  2.3532  1.4098
  126OSM    H8T13431   0.953   5.882   7.514 -0.8637  0.2769  2.3146
  126OSM    C9S13432   1.043   5.736   7.641  0.8367  0.4986 -0.2714
  126OSM    H9S13433   1.142   5.785   7.646 -0.2509  2.8063  3.6361
  126OSM    H9T13434   1.062   5.628   7.657  1.6779  0.9408  2.3479
  126OSM   C10S13435   0.966   5.783   7.765  0.5818 -0.5969  0.3412
  126OSM   H10S13436   0.874   5.725   7.785 -1.2060  1.6963 -0.7663
  126OSM   H10T13437   0.926   5.886   7.753  0.6055 -0.2502  2.7141
  126OSM   C11S13438   1.052   5.791   7.894  0.5841 -0.0095  0.1388
  126OSM   H11S13439   1.136   5.853   7.856 -0.7405  1.0437 -1.1450
  126OSM   H11T13440   1.096   5.691   7.918  0.7373  0.1903  0.6995
  126OSM   C12S13441   0.971   5.853   8.004 -0.4514  0.3313 -0.1720
  126OSM   H12S13442   0.873   5.806   8.028 -0.8159  1.9353  1.7123
  126OSM   H12T13443   0.948   5.954   7.964 -2.0463 -0.8503 -2.5106
  126OSM   C13S13444   1.045   5.867   8.140  0.1013  0.3604 -0.5761
  126OSM   H13S13445   0.980   5.925   8.209  1.8053  0.6800  0.8451
  126OSM   H13T13446   1.134   5.924   8.105 -0.0949  0.4484 -0.9475
  126OSM   C14S13447   1.093   5.729   8.203 -0.8627 -0.2207 -0.4228
  126OSM   H14S13448   1.142   5.675   8.119  0.9617  2.1505 -1.0136
  126OSM   H14T13449   0.996   5.688   8.237 -0.2379  0.3875  2.3853
  126OSM   C15S13450   1.183   5.743   8.329  0.1335  0.4330 -0.7307
  126OSM   H15S13451   1.161   5.835   8.387 -0.0111 -0.2782  0.3611
  126OSM   H15T13452   1.288   5.761   8.298  0.3707 -0.5392 -0.5305
  126OSM   C16S13453   1.193   5.611   8.407  0.1579 -0.1569  0.6604
  126OSM   H16S13454   1.220   5.529   8.337 -1.1468  0.1493 -0.2258
  126OSM   H16T13455   1.099   5.587   8.461  0.3532  0.3382  1.2328
  126OSM   C17S13456   1.288   5.616   8.525 -0.3289 -0.6225  0.0552
  126OSM   H17S13457   1.257   5.696   8.595  0.2213 -0.8110  0.5132
  126OSM   H17T13458   1.395   5.628   8.497  0.3467 -2.4758  1.5953
  126OSM   C18S13459   1.286   5.491   8.614 -0.2758 -0.5691 -0.6781
  126OSM   H18S13460   1.329   5.503   8.716  0.3483  0.8450 -1.0852
  126OSM   H18T13461   1.328   5.401   8.564  1.5694  0.4902 -1.1237
  126OSM   H18U13462   1.181   5.466   8.641 -0.2218  0.0908  0.2034
  126OSM    C1F13463   1.567   5.719   7.062 -0.2795  0.2007  0.4401
  126OSM     OF13464   1.582   5.799   6.969 -0.2411  0.0725  0.2260
  126OSM    C2F13465   1.668   5.688   7.169 -0.1180 -0.3144  0.0793
  126OSM    H2F13466   1.727   5.596   7.154  2.4979  0.8459  2.2780
  126OSM    H2G13467   1.611   5.684   7.264  0.3988  2.4435  0.6102
  126OSM    C3F13468   1.777   5.800   7.195 -0.1912  0.4184 -0.5433
  126OSM    H3F13469   1.729   5.900   7.187 -0.0117  0.4431 -1.4450
  126OSM    H3G13470   1.860   5.798   7.121  0.6081 -0.8822  0.3444
  126OSM    C4F13471   1.848   5.790   7.332 -0.3439 -0.4034 -0.3978
  126OSM    H4F13472   1.893   5.689   7.343  1.3153  0.2418 -0.8649
  126OSM    H4G13473   1.761   5.791   7.400 -0.2292  0.6387 -0.2468
  126OSM    C5F13474   1.953   5.893   7.369  0.7227 -0.0735 -0.4642
  126OSM    H5F13475   1.901   5.991   7.365 -0.4447 -0.6185  0.8885
  126OSM    H5G13476   2.036   5.893   7.295  0.2416 -0.2634 -1.0112
  126OSM    C6F13477   2.022   5.888   7.507 -0.3506  0.4015 -0.2990
  126OSM    H6F13478   2.115   5.948   7.506 -1.3252  2.0089 -2.7230
  126OSM    H6G13479   2.051   5.783   7.526 -2.0365 -0.3421 -1.5432
  126OSM    C7F13480   1.933   5.938   7.618  0.0906  0.3625 -0.0115
  126OSM    H7F13481   1.858   5.858   7.636  2.1336 -1.5000  0.6587
  126OSM    H7G13482   1.879   6.027   7.579  0.3943  0.0447 -1.1814
  126OSM    C8F13483   2.012   5.988   7.740  0.0115 -0.2531 -0.3415
  126OSM    H8F13484   1.956   6.064   7.799 -1.7817 -1.8901  0.1457
  126OSM    H8G13485   2.094   6.045   7.690  1.1179  0.8058  2.4612
  126OSM    C9F13486   2.075   5.872   7.812  0.2119 -0.0644  0.0230
  126OSM    H9F13487   2.138   5.798   7.761  0.9760  0.8894 -0.4610
  126OSM   C10F13488   2.035   5.847   7.932  0.3280 -0.3643  0.1540
  126OSM   H10F13489   2.087   5.762   7.978  1.0951 -0.6563 -1.2011
  126OSM   C11F13490   1.950   5.918   8.033  0.4028 -0.4114  0.0253
  126OSM   H11F13491   1.867   5.852   8.065 -0.8943  1.1902  0.0872
  126OSM   H11G13492   1.903   6.011   7.993  0.9808 -0.2935 -0.4023
  126OSM   C12F13493   2.030   5.951   8.161  0.2557  0.5190  0.3681
  126OSM   H12F13494   2.106   6.027   8.132 -0.0238  1.1814  1.3115
  126OSM   H12G13495   2.083   5.860   8.196  1.9937  0.6445 -1.7300
  126OSM   C13F13496   1.952   6.022   8.269  0.2271 -0.0645 -0.4162
  126OSM   H13F13497   1.890   5.953   8.330  2.7464 -2.1862 -0.0947
  126OSM   H13G13498   1.894   6.099   8.214  0.7409 -0.6444 -1.8094
  126OSM   C14F13499   2.043   6.086   8.365 -0.2283 -0.2840 -0.6620
  126OSM   H14F13500   2.128   6.141   8.320  1.0251  0.4720  2.3913
  126OSM   H14G13501   2.082   6.002   8.426 -0.2515 -0.2659 -0.6218
  126OSM   C15F13502   1.967   6.175   8.463 -0.2098 -0.1297  0.1229
  126OSM   H15F13503   1.890   6.126   8.526  1.5209 -0.1941  2.3308
  126OSM   H15G13504   1.930   6.265   8.409 -0.4297 -0.1791  0.1927
  126OSM   C16F13505   2.067   6.235   8.556  0.1801  0.4576 -0.0042
  126OSM   H16F13506   2.128   6.312   8.504  0.0484  1.0879  0.7469
  126OSM   H16G13507   2.138   6.160   8.597  1.8483  2.0081  0.1073
  126OSM   C17F13508   1.999   6.302   8.684 -0.2584 -0.1478 -0.4124
  126OSM   H17F13509   2.077   6.323   8.761 -1.1446  2.0887 -0.0472
  126OSM   H17G13510   1.924   6.229   8.719  1.1081 -0.7606  1.4209
  126OSM   C18F13511   1.934   6.441   8.653 -0.1702  0.2498 -0.4614
  126OSM   H18F13512   1.851   6.432   8.579  0.9806 -0.6210 -1.7156
  126OSM   H18G13513   2.007   6.519   8.624 -0.4779  0.0884 -1.7503
  126OSM   H18H13514   1.898   6.473   8.753 -0.8105 -1.8528  0.0347
  127OSM      N13515   5.457   1.613   6.049 -0.2648 -0.6757  0.0049
  127OSM    C1513516   5.491   1.662   5.906  0.9718  0.2110 -0.5068
  127OSM   H15A13517   5.494   1.770   5.909 -2.7465  0.4311  0.1353
  127OSM   H15B13518   5.402   1.651   5.846  1.7474 -0.2122 -1.6137
  127OSM   H15C13519   5.584   1.619   5.871 -0.0569 -2.0481 -0.6496
  127OSM    C1413520   5.325   1.678   6.100  0.1015 -0.6061  0.0487
  127OSM   H14A13521   5.345   1.784   6.111  0.4372 -0.3647 -2.3624
  127OSM   H14B13522   5.297   1.618   6.186 -1.2750 -0.3049 -0.1562
  127OSM   H14C13523   5.245   1.676   6.027  0.0830 -0.3229  0.0574
  127OSM    C1313524   5.434   1.466   6.028 -0.6656  0.2221 -0.4905
  127OSM   H13A13525   5.347   1.449   5.967 -1.1158 -1.9090  0.6620
  127OSM   H13B13526   5.420   1.416   6.123 -3.0110  2.0853  0.2538
  127OSM   H13C13527   5.513   1.411   5.979 -0.7889  0.1025 -0.5545
  127OSM    C1213528   5.574   1.621   6.145 -0.1687  0.1884  0.2247
  127OSM   H12A13529   5.611   1.720   6.120 -2.1110  1.0705  0.6395
  127OSM   H12B13530   5.651   1.548   6.125  0.8576  0.4969  2.7074
  127OSM    C1113531   5.546   1.612   6.298  0.7524 -0.4407  1.1020
  127OSM   H11A13532   5.458   1.679   6.307  1.3430  0.9539 -2.0546
  127OSM   H11B13533   5.618   1.662   6.365  0.1297  0.2682  1.2583
  127OSM      P13534   5.603   1.367   6.398 -0.3141  0.2344  0.3343
  127OSM    O1313535   5.523   1.250   6.425  0.3196 -0.1627 -0.1372
  127OSM    O1413536   5.712   1.343   6.300  0.0649  0.1875  0.4486
  127OSM    O1113537   5.670   1.422   6.523 -0.1320 -0.4196 -0.3574
  127OSM    O1213538   5.511   1.484   6.345  0.0047  0.9287  0.2202
  127OSM    C1S13539   5.613   1.436   6.659 -0.3383 -0.2040  0.7072
  127OSM    H1S13540   5.587   1.338   6.705 -0.4616 -0.2255  0.5935
  127OSM    H1T13541   5.514   1.487   6.647 -0.4315 -0.5816 -0.2063
  127OSM     NF13542   5.637   1.537   6.881  0.2826 -0.7524  0.1462
  127OSM    HNF13543   5.584   1.619   6.900  1.3610 -0.4658  2.2911
  127OSM    C2S13544   5.708   1.514   6.756 -0.3198 -0.0030 -0.0400
  127OSM    H2S13545   5.802   1.456   6.773  0.5996  1.7471  1.1865
  127OSM    C3S13546   5.749   1.642   6.690 -0.2127  0.0214  0.3963
  127OSM    H3S13547   5.651   1.692   6.671  0.2689  0.6769 -0.4130
  127OSM     O313548   5.836   1.634   6.575 -0.1201 -0.1344  0.0797
  127OSM    HO313549   5.796   1.569   6.517  0.7004 -0.2162 -0.4000
  127OSM    C4S13550   5.808   1.737   6.791 -0.2593  0.1748  0.4693
  127OSM    H4S13551   5.722   1.802   6.809 -2.2494 -1.9047 -0.9218
  127OSM    C5S13552   5.929   1.756   6.839 -0.0716 -0.0959 -0.0435
  127OSM    H5S13553   6.017   1.697   6.811 -0.7432 -1.7044  1.0439
  127OSM    C6S13554   5.947   1.866   6.932 -1.0907  0.0046 -0.4767
  127OSM    H6S13555   5.861   1.936   6.937  1.1722  2.9778 -0.3741
  127OSM    H6T13556   6.036   1.927   6.906 -0.5316 -1.0005 -0.9631
  127OSM    C7S13557   5.989   1.824   7.075 -0.4699 -0.8855 -0.9844
  127OSM    H7S13558   6.012   1.914   7.135 -0.2792 -0.0097 -2.3507
  127OSM    H7T13559   6.089   1.775   7.077  0.1459  0.2591  2.5293
  127OSM    C8S13560   5.890   1.731   7.141  0.1805 -0.0973  0.4128
  127OSM    H8S13561   5.922   1.633   7.098  1.1709  0.6271 -0.5477
  127OSM    H8T13562   5.784   1.744   7.109 -0.1983 -2.5884  0.4733
  127OSM    C9S13563   5.897   1.753   7.291 -0.0277  0.0249 -0.4868
  127OSM    H9S13564   5.823   1.685   7.339 -0.4420 -1.5910 -3.1798
  127OSM    H9T13565   5.878   1.861   7.304 -0.4601  0.0027 -0.8954
  127OSM   C10S13566   6.033   1.716   7.346  0.2013  0.9692  0.2614
  127OSM   H10S13567   6.116   1.760   7.288 -0.8129  2.3012 -0.2144
  127OSM   H10T13568   6.058   1.608   7.360  2.9673  1.6009  0.8108
  127OSM   C11S13569   6.047   1.783   7.488 -0.1274  0.7365  0.8153
  127OSM   H11S13570   6.001   1.884   7.481 -1.5724 -0.0180 -3.4838
  127OSM   H11T13571   6.157   1.798   7.488  0.1252 -0.8633 -0.8866
  127OSM   C12S13572   5.992   1.699   7.604  0.0816  0.5768  0.5333
  127OSM   H12S13573   6.055   1.608   7.605  1.5780  1.5665  0.9699
  127OSM   H12T13574   5.884   1.678   7.596  0.1357  0.8899 -1.6149
  127OSM   C13S13575   6.004   1.769   7.741  0.4752  0.3864 -0.0325
  127OSM   H13S13576   5.959   1.699   7.814 -0.3823  0.0256 -0.8812
  127OSM   H13T13577   5.927   1.849   7.749  2.0332  1.8806  0.5224
  127OSM   C14S13578   6.143   1.808   7.790  0.3600  0.1295 -0.0597
  127OSM   H14S13579   6.137   1.862   7.887 -1.7153 -0.9017  0.4402
  127OSM   H14T13580   6.181   1.886   7.721  0.1282  0.9145  0.6857
  127OSM   C15S13581   6.249   1.699   7.802  0.1089 -0.0699  0.6731
  127OSM   H15S13582   6.283   1.677   7.699 -0.7883  1.3852  0.0440
  127OSM   H15T13583   6.195   1.612   7.844  1.9899 -1.2826  0.7069
  127OSM   C16S13584   6.364   1.745   7.892  0.2594 -0.4795 -0.6169
  127OSM   H16S13585   6.309   1.755   7.988 -2.2754  2.9349 -2.1945
  127OSM   H16T13586   6.407   1.843   7.861  0.4472  0.0460  1.1582
  127OSM   C17S13587   6.488   1.652   7.896  0.3587 -0.0466  0.4337
  127OSM   H17S13588   6.519   1.638   7.791 -0.7092  2.5692 -0.3178
  127OSM   H17T13589   6.449   1.554   7.930 -1.3747  0.8019  0.9757
  127OSM   C18S13590   6.604   1.703   7.967 -0.4444  0.1991 -0.4641
  127OSM   H18S13591   6.696   1.656   7.926 -0.5580 -0.9434  0.5380
  127OSM   H18T13592   6.614   1.695   8.077 -0.3627  0.4854 -0.4483
  127OSM   H18U13593   6.619   1.809   7.936 -1.7245 -0.1049 -2.2668
  127OSM    C1F13594   5.619   1.448   6.972 -0.0789 -0.3792  0.2408
  127OSM     OF13595   5.655   1.333   6.947  0.2322 -0.8098  0.1811
  127OSM    C2F13596   5.557   1.486   7.101  0.2437 -0.5777 -0.1875
  127OSM    H2F13597   5.454   1.447   7.093  1.1270 -2.8589 -1.4718
  127OSM    H2G13598   5.542   1.596   7.106  1.6093 -0.1207 -3.4699
  127OSM    C3F13599   5.615   1.440   7.242 -0.3405 -0.1400  0.2656
  127OSM    H3F13600   5.726   1.430   7.241 -0.0707  2.1811  0.9739
  127OSM    H3G13601   5.578   1.337   7.265 -2.1677  0.4614  0.1163
  127OSM    C4F13602   5.555   1.522   7.360 -0.0663 -0.6123  1.4233
  127OSM    H4F13603   5.459   1.567   7.329  1.2688  0.6834 -1.2483
  127OSM    H4G13604   5.622   1.608   7.381  0.6820  0.1284 -3.0407
  127OSM    C5F13605   5.535   1.450   7.496 -0.3839 -0.1382 -0.1084
  127OSM    H5F13606   5.614   1.372   7.496 -0.9696 -0.7464  1.3481
  127OSM    H5G13607   5.439   1.395   7.503  0.1812 -1.0229  0.8380
  127OSM    C6F13608   5.565   1.543   7.610 -0.6010  0.2057 -0.1983
  127OSM    H6F13609   5.474   1.605   7.625 -1.0427 -0.7224  1.0790
  127OSM    H6G13610   5.658   1.604   7.598 -0.1894  0.1331  2.1327
  127OSM    C7F13611   5.601   1.472   7.739  1.1886 -0.1651 -0.2279
  127OSM    H7F13612   5.682   1.397   7.723 -1.4119 -3.2649 -0.0122
  127OSM    H7G13613   5.511   1.417   7.773  1.0574  1.1460  1.7267
  127OSM    C8F13614   5.643   1.566   7.859  0.7750  0.5644 -0.0633
  127OSM    H8F13615   5.578   1.653   7.835  1.2506  1.0313  0.3046
  127OSM    H8G13616   5.752   1.586   7.845  1.1615 -1.3004 -0.0195
  127OSM    C9F13617   5.611   1.506   7.994  0.2548 -0.2259  0.4706
  127OSM    H9F13618   5.584   1.399   7.987  0.9710 -0.3304 -1.2722
  127OSM   C10F13619   5.619   1.567   8.109 -0.0386  0.3695  0.2381
  127OSM   H10F13620   5.589   1.511   8.199  0.3219  1.4504  1.0430
  127OSM   C11F13621   5.669   1.704   8.123 -0.4403  0.6581  1.3123
  127OSM   H11F13622   5.590   1.765   8.171 -0.8121  0.3940  1.0377
  127OSM   H11G13623   5.680   1.754   8.024  0.1276  0.4371  1.2572
  127OSM   C12F13624   5.804   1.723   8.206 -0.1834 -0.1533 -0.0136
  127OSM   H12F13625   5.791   1.691   8.312 -1.4863 -1.0457 -0.4296
  127OSM   H12G13626   5.825   1.832   8.209 -2.5517  0.4616 -2.4269
  127OSM   C13F13627   5.929   1.664   8.133  0.0628  0.0357 -0.2944
  127OSM   H13F13628   5.938   1.712   8.033 -0.4126  0.8908  0.0760
  127OSM   H13G13629   5.894   1.560   8.113  0.5777 -0.7512  2.4185
  127OSM   C14F13630   6.045   1.652   8.226 -0.3489  0.4067  0.7837
  127OSM   H14F13631   6.080   1.756   8.240 -1.0784  1.0662 -1.7673
  127OSM   H14G13632   6.123   1.605   8.162  1.0091  1.3308  1.6880
  127OSM   C15F13633   6.025   1.559   8.344 -0.0127 -0.1579 -0.0405
  127OSM   H15F13634   5.994   1.455   8.319 -0.8043 -0.3743  1.6789
  127OSM   H15G13635   5.935   1.590   8.402  0.7345 -1.2292  1.7849
  127OSM   C16F13636   6.148   1.554   8.429  0.5432 -0.0355 -0.4739
  127OSM   H16F13637   6.239   1.557   8.366  0.4451 -0.2776 -0.6271
  127OSM   H16G13638   6.155   1.453   8.475 -0.3060  0.2112  0.2374
  127OSM   C17F13639   6.147   1.671   8.529  0.8535 -0.2305 -0.7197
  127OSM   H17F13640   6.057   1.671   8.594  1.2073 -0.3675 -0.2320
  127OSM   H17G13641   6.162   1.774   8.491  0.4505  0.2532  0.3990
  127OSM   C18F13642   6.263   1.668   8.624 -0.1610 -0.0328 -0.1237
  127OSM   H18F13643   6.277   1.763   8.679  0.5464  1.0666 -2.1275
  127OSM   H18G13644   6.361   1.652   8.575  0.5112 -0.8570  1.3921
  127OSM   H18H13645   6.263   1.586   8.700  2.2576  1.1986  1.3341
  128OSM      N13646   6.184   4.475   5.944  0.0825  0.4614 -0.5007
  128OSM    C1513647   6.111   4.350   5.923  0.5730 -0.0343  0.7246
  128OSM   H15A13648   6.011   4.348   5.963  0.5858 -1.7147  0.7557
  128OSM   H15B13649   6.170   4.269   5.964  2.1007  0.7887  0.2395
  128OSM   H15C13650   6.114   4.334   5.816 -2.1370  0.3709  0.5147
  128OSM    C1413651   6.330   4.458   5.899  0.4193 -0.5351 -0.7737
  128OSM   H14A13652   6.382   4.387   5.962  1.8579  0.8375 -0.3497
  128OSM   H14B13653   6.373   4.556   5.902  0.6226 -0.5544 -2.3949
  128OSM   H14C13654   6.333   4.420   5.798  2.9997  0.1119 -1.0150
  128OSM    C1313655   6.117   4.587   5.875  0.6411  0.2134  0.0552
  128OSM   H13A13656   6.168   4.636   5.793 -0.6316 -1.5637 -1.9128
  128OSM   H13B13657   6.098   4.662   5.950 -0.3889  3.0612 -2.8166
  128OSM   H13C13658   6.011   4.568   5.861  0.8321  0.7833 -2.7003
  128OSM    C1213659   6.189   4.497   6.098 -0.1467  0.0654  0.0803
  128OSM   H12A13660   6.087   4.484   6.129 -0.9882 -1.5264 -2.9686
  128OSM   H12B13661   6.218   4.599   6.121  1.2620  0.2990 -2.3153
  128OSM    C1113662   6.272   4.405   6.189  0.2878 -0.4048 -0.1631
  128OSM   H11A13663   6.257   4.302   6.151  0.3666  0.4567 -2.7196
  128OSM   H11B13664   6.236   4.409   6.294 -0.6351 -0.5282 -0.4590
  128OSM      P13665   6.465   4.569   6.275 -0.1809 -0.0664  0.2584
  128OSM    O1313666   6.606   4.593   6.232 -0.0900  0.7910  0.2217
  128OSM    O1413667   6.367   4.678   6.262 -0.1815 -0.5028  0.6731
  128OSM    O1113668   6.467   4.521   6.427  0.2329 -0.1708  0.7516
  128OSM    O1213669   6.406   4.448   6.189 -0.0159  0.7442 -0.2811
  128OSM    C1S13670   6.515   4.388   6.467  0.0925 -0.1319  0.0030
  128OSM    H1S13671   6.605   4.358   6.409  2.2252  2.1291  1.9268
  128OSM    H1T13672   6.435   4.312   6.456  0.2553 -0.7299  2.4407
  128OSM     NF13673   6.623   4.278   6.658 -0.2351 -0.3091  0.1002
  128OSM    HNF13674   6.566   4.199   6.677 -1.8378  1.0567  1.2562
  128OSM    C2S13675   6.551   4.396   6.614  0.1242  0.3501  0.2072
  128OSM    H2S13676   6.621   4.483   6.612  0.3221  0.2640  1.7894
  128OSM    C3S13677   6.432   4.426   6.704 -0.0312  0.2643 -0.9433
  128OSM    H3S13678   6.394   4.322   6.711  1.9398 -0.3917  0.8052
  128OSM     O313679   6.336   4.523   6.651  0.7570  0.3019  0.6747
  128OSM    HO313680   6.357   4.528   6.558 -1.2148 -0.4302  0.1494
  128OSM    C4S13681   6.492   4.459   6.843 -0.1494  0.0659  0.4194
  128OSM    H4S13682   6.490   4.372   6.911  1.0858 -0.0915  0.2734
  128OSM    C5S13683   6.538   4.585   6.882  0.1987 -0.4974  0.2881
  128OSM    H5S13684   6.531   4.662   6.804 -0.9012  0.0729  0.9133
  128OSM    C6S13685   6.591   4.629   7.019  0.2497 -0.2271 -0.1326
  128OSM    H6S13686   6.543   4.725   7.048 -1.2102 -0.3548 -1.9992
  128OSM    H6T13687   6.702   4.642   7.018 -0.0051  2.5140 -0.5327
  128OSM    C7S13688   6.545   4.533   7.136  0.2362 -0.1708  0.5369
  128OSM    H7S13689   6.582   4.429   7.122 -0.9659 -0.5841  0.3687
  128OSM    H7T13690   6.435   4.518   7.134  0.2787 -0.4597  0.3815
  128OSM    C8S13691   6.583   4.578   7.280  0.2903  0.2314  0.2125
  128OSM    H8S13692   6.567   4.687   7.295 -1.6669 -0.1580  1.1571
  128OSM    H8T13693   6.691   4.557   7.296  0.3846  1.4403  1.2763
  128OSM    C9S13694   6.503   4.494   7.378  0.5128 -0.0073 -0.6877
  128OSM    H9S13695   6.529   4.389   7.351 -2.4688 -1.1430  0.3444
  128OSM    H9T13696   6.398   4.515   7.348  1.2462  3.0711 -1.4110
  128OSM   C10S13697   6.526   4.530   7.522  0.9961  0.2292  1.1755
  128OSM   H10S13698   6.458   4.474   7.589  0.3805  1.4261  1.5847
  128OSM   H10T13699   6.498   4.637   7.533 -1.3700 -0.2169  0.0575
  128OSM   C11S13700   6.667   4.489   7.558  0.6762 -0.1596 -0.2265
  128OSM   H11S13701   6.733   4.574   7.529  1.0132 -0.2819  0.1723
  128OSM   H11T13702   6.700   4.392   7.513 -0.7772 -1.8366  2.0959
  128OSM   C12S13703   6.683   4.489   7.709 -0.3629 -0.2691 -0.1942
  128OSM   H12S13704   6.645   4.389   7.738  1.1597 -1.8765 -3.2348
  128OSM   H12T13705   6.635   4.574   7.761  0.9722  0.4692 -0.1288
  128OSM   C13S13706   6.826   4.484   7.749 -0.1922 -0.1028 -0.2195
  128OSM   H13S13707   6.884   4.557   7.689  0.5126  0.0699  0.6535
  128OSM   H13T13708   6.866   4.382   7.730  1.0479  0.2519  0.3571
  128OSM   C14S13709   6.854   4.518   7.895  0.4811 -0.1173 -0.3634
  128OSM   H14S13710   6.772   4.462   7.944  0.5085  1.0467  1.0825
  128OSM   H14T13711   6.843   4.626   7.918 -0.1210 -0.3899  0.7071
  128OSM   C15S13712   6.995   4.472   7.941  0.0249  0.5854  0.1139
  128OSM   H15S13713   7.058   4.540   7.880 -0.0790  1.4697  0.9672
  128OSM   H15T13714   7.026   4.370   7.911  0.8087  0.9462 -0.3192
  128OSM   C16S13715   7.024   4.512   8.085 -0.2536 -0.2202  0.6461
  128OSM   H16S13716   6.962   4.442   8.145 -0.8413  0.0696  0.3868
  128OSM   H16T13717   6.984   4.611   8.113  0.4995  0.2764  0.0082
  128OSM   C17S13718   7.175   4.515   8.114  0.5652  0.0956 -0.7487
  128OSM   H17S13719   7.218   4.597   8.054  2.5814  0.2704  0.8472
  128OSM   H17T13720   7.228   4.422   8.083  1.0669 -0.5307  1.7731
  128OSM   C18S13721   7.196   4.530   8.266 -0.0841 -0.3280 -0.0066
  128OSM   H18S13722   7.158   4.441   8.322  0.2111  0.0682  0.8525
  128OSM   H18T13723   7.149   4.615   8.320  1.5513  0.1338  0.7500
  128OSM   H18U13724   7.307   4.536   8.269 -0.0622 -0.7235  0.0160
  128OSM    C1F13725   6.750   4.260   6.618 -0.9187 -0.2157 -0.1428
  128OSM     OF13726   6.810   4.348   6.559 -0.2801  0.0608  0.2149
  128OSM    C2F13727   6.815   4.120   6.642 -0.5394 -0.0859 -0.2481
  128OSM    H2F13728   6.917   4.119   6.598 -0.5001 -0.2196 -0.1558
  128OSM    H2G13729   6.759   4.038   6.592 -2.1769 -0.8730  2.6566
  128OSM    C3F13730   6.823   4.090   6.795 -0.5057 -0.2958 -0.0452
  128OSM    H3F13731   6.874   3.992   6.803 -0.7400 -0.2518  2.9784
  128OSM    H3G13732   6.718   4.074   6.828 -1.3043  0.0932 -2.2534
  128OSM    C4F13733   6.903   4.197   6.875 -0.2093  0.4838 -0.6933
  128OSM    H4F13734   6.848   4.293   6.890 -1.9331 -0.2368 -2.0262
  128OSM    H4G13735   6.994   4.228   6.819 -0.1021  2.8747  0.6737
  128OSM    C5F13736   6.954   4.134   7.004 -0.1818 -0.1537  0.5219
  128OSM    H5F13737   7.056   4.174   7.020  0.7477 -2.6168  1.2717
  128OSM    H5G13738   6.962   4.023   7.004 -0.4685 -0.2361 -2.2472
  128OSM    C6F13739   6.860   4.166   7.122 -0.6780  0.4662  0.1502
  128OSM    H6F13740   6.767   4.106   7.114 -0.9016  0.8816 -0.4712
  128OSM    H6G13741   6.835   4.274   7.124 -2.0245  0.1526  1.5269
  128OSM    C7F13742   6.928   4.137   7.260  0.7026 -0.4280  0.0859
  128OSM    H7F13743   7.010   4.205   7.292  0.2345  0.2249 -0.1042
  128OSM    H7G13744   6.962   4.031   7.258  0.7598 -0.3976 -0.7902
  128OSM    C8F13745   6.817   4.144   7.373 -0.0837 -0.1079 -0.2071
  128OSM    H8F13746   6.735   4.073   7.348 -0.2474  0.7343 -2.2414
  128OSM    H8G13747   6.776   4.247   7.371 -0.1009 -0.0997  0.3889
  128OSM    C9F13748   6.880   4.134   7.514  0.3562  0.4112 -0.1935
  128OSM    H9F13749   6.969   4.197   7.535  0.8186 -0.6862  1.3172
  128OSM   C10F13750   6.840   4.066   7.616  0.6838  0.7093  0.7379
  128OSM   H10F13751   6.889   4.075   7.714 -0.4896  1.1335  1.3087
  128OSM   C11F13752   6.711   3.992   7.612 -0.4135  0.2724 -0.8406
  128OSM   H11F13753   6.727   3.891   7.570 -0.2596  0.1332 -0.4518
  128OSM   H11G13754   6.627   4.038   7.555 -1.7885 -2.3260 -1.0779
  128OSM   C12F13755   6.651   3.977   7.757  0.0204  0.3377  0.4401
  128OSM   H12F13756   6.716   3.922   7.828  0.1345 -0.4536 -0.2634
  128OSM   H12G13757   6.549   3.932   7.754 -0.0417  0.5038 -0.1557
  128OSM   C13F13758   6.609   4.113   7.818  0.2607 -0.6005 -0.3749
  128OSM   H13F13759   6.535   4.170   7.758  0.1367  0.3024  0.6079
  128OSM   H13G13760   6.697   4.175   7.845 -0.3045  0.1865 -0.3053
  128OSM   C14F13761   6.540   4.097   7.958  0.4304 -0.7001  0.0930
  128OSM   H14F13762   6.603   4.027   8.019  1.0139  1.5786  2.3050
  128OSM   H14G13763   6.442   4.051   7.937 -0.7274  2.1876 -1.4114
  128OSM   C15F13764   6.531   4.237   8.026  0.0299  0.5657  0.0642
  128OSM   H15F13765   6.495   4.311   7.952  0.2610 -0.4911 -1.1393
  128OSM   H15G13766   6.629   4.259   8.073  0.1669 -1.4972  0.8669
  128OSM   C16F13767   6.420   4.224   8.134 -0.4044 -0.8080 -0.4770
  128OSM   H16F13768   6.462   4.166   8.219  0.2512 -0.6438 -0.6858
  128OSM   H16G13769   6.333   4.164   8.100 -1.3118 -0.3785  0.9721
  128OSM   C17F13770   6.360   4.366   8.170  0.0670 -0.1244  0.1866
  128OSM   H17F13771   6.277   4.343   8.240  0.7157 -2.1873  0.3297
  128OSM   H17G13772   6.315   4.409   8.078  0.9799  1.1891  0.3163
  128OSM   C18F13773   6.463   4.465   8.233 -0.0936  0.1717 -0.0458
  128OSM   H18F13774   6.521   4.408   8.309  1.8971 -0.0918 -1.7037
  128OSM   H18G13775   6.423   4.553   8.288  1.5277  0.2986  0.9936
  128OSM   H18H13776   6.534   4.497   8.154  0.6606  2.3112  1.3790
  129OSM      N13777   2.080   1.180   5.799  0.4387 -0.3922 -0.6259
  129OSM    C1513778   2.058   1.045   5.736 -0.3647 -0.3812 -0.1800
  129OSM   H15A13779   1.969   1.003   5.781  0.0619 -1.3200 -0.1957
  129OSM   H15B13780   2.140   0.976   5.749  0.0666  0.2145  0.2894
  129OSM   H15C13781   2.049   1.069   5.631  1.2386  0.9092 -0.0655
  129OSM    C1413782   2.201   1.246   5.749  0.2400 -0.2376  0.2894
  129OSM   H14A13783   2.214   1.345   5.789 -2.7343  0.6383 -0.6909
  129OSM   H14B13784   2.197   1.261   5.642  1.9228  0.1136  0.2477
  129OSM   H14C13785   2.282   1.179   5.774  1.8950  1.5131 -0.1781
  129OSM    C1313786   1.965   1.271   5.770  0.3046 -0.1364  1.0589
  129OSM   H13A13787   1.879   1.243   5.829  0.6074 -0.4582  1.3560
  129OSM   H13B13788   1.945   1.279   5.664  0.8851 -1.4177  0.8266
  129OSM   H13C13789   1.988   1.374   5.791  0.7956  0.0266 -0.1515
  129OSM    C1213790   2.094   1.157   5.950  0.1625 -0.6730  0.0177
  129OSM   H12A13791   1.997   1.152   5.998 -1.0978 -0.8062 -2.3804
  129OSM   H12B13792   2.158   1.237   5.986  0.1629 -0.8623  0.4382
  129OSM    C1113793   2.171   1.033   6.007 -0.3636  0.0812  0.3696
  129OSM   H11A13794   2.116   0.938   5.992 -0.4795  0.3656 -1.1160
  129OSM   H11B13795   2.184   1.044   6.117 -0.6588  0.4341  0.3731
  129OSM      P13796   2.391   0.908   5.974  0.2832 -0.2979 -0.1079
  129OSM    O1313797   2.317   0.809   6.055  0.0162 -0.4446  0.2028
  129OSM    O1413798   2.457   0.862   5.845  0.1310  0.1227  0.3254
  129OSM    O1113799   2.509   0.957   6.064 -0.0001  0.1046 -0.5117
  129OSM    O1213800   2.297   1.029   5.943  0.0180 -0.1131 -0.8926
  129OSM    C1S13801   2.502   1.081   6.133  0.6223  0.4541  0.1282
  129OSM    H1S13802   2.444   1.154   6.072  0.9222 -0.5725 -1.4481
  129OSM    H1T13803   2.609   1.112   6.139  0.4859  0.6660  2.3684
  129OSM     NF13804   2.460   1.203   6.346 -0.4381  0.2644  0.1541
  129OSM    HNF13805   2.539   1.219   6.406  0.5864 -0.2991 -0.9924
  129OSM    C2S13806   2.463   1.068   6.289  0.1480 -0.1843 -0.7972
  129OSM    H2S13807   2.358   1.033   6.287 -0.1032  0.5030 -3.5917
  129OSM    C3S13808   2.555   0.961   6.360  0.6608 -0.6118 -0.0907
  129OSM    H3S13809   2.661   0.984   6.339  0.1832 -0.6378 -3.0727
  129OSM     O313810   2.538   0.825   6.323 -0.5687  0.2916 -0.5304
  129OSM    HO313811   2.479   0.830   6.247  0.8601 -1.2796 -1.8384
  129OSM    C4S13812   2.545   0.975   6.511 -0.5675 -0.1305  0.5640
  129OSM    H4S13813   2.449   1.013   6.549 -1.5908  0.2510 -2.1440
  129OSM    C5S13814   2.654   0.957   6.586 -0.0980  0.3797  0.0309
  129OSM    H5S13815   2.749   0.927   6.541 -0.1364 -0.0167  0.2111
  129OSM    C6S13816   2.654   0.980   6.741 -0.1532 -0.2623 -0.2843
  129OSM    H6S13817   2.570   1.043   6.779  1.1083  0.7641  0.9325
  129OSM    H6T13818   2.740   1.046   6.767 -1.5539  1.2284  0.7899
  129OSM    C7S13819   2.647   0.846   6.810  0.2668  0.0806 -0.7044
  129OSM    H7S13820   2.732   0.786   6.770 -0.2763 -0.4896 -1.0205
  129OSM    H7T13821   2.555   0.787   6.787 -1.2595  1.2671  1.9532
  129OSM    C8S13822   2.658   0.854   6.962  0.1910 -0.3474 -0.2446
  129OSM    H8S13823   2.636   0.749   6.991 -0.6576  0.2042  1.2142
  129OSM    H8T13824   2.581   0.919   7.007 -2.1043 -1.6131 -2.1383
  129OSM    C9S13825   2.790   0.902   7.015 -0.1393  0.5142  0.4927
  129OSM    H9S13826   2.814   1.007   6.989 -2.3384  0.6812 -1.1462
  129OSM    H9T13827   2.873   0.850   6.962  0.6910  2.0136  0.2753
  129OSM   C10S13828   2.801   0.875   7.166  0.3605 -0.5873  0.7500
  129OSM   H10S13829   2.824   0.769   7.187 -2.4556 -1.1802  1.1752
  129OSM   H10T13830   2.703   0.903   7.211  0.6255  1.3310  0.2366
  129OSM   C11S13831   2.912   0.955   7.233 -0.3040 -0.1781  0.2280
  129OSM   H11S13832   2.887   1.062   7.219 -3.2926 -1.0071 -1.8703
  129OSM   H11T13833   3.007   0.924   7.184 -1.0272 -0.2005 -1.2236
  129OSM   C12S13834   2.938   0.920   7.382  0.2993  0.0116  0.5238
  129OSM   H12S13835   3.023   0.982   7.420  1.4235 -1.7627  1.0033
  129OSM   H12T13836   2.988   0.821   7.387  0.5716  0.1755  1.1421
  129OSM   C13S13837   2.816   0.927   7.469  0.4064  0.1160  0.2290
  129OSM   H13S13838   2.751   0.840   7.451  0.6490 -0.4352  1.8343
  129OSM   H13T13839   2.755   1.020   7.475  0.3451  0.0170  1.6350
  129OSM   C14S13840   2.862   0.914   7.611  0.4102 -0.1358 -0.6642
  129OSM   H14S13841   2.766   0.921   7.668  0.9219  2.1593  0.0244
  129OSM   H14T13842   2.909   1.009   7.643  0.4814  0.2658 -1.9185
  129OSM   C15S13843   2.935   0.769   7.648  0.3088 -0.2085 -0.0692
  129OSM   H15S13844   3.036   0.778   7.602 -0.1742  2.6037 -0.7404
  129OSM   H15T13845   2.881   0.688   7.593  1.7046  0.2836 -2.3084
  129OSM   C16S13846   2.962   0.739   7.798  0.1466  0.0468  0.2040
  129OSM   H16S13847   3.038   0.814   7.828  0.4898 -0.1912 -0.0636
  129OSM   H16T13848   3.010   0.640   7.812 -3.2761 -1.8723 -0.5655
  129OSM   C17S13849   2.831   0.742   7.882  0.2215  0.0350 -0.4081
  129OSM   H17S13850   2.754   0.679   7.833  1.3942 -0.7103 -1.3573
  129OSM   H17T13851   2.803   0.849   7.890 -0.9729 -0.3012  0.2004
  129OSM   C18S13852   2.840   0.690   8.029  0.4819  0.2699  0.1211
  129OSM   H18S13853   2.924   0.747   8.073  0.4525 -0.3193  0.9559
  129OSM   H18T13854   2.854   0.580   8.038 -0.1621  0.1682 -0.0321
  129OSM   H18U13855   2.748   0.716   8.085  0.6181  0.8068  0.0972
  129OSM    C1F13856   2.374   1.303   6.313 -0.3907 -0.2747 -0.3417
  129OSM     OF13857   2.286   1.287   6.235 -0.5321  0.6921  0.6200
  129OSM    C2F13858   2.386   1.439   6.385  0.9090  0.4425  0.3357
  129OSM    H2F13859   2.348   1.512   6.311 -0.1415  0.3718  0.7861
  129OSM    H2G13860   2.492   1.462   6.411  0.0507  3.7770  1.4214
  129OSM    C3F13861   2.294   1.447   6.505  0.2667 -0.0768  0.0276
  129OSM    H3F13862   2.194   1.421   6.464  0.1388 -0.1496  0.3850
  129OSM    H3G13863   2.297   1.549   6.547  2.2131  0.1568 -0.5941
  129OSM    C4F13864   2.329   1.343   6.617  0.7482 -0.7276  0.0881
  129OSM    H4F13865   2.433   1.370   6.646  0.2521  1.9626 -0.3764
  129OSM    H4G13866   2.319   1.247   6.563 -1.5122 -0.6978  0.3770
  129OSM    C5F13867   2.241   1.358   6.743 -0.3863  1.0642 -0.7209
  129OSM    H5F13868   2.134   1.342   6.719 -0.1138  0.7993 -1.7750
  129OSM    H5G13869   2.229   1.462   6.783 -0.4450  1.6117 -2.1145
  129OSM    C6F13870   2.292   1.263   6.850  0.0407  0.6078 -1.1208
  129OSM    H6F13871   2.396   1.293   6.873  0.4085  0.6294 -2.7123
  129OSM    H6G13872   2.297   1.165   6.798 -0.9796  0.3552 -0.7737
  129OSM    C7F13873   2.188   1.257   6.967 -1.5906  0.6513 -0.2287
  129OSM    H7F13874   2.096   1.210   6.926 -0.3755 -1.1375 -0.9938
  129OSM    H7G13875   2.164   1.363   6.991  3.2592  1.8541  0.2770
  129OSM    C8F13876   2.243   1.167   7.082 -0.4659 -0.7435  0.3127
  129OSM    H8F13877   2.277   1.072   7.034  0.8879 -0.2906  0.3118
  129OSM    H8G13878   2.158   1.153   7.151  0.2937  0.1647  1.4654
  129OSM    C9F13879   2.364   1.220   7.158 -0.6819 -0.5422 -0.1736
  129OSM    H9F13880   2.381   1.327   7.144 -0.9243 -0.6492 -1.4609
  129OSM   C10F13881   2.438   1.152   7.244 -0.4420 -0.2384  0.2625
  129OSM   H10F13882   2.521   1.208   7.288 -0.9383 -0.0976  1.0506
  129OSM   C11F13883   2.425   1.007   7.292 -0.3726 -0.8616  0.4182
  129OSM   H11F13884   2.528   0.967   7.307 -0.3850 -0.4757  1.6898
  129OSM   H11G13885   2.370   0.947   7.217  1.5212 -0.2552 -1.5479
  129OSM   C12F13886   2.346   0.992   7.428 -0.3550  0.2166 -0.9809
  129OSM   H12F13887   2.360   0.885   7.455  0.2993  0.7567  0.9901
  129OSM   H12G13888   2.240   1.020   7.407 -0.1133  1.8515 -0.1499
  129OSM   C13F13889   2.394   1.082   7.547  0.2031  0.1973 -0.0845
  129OSM   H13F13890   2.324   1.166   7.533 -1.7125 -1.1721  0.8951
  129OSM   H13G13891   2.492   1.123   7.514  0.4954 -0.6620 -0.3313
  129OSM   C14F13892   2.420   1.017   7.681  0.1218 -0.0659 -0.8049
  129OSM   H14F13893   2.477   0.924   7.663 -1.7985 -1.6343  0.7529
  129OSM   H14G13894   2.322   0.983   7.722  0.7822 -1.5072 -0.3717
  129OSM   C15F13895   2.495   1.109   7.780  0.4937 -0.4691 -0.7439
  129OSM   H15F13896   2.439   1.205   7.787  0.0699 -0.8248  3.4310
  129OSM   H15G13897   2.600   1.133   7.749  0.9100  0.2437  1.0906
  129OSM   C16F13898   2.520   1.043   7.911  0.5402  0.1039  0.2572
  129OSM   H16F13899   2.575   0.950   7.882  0.5195  0.3160 -0.4714
  129OSM   H16G13900   2.424   1.009   7.955  0.2343  0.1646 -0.3634
  129OSM   C17F13901   2.597   1.139   8.005 -0.2871  0.1316 -0.0280
  129OSM   H17F13902   2.599   1.092   8.105  1.8921 -3.7917 -1.6804
  129OSM   H17G13903   2.553   1.241   8.006 -0.9954 -0.1756  0.9365
  129OSM   C18F13904   2.740   1.167   7.958  0.1845 -0.2113  0.2459
  129OSM   H18F13905   2.739   1.239   7.874  0.4087  1.5229  1.6552
  129OSM   H18G13906   2.783   1.070   7.924 -0.0448 -0.4785  0.7051
  129OSM   H18H13907   2.813   1.205   8.032 -0.4256 -2.2254  1.9929
  130OSM      N13908   5.883   6.091   6.332  0.0209  0.5685 -0.3416
  130OSM    C1513909   5.844   5.954   6.278  0.3590 -0.1419  0.3492
  130OSM   H15A13910   5.740   5.926   6.289 -0.1612 -0.1807 -3.3587
  130OSM   H15B13911   5.902   5.866   6.304  2.1239  0.9066  0.1006
  130OSM   H15C13912   5.852   5.964   6.171 -3.0675  0.8292  0.0501
  130OSM    C1413913   5.902   6.077   6.483 -0.4106  0.1138  0.7128
  130OSM   H14A13914   5.923   6.174   6.525  0.2231 -0.3035  1.3822
  130OSM   H14B13915   5.986   6.016   6.514 -2.1998 -2.1266  1.4180
  130OSM   H14C13916   5.813   6.045   6.536 -0.2960  0.5950  1.2075
  130OSM    C1313917   6.017   6.132   6.274  0.2843  0.1013  0.3087
  130OSM   H13A13918   6.017   6.116   6.167 -0.4615 -0.3339  0.3595
  130OSM   H13B13919   6.093   6.072   6.321 -0.0047  0.2364  0.9730
  130OSM   H13C13920   6.040   6.236   6.289 -1.8135  0.4465  1.7309
  130OSM    C1213921   5.769   6.181   6.282 -1.1584  0.6947  0.3110
  130OSM   H12A13922   5.775   6.275   6.334 -1.2947 -0.6768  2.9921
  130OSM   H12B13923   5.673   6.135   6.304 -0.2171 -2.1455 -1.0206
  130OSM    C1113924   5.777   6.207   6.127  0.8798 -0.2279 -0.7634
  130OSM   H11A13925   5.874   6.253   6.096  1.1868 -0.2178  0.1973
  130OSM   H11B13926   5.705   6.289   6.106  0.9427 -0.5561 -2.3799
  130OSM      P13927   5.593   6.044   6.040  0.5159  0.0952  0.2900
  130OSM    O1313928   5.502   6.157   6.003 -0.7449  0.1846 -0.0968
  130OSM    O1413929   5.579   5.931   5.942  0.4624 -0.5052 -0.3328
  130OSM    O1113930   5.555   5.996   6.187 -0.8158 -0.3168  0.0571
  130OSM    O1213931   5.743   6.095   6.048  0.1151 -0.2801 -0.4910
  130OSM    C1S13932   5.428   5.946   6.210 -0.0929  0.4956  0.0723
  130OSM    H1S13933   5.411   5.847   6.162 -0.4325  0.3203  0.5513
  130OSM    H1T13934   5.345   6.010   6.172  1.5282  1.3925 -2.1970
  130OSM     NF13935   5.399   6.050   6.444 -0.7901 -0.0520  0.0449
  130OSM    HNF13936   5.479   6.061   6.501 -0.8192 -0.5201  0.1778
  130OSM    C2S13937   5.397   5.925   6.364 -0.8221  0.7018 -0.6425
  130OSM    H2S13938   5.292   5.889   6.367 -0.8861  0.9602  0.9662
  130OSM    C3S13939   5.493   5.812   6.417  0.6782  0.2533  0.4406
  130OSM    H3S13940   5.595   5.857   6.413  1.6072 -1.8177 -2.1571
  130OSM     O313941   5.505   5.690   6.338  0.8359 -0.4803  0.9907
  130OSM    HO313942   5.437   5.705   6.271 -0.7550  0.6198  2.7626
  130OSM    C4S13943   5.449   5.775   6.553  0.4196  0.6444  0.3078
  130OSM    H4S13944   5.507   5.825   6.631 -1.8842  2.1408  1.1559
  130OSM    C5S13945   5.342   5.698   6.587 -0.4242  0.3340 -0.5945
  130OSM    H5S13946   5.279   5.661   6.505 -0.5220  0.3113 -0.5096
  130OSM    C6S13947   5.310   5.647   6.725 -0.2791 -0.2227 -0.5767
  130OSM    H6S13948   5.302   5.537   6.728 -1.0478 -0.1604 -0.0030
  130OSM    H6T13949   5.215   5.686   6.768 -1.0965 -1.8730 -0.8010
  130OSM    C7S13950   5.415   5.679   6.835 -0.0290 -0.1298  0.4944
  130OSM    H7S13951   5.414   5.789   6.853  0.2195 -0.4373  2.7052
  130OSM    H7T13952   5.515   5.658   6.792 -0.1622 -1.2204  0.6894
  130OSM    C8S13953   5.396   5.625   6.973  0.2104 -0.3495  0.0524
  130OSM    H8S13954   5.394   5.514   6.967  2.9805 -0.3986 -4.8635
  130OSM    H8T13955   5.297   5.657   7.012  0.2983 -1.7105  1.5129
  130OSM    C9S13956   5.506   5.674   7.070  0.5083  0.4364 -0.6395
  130OSM    H9S13957   5.508   5.785   7.078 -1.7893  0.4426  0.7432
  130OSM    H9T13958   5.608   5.640   7.043  0.9911  1.9516 -0.7997
  130OSM   C10S13959   5.479   5.634   7.222  0.4755  0.2827  0.3546
  130OSM   H10S13960   5.376   5.672   7.234  1.0333  1.3946  2.0241
  130OSM   H10T13961   5.535   5.692   7.299  0.1071  2.1143 -0.7052
  130OSM   C11S13962   5.470   5.486   7.252 -0.1588  0.7137 -0.0637
  130OSM   H11S13963   5.576   5.455   7.258  0.0521  0.9708 -1.8429
  130OSM   H11T13964   5.421   5.428   7.171  0.5123  0.9669 -0.6658
  130OSM   C12S13965   5.402   5.452   7.388 -0.4561 -0.0219 -0.0765
  130OSM   H12S13966   5.339   5.361   7.388 -2.0055  1.0176  0.9450
  130OSM   H12T13967   5.327   5.532   7.406  0.1906  0.1403  2.1444
  130OSM   C13S13968   5.515   5.445   7.499  0.3765  0.9181 -0.4776
  130OSM   H13S13969   5.556   5.547   7.512  0.3317  0.6494  2.6682
  130OSM   H13T13970   5.592   5.371   7.469  1.6331  2.0143 -0.0128
  130OSM   C14S13971   5.453   5.411   7.638 -0.2916 -0.0234 -0.2433
  130OSM   H14S13972   5.534   5.400   7.713  0.7493  1.5857 -1.0555
  130OSM   H14T13973   5.387   5.324   7.619 -0.9903  0.7573 -1.6090
  130OSM   C15S13974   5.359   5.528   7.674 -0.0382  0.6976 -0.3551
  130OSM   H15S13975   5.267   5.517   7.613  0.8208  2.3952 -2.0436
  130OSM   H15T13976   5.397   5.631   7.659  0.8511  0.1838 -1.8312
  130OSM   C16S13977   5.321   5.522   7.828 -0.1240 -0.3272 -0.1084
  130OSM   H16S13978   5.285   5.625   7.851 -2.6616 -0.9224 -1.1156
  130OSM   H16T13979   5.407   5.509   7.897 -2.2573 -0.2758  2.7742
  130OSM   C17S13980   5.210   5.418   7.857 -0.0367 -0.0663  0.3635
  130OSM   H17S13981   5.248   5.318   7.827 -1.4222 -0.1384 -1.3158
  130OSM   H17T13982   5.125   5.450   7.794 -0.0884 -0.0110  0.4617
  130OSM   C18S13983   5.167   5.421   8.002 -0.2813  0.0666 -0.1183
  130OSM   H18S13984   5.248   5.409   8.076  2.3103  0.3053 -2.7391
  130OSM   H18T13985   5.089   5.346   8.027  0.2328 -0.0221  1.2623
  130OSM   H18U13986   5.127   5.519   8.036  1.8048  0.9142  0.0267
  130OSM    C1F13987   5.313   6.148   6.437  0.1853 -0.3105 -0.0654
  130OSM     OF13988   5.226   6.143   6.353  0.1032 -0.3322  0.2552
  130OSM    C2F13989   5.329   6.260   6.538  0.2275  0.1341  0.0685
  130OSM    H2F13990   5.358   6.351   6.482  0.0709 -0.1305 -0.4470
  130OSM    H2G13991   5.413   6.233   6.606  3.1752  2.6830 -2.2588
  130OSM    C3F13992   5.200   6.288   6.614 -0.6091 -0.1744 -0.6928
  130OSM    H3F13993   5.103   6.284   6.561 -1.1388  1.3311  0.1007
  130OSM    H3G13994   5.209   6.393   6.650  1.9450 -0.5756  0.0470
  130OSM    C4F13995   5.188   6.194   6.731 -0.0032  0.0301 -0.1185
  130OSM    H4F13996   5.214   6.092   6.697 -0.1248 -0.9143  2.4037
  130OSM    H4G13997   5.083   6.189   6.768 -0.2740  0.7356 -0.7589
  130OSM    C5F13998   5.274   6.242   6.853 -0.3867 -0.1628 -0.2609
  130OSM    H5F13999   5.259   6.352   6.860  5.2512  0.9963 -1.4252
  130OSM    H5G14000   5.384   6.238   6.836 -0.1148  0.6128  1.1414
  130OSM    C6F14001   5.235   6.168   6.971 -0.0654 -0.1140 -1.1295
  130OSM    H6F14002   5.254   6.060   6.953  2.5180 -0.3546  2.0721
  130OSM    H6G14003   5.124   6.179   6.977  0.2020  3.2425 -0.6836
  130OSM    C7F14004   5.291   6.227   7.103  0.6540  0.7788  0.3349
  130OSM    H7F14005   5.258   6.333   7.100 -1.9628  0.0880  2.1155
  130OSM    H7G14006   5.401   6.224   7.087  0.6529 -0.0690  0.4411
  130OSM    C8F14007   5.244   6.154   7.229  0.4181  0.3974  0.2885
  130OSM    H8F14008   5.135   6.141   7.215  0.4256 -1.3200  1.4733
  130OSM    H8G14009   5.266   6.210   7.322 -4.1025  1.4931  0.9518
  130OSM    C9F14010   5.297   6.014   7.241  0.0258 -0.9091  0.7894
  130OSM    H9F14011   5.271   5.950   7.155 -2.2063 -1.0238  1.4924
  130OSM   C10F14012   5.370   5.965   7.337  0.2350  0.5418 -0.0238
  130OSM   H10F14013   5.402   5.860   7.327  1.9565  0.6372  3.0298
  130OSM   C11F14014   5.432   6.038   7.452  0.2428 -0.2137 -0.2338
  130OSM   H11F14015   5.417   6.148   7.450  1.3718 -0.0475 -0.4509
  130OSM   H11G14016   5.541   6.016   7.459  0.4520  0.3668 -1.3585
  130OSM   C12F14017   5.371   5.986   7.590  0.4203  0.3076  0.1029
  130OSM   H12F14018   5.352   5.876   7.588  1.9273  0.0280 -0.1440
  130OSM   H12G14019   5.273   6.032   7.612  0.4263  0.0964  0.5768
  130OSM   C13F14020   5.452   6.016   7.717 -0.8082  0.1834 -0.5267
  130OSM   H13F14021   5.471   6.125   7.727  0.3782  0.0889 -1.4766
  130OSM   H13G14022   5.547   5.961   7.704  0.6655  2.2136  1.0143
  130OSM   C14F14023   5.384   5.965   7.846  1.0306  0.3854 -0.2178
  130OSM   H14F14024   5.339   5.863   7.838  0.3392  0.7564 -1.2709
  130OSM   H14G14025   5.288   6.020   7.854  1.0334  0.2922  0.6346
  130OSM   C15F14026   5.466   5.973   7.974  1.1578  0.3372 -0.1676
  130OSM   H15F14027   5.483   6.079   8.003 -0.0757  0.1102  1.5807
  130OSM   H15G14028   5.560   5.920   7.948  0.5861 -1.1514  0.6760
  130OSM   C16F14029   5.401   5.898   8.094  0.2486  0.2744  0.7533
  130OSM   H16F14030   5.407   5.791   8.065  0.2106  0.5183 -0.1788
  130OSM   H16G14031   5.292   5.916   8.108  0.1995 -0.0986  0.8813
  130OSM   C17F14032   5.481   5.911   8.225  0.1543  0.5149  0.0048
  130OSM   H17F14033   5.481   6.010   8.277  0.4142 -0.3326  1.6743
  130OSM   H17G14034   5.587   5.884   8.204 -0.3743 -0.5123 -1.4453
  130OSM   C18F14035   5.426   5.818   8.340 -0.3246 -0.0648  0.5364
  130OSM   H18F14036   5.458   5.863   8.436 -1.1102 -2.0916  1.8124
  130OSM   H18G14037   5.469   5.716   8.336  0.3037  0.2478 -2.0720
  130OSM   H18H14038   5.318   5.797   8.325  0.0064 -1.7440  0.2932
  131OSM      N14039   2.886   2.149   6.112  0.1481  0.0341 -0.3506
  131OSM    C1514040   2.975   2.239   6.041 -0.7694 -0.8955  0.0547
  131OSM   H15A14041   2.991   2.336   6.087  2.3018 -0.7108 -1.2223
  131OSM   H15B14042   2.931   2.260   5.944  0.5026 -0.9053 -0.5368
  131OSM   H15C14043   3.071   2.195   6.023 -1.2991 -1.0630 -2.8746
  131OSM    C1414044   2.765   2.216   6.154  0.1620  0.1670 -0.9196
  131OSM   H14A14045   2.694   2.140   6.184 -0.8109  0.4486 -2.4097
  131OSM   H14B14046   2.725   2.270   6.070 -4.9317 -0.0744  0.9509
  131OSM   H14C14047   2.776   2.280   6.241 -1.2718  0.7275 -1.1178
  131OSM    C1314048   2.847   2.045   6.008 -0.3495 -0.1466 -0.2041
  131OSM   H13A14049   2.780   1.971   6.049 -0.8123  1.2445  1.6804
  131OSM   H13B14050   2.938   1.992   5.985  0.6321  1.3249  0.1331
  131OSM   H13C14051   2.809   2.094   5.920 -1.7918  0.3728  0.6638
  131OSM    C1214052   2.947   2.075   6.232 -0.6079  0.6543  0.3342
  131OSM   H12A14053   2.865   2.020   6.275 -1.8177  0.1100 -2.4588
  131OSM   H12B14054   2.983   2.147   6.304  0.5935  0.0375  0.3713
  131OSM    C1114055   3.071   1.983   6.208  0.7163  0.8512 -0.0476
  131OSM   H11A14056   3.039   1.901   6.140  1.1417  1.6579 -1.2468
  131OSM   H11B14057   3.083   1.925   6.302  0.5015  1.9216  0.6518
  131OSM      P14058   3.308   1.979   6.096 -0.3845  0.0651  0.2653
  131OSM    O1314059   3.269   1.945   5.958  0.1734 -0.0782 -0.2751
  131OSM    O1414060   3.426   2.067   6.110 -0.5143  0.0297  0.3153
  131OSM    O1114061   3.326   1.843   6.178 -0.1431 -0.5115 -0.0764
  131OSM    O1214062   3.189   2.056   6.170  0.3001 -0.1019  0.1334
  131OSM    C1S14063   3.437   1.786   6.240 -0.1233 -0.2843 -0.3819
  131OSM    H1S14064   3.520   1.860   6.247  0.5100 -0.9414 -0.8903
  131OSM    H1T14065   3.481   1.706   6.177  0.1400  0.2843 -0.9341
  131OSM     NF14066   3.533   1.685   6.458  0.3263 -1.0010  0.4867
  131OSM    HNF14067   3.582   1.602   6.431  0.8188 -0.4811 -0.2359
  131OSM    C2S14068   3.402   1.713   6.386 -0.0298 -1.0326  0.8637
  131OSM    H2S14069   3.340   1.783   6.446  1.2732  0.8386  0.1147
  131OSM    C3S14070   3.312   1.582   6.366  1.1265  0.0218  0.8262
  131OSM    H3S14071   3.374   1.515   6.303 -0.1465  0.6069 -1.1543
  131OSM     O314072   3.188   1.602   6.296  0.5276  0.2331  0.3631
  131OSM    HO314073   3.208   1.678   6.239 -1.0747  0.0588 -0.5065
  131OSM    C4S14074   3.282   1.520   6.491  0.1480  0.0937  0.8282
  131OSM    H4S14075   3.257   1.581   6.579  0.4221 -0.7443  1.5053
  131OSM    C5S14076   3.268   1.386   6.509 -0.2498  0.6863  1.4752
  131OSM    H5S14077   3.274   1.326   6.417 -1.8992  1.9305  0.4970
  131OSM    C6S14078   3.225   1.311   6.629 -0.4080 -0.3967 -0.7927
  131OSM    H6S14079   3.294   1.225   6.644 -0.3646 -0.0473  1.4967
  131OSM    H6T14080   3.120   1.280   6.608 -0.3964 -0.9320 -0.1023
  131OSM    C7S14081   3.229   1.400   6.757 -0.0055 -0.1919  0.5216
  131OSM    H7S14082   3.149   1.477   6.765  2.8163  2.9342  0.5853
  131OSM    H7T14083   3.317   1.468   6.755 -0.2515  0.1629  1.3535
  131OSM    C8S14084   3.208   1.309   6.877 -0.2852  0.2356 -0.5085
  131OSM    H8S14085   3.282   1.227   6.858  0.5194  0.5715  1.0063
  131OSM    H8T14086   3.100   1.283   6.877 -0.8830  2.4991  0.5752
  131OSM    C9S14087   3.263   1.368   7.013  0.4045 -0.0651  0.3742
  131OSM    H9S14088   3.193   1.450   7.041 -1.8323 -1.7849  0.0916
  131OSM    H9T14089   3.371   1.393   7.004  0.6114 -1.7217 -3.6188
  131OSM   C10S14090   3.238   1.255   7.119 -0.3617  0.0926 -0.2651
  131OSM   H10S14091   3.275   1.163   7.069 -0.3015  0.8327 -1.6282
  131OSM   H10T14092   3.127   1.256   7.125 -0.4430 -2.3617 -0.6068
  131OSM   C11S14093   3.294   1.288   7.265  0.1442  0.5117  0.5349
  131OSM   H11S14094   3.267   1.394   7.283  0.5537  1.0088 -1.5982
  131OSM   H11T14095   3.404   1.278   7.265  0.1395  0.2132  2.0441
  131OSM   C12S14096   3.231   1.209   7.376 -0.3849 -0.1092  0.1371
  131OSM   H12S14097   3.245   1.100   7.364 -3.0634 -0.6124  0.7931
  131OSM   H12T14098   3.120   1.221   7.374 -0.5818 -1.6769  0.5214
  131OSM   C13S14099   3.285   1.240   7.511  0.3273 -0.0169 -0.5538
  131OSM   H13S14100   3.275   1.348   7.534  4.0683  0.9967 -2.8223
  131OSM   H13T14101   3.391   1.207   7.517 -0.6665 -3.3848  0.9184
  131OSM   C14S14102   3.205   1.162   7.618  0.1970 -0.3615  0.1149
  131OSM   H14S14103   3.198   1.057   7.581 -0.2508 -0.3635  0.1957
  131OSM   H14T14104   3.102   1.197   7.644  0.1339 -0.5520  0.1239
  131OSM   C15S14105   3.284   1.158   7.749 -0.5777  0.3168 -0.7963
  131OSM   H15S14106   3.293   1.263   7.783  1.7237  0.2930 -1.1787
  131OSM   H15T14107   3.389   1.126   7.737 -0.3690  1.1009 -1.1114
  131OSM   C16S14108   3.205   1.079   7.857 -0.0169 -0.3413  0.7710
  131OSM   H16S14109   3.186   0.977   7.816  0.7903 -0.3034  0.2819
  131OSM   H16T14110   3.103   1.124   7.861  0.6114  1.4014 -1.1121
  131OSM   C17S14111   3.259   1.079   8.001  0.7340 -0.0037 -0.1792
  131OSM   H17S14112   3.284   1.183   8.031 -0.0451 -0.1413  1.0239
  131OSM   H17T14113   3.357   1.029   7.987  1.0421  1.4312 -4.9724
  131OSM   C18S14114   3.163   1.003   8.099  0.1851  1.1118  0.2766
  131OSM   H18S14115   3.200   0.988   8.202  0.2745  0.2822  0.1299
  131OSM   H18T14116   3.149   0.899   8.062 -0.1819  0.9346  0.9004
  131OSM   H18U14117   3.064   1.054   8.093 -1.1441 -1.3610 -0.0285
  131OSM    C1F14118   3.595   1.789   6.510 -0.9896  0.2829 -0.5580
  131OSM     OF14119   3.542   1.897   6.500  0.0495 -0.0535  0.0561
  131OSM    C2F14120   3.730   1.762   6.580 -0.5300  0.3760  0.4490
  131OSM    H2F14121   3.785   1.701   6.505  0.5579  3.8057 -1.7806
  131OSM    H2G14122   3.702   1.708   6.673 -1.9951  0.4413  0.0568
  131OSM    C3F14123   3.808   1.893   6.611 -0.2007  0.0248  0.0287
  131OSM    H3F14124   3.780   1.937   6.710  0.9694  1.1171 -0.1064
  131OSM    H3G14125   3.792   1.972   6.535  1.7508 -1.1529 -1.6702
  131OSM    C4F14126   3.960   1.860   6.623  0.4665 -0.1431 -0.8903
  131OSM    H4F14127   4.012   1.957   6.639  0.4686  0.0759 -2.1147
  131OSM    H4G14128   4.005   1.820   6.530 -0.4992 -0.7390 -1.1204
  131OSM    C5F14129   3.987   1.768   6.754 -0.8996 -0.6782 -0.0315
  131OSM    H5F14130   3.943   1.667   6.749 -3.0947  0.1682  1.1512
  131OSM    H5G14131   3.940   1.810   6.845 -1.5446 -1.0611 -0.1820
  131OSM    C6F14132   4.141   1.749   6.779 -0.2545 -0.0789 -0.6888
  131OSM    H6F14133   4.189   1.848   6.791 -2.7022  1.1990 -0.8271
  131OSM    H6G14134   4.185   1.701   6.689  0.3198  0.0293 -0.4683
  131OSM    C7F14135   4.163   1.656   6.901  0.2430 -0.2192  1.2887
  131OSM    H7F14136   4.140   1.553   6.867 -1.5763  0.3522  0.6493
  131OSM    H7G14137   4.088   1.682   6.979 -1.1987 -1.5982  0.4143
  131OSM    C8F14138   4.310   1.641   6.951 -0.0025 -0.4025 -0.2367
  131OSM    H8F14139   4.382   1.641   6.866  0.8483  3.5569  0.2934
  131OSM    H8G14140   4.322   1.544   7.003  0.5644 -0.7169 -0.9224
  131OSM    C9F14141   4.352   1.760   7.037 -0.4900  0.7765 -0.2656
  131OSM    H9F14142   4.312   1.856   7.003 -3.0312  0.5835  1.8709
  131OSM   C10F14143   4.411   1.759   7.159  0.0383 -0.4586  0.2035
  131OSM   H10F14144   4.438   1.862   7.187  1.0381 -0.0376 -2.0547
  131OSM   C11F14145   4.457   1.645   7.244 -0.2018  0.0512  0.0742
  131OSM   H11F14146   4.536   1.584   7.195  2.3622  0.5752  3.2117
  131OSM   H11G14147   4.369   1.583   7.271  1.2234 -1.4713  1.4864
  131OSM   C12F14148   4.522   1.684   7.379 -0.4619 -0.4306 -0.6737
  131OSM   H12F14149   4.584   1.775   7.362  0.0335 -0.8757 -1.2861
  131OSM   H12G14150   4.585   1.599   7.412  0.0372  0.7350  1.6393
  131OSM   C13F14151   4.423   1.729   7.488  0.6593 -0.6283 -0.3555
  131OSM   H13F14152   4.332   1.668   7.507 -0.9995  1.8531  0.1104
  131OSM   H13G14153   4.383   1.830   7.464 -0.0607 -0.3242  1.8765
  131OSM   C14F14154   4.489   1.746   7.629 -0.7625 -0.1078  0.3403
  131OSM   H14F14155   4.414   1.773   7.707 -2.0926 -2.9177  0.2025
  131OSM   H14G14156   4.567   1.823   7.620  0.1765 -0.9955  0.6872
  131OSM   C15F14157   4.550   1.613   7.682  0.0806 -0.4136  0.2967
  131OSM   H15F14158   4.612   1.565   7.604 -0.4601 -0.8291  0.1115
  131OSM   H15G14159   4.464   1.544   7.701  0.8825 -1.2658  0.9098
  131OSM   C16F14160   4.624   1.628   7.819 -1.2394 -0.2558  0.9007
  131OSM   H16F14161   4.563   1.693   7.885 -1.2907  0.9469 -0.2898
  131OSM   H16G14162   4.714   1.689   7.796  0.1531 -2.4055  0.4002
  131OSM   C17F14163   4.666   1.498   7.878 -0.7846  0.7571 -0.1723
  131OSM   H17F14164   4.735   1.521   7.962  0.9103  0.9074 -1.5523
  131OSM   H17G14165   4.724   1.431   7.811  0.1255 -3.0007  3.9786
  131OSM   C18F14166   4.550   1.424   7.921  0.7406 -0.0037  0.1935
  131OSM   H18F14167   4.518   1.361   7.835 -1.2780  0.2621  0.6924
  131OSM   H18G14168   4.475   1.500   7.953  2.0779  1.2174  0.5219
  131OSM   H18H14169   4.561   1.354   8.007 -2.7087 -1.4047 -0.3283
  132OSM      N14170   0.372   5.205   6.087  0.0024  0.1704 -0.1150
  132OSM    C1514171   0.476   5.105   6.109  0.1814  0.2824 -0.2389
  132OSM   H15A14172   0.519   5.068   6.017 -0.1002  0.8706 -0.6116
  132OSM   H15B14173   0.451   5.016   6.164  1.2190 -0.6026 -1.1503
  132OSM   H15C14174   0.557   5.144   6.168 -0.0268  0.7153 -0.2362
  132OSM    C1414175   0.424   5.318   6.004 -0.6087  0.3484 -1.0699
  132OSM   H14A14176   0.353   5.398   5.992 -0.7533  0.2337 -0.9839
  132OSM   H14B14177   0.456   5.282   5.908  1.6615  1.7805 -0.9028
  132OSM   H14C14178   0.515   5.351   6.051 -0.3178 -1.9039  0.0791
  132OSM    C1314179   0.266   5.137   6.011  0.0410  0.2096 -0.2154
  132OSM   H13A14180   0.302   5.091   5.921 -0.5116 -0.7853  0.0592
  132OSM   H13B14181   0.203   5.216   5.973  1.5414  1.7438  0.3841
  132OSM   H13C14182   0.212   5.068   6.075  0.5805  0.1318  0.1688
  132OSM    C1214183   0.313   5.249   6.221  0.1805 -0.4310  0.3930
  132OSM   H12A14184   0.265   5.164   6.265 -0.3634 -0.9664 -1.1708
  132OSM   H12B14185   0.242   5.324   6.190 -0.3496 -1.2237 -0.3414
  132OSM    C1114186   0.405   5.321   6.328  0.3330  0.2027  0.2821
  132OSM   H11A14187   0.335   5.362   6.405  1.3389  0.5768  1.0241
  132OSM   H11B14188   0.463   5.402   6.280  1.1252  1.2876  2.8962
  132OSM      P14189   0.622   5.257   6.460  0.2935 -0.0253 -0.0469
  132OSM    O1314190   0.671   5.157   6.559  0.6643 -0.1363  0.0882
  132OSM    O1414191   0.707   5.296   6.347 -0.2300 -0.4358  0.2745
  132OSM    O1114192   0.597   5.388   6.544  0.2461 -0.2541  0.1819
  132OSM    O1214193   0.484   5.222   6.398  0.3208 -0.2853 -0.0169
  132OSM    C1S14194   0.491   5.409   6.634 -0.5913  0.2148 -0.3069
  132OSM    H1S14195   0.406   5.341   6.613 -0.5329  0.1990 -0.4859
  132OSM    H1T14196   0.447   5.510   6.625 -0.1731  0.7949  2.8580
  132OSM     NF14197   0.413   5.412   6.880 -0.7731  0.2873 -0.1202
  132OSM    HNF14198   0.389   5.501   6.918  0.9119  0.3776  0.8264
  132OSM    C2S14199   0.529   5.395   6.789 -0.7115  0.2853 -0.4715
  132OSM    H2S14200   0.567   5.293   6.811 -1.8419 -0.2967 -1.1552
  132OSM    C3S14201   0.651   5.489   6.832  0.0297 -1.2258 -0.0566
  132OSM    H3S14202   0.615   5.594   6.839 -1.6451 -1.7802  0.2084
  132OSM     O314203   0.757   5.484   6.741 -0.6414  0.5051 -0.0508
  132OSM    HO314204   0.721   5.437   6.666 -1.6653  1.2998 -0.0805
  132OSM    C4S14205   0.704   5.450   6.967 -0.3820  0.0803  0.1507
  132OSM    H4S14206   0.725   5.343   6.982  1.0369  0.4825  1.2238
  132OSM    C5S14207   0.722   5.534   7.072 -0.2360  0.1827 -0.2820
  132OSM    H5S14208   0.692   5.639   7.069 -1.7419 -0.1125  1.9397
  132OSM    C6S14209   0.779   5.487   7.204 -0.3080  0.8582  0.4123
  132OSM    H6S14210   0.878   5.534   7.220 -0.0921  0.4974  0.1717
  132OSM    H6T14211   0.784   5.376   7.201 -0.5423  0.8279  0.9143
  132OSM    C7S14212   0.692   5.535   7.318  0.1070  0.8066 -0.0544
  132OSM    H7S14213   0.590   5.493   7.306  0.2285  0.1141  1.2353
  132OSM    H7T14214   0.680   5.645   7.323 -2.9623  0.5618 -0.0487
  132OSM    C8S14215   0.737   5.478   7.447 -0.3429  0.6186 -0.2811
  132OSM    H8S14216   0.846   5.488   7.468 -0.5826  2.4989  0.2348
  132OSM    H8T14217   0.721   5.369   7.438  0.0133  0.3734  1.7533
  132OSM    C9S14218   0.662   5.525   7.568  0.5238  1.0663 -0.4023
  132OSM    H9S14219   0.552   5.511   7.561  0.4666  1.6164 -0.6487
  132OSM    H9T14220   0.673   5.635   7.565  1.0494  1.0023 -2.9182
  132OSM   C10S14221   0.709   5.481   7.703  0.7011  0.2985 -0.2640
  132OSM   H10S14222   0.805   5.530   7.733  0.5634  1.4576 -1.6000
  132OSM   H10T14223   0.722   5.371   7.700 -0.5712  0.0923  0.8990
  132OSM   C11S14224   0.607   5.520   7.818 -0.9713  0.6406  0.2762
  132OSM   H11S14225   0.512   5.465   7.798 -0.6646  0.1609  0.1357
  132OSM   H11T14226   0.581   5.628   7.809 -2.0166  0.4684  0.9515
  132OSM   C12S14227   0.676   5.498   7.954  0.8641  0.5006  0.4784
  132OSM   H12S14228   0.766   5.562   7.963 -0.0947  1.6666  2.6152
  132OSM   H12T14229   0.698   5.391   7.974 -3.0561 -0.3901  0.8097
  132OSM   C13S14230   0.596   5.527   8.081  0.2928 -0.6928 -0.5466
  132OSM   H13S14231   0.509   5.458   8.083 -0.3258  0.0751  1.1833
  132OSM   H13T14232   0.550   5.627   8.068 -1.3841 -1.4603 -0.6655
  132OSM   C14S14233   0.674   5.502   8.210 -0.4053  0.0077 -1.1627
  132OSM   H14S14234   0.774   5.548   8.193 -1.3388  1.5593 -2.7890
  132OSM   H14T14235   0.679   5.392   8.222 -2.1231  0.1849  2.4335
  132OSM   C15S14236   0.620   5.559   8.340 -0.5194  0.6121 -0.2758
  132OSM   H15S14237   0.679   5.519   8.425  1.0043 -0.4645 -1.7810
  132OSM   H15T14238   0.514   5.525   8.343  0.0452 -1.2176  0.5553
  132OSM   C16S14239   0.619   5.712   8.345 -0.7382  0.0086  0.3373
  132OSM   H16S14240   0.565   5.747   8.436 -0.1019  0.6903  0.4659
  132OSM   H16T14241   0.549   5.737   8.262 -2.0380 -1.5561  0.9197
  132OSM   C17S14242   0.749   5.791   8.345 -0.0817  0.3147 -0.1413
  132OSM   H17S14243   0.726   5.899   8.332  1.7908  0.7722 -0.0442
  132OSM   H17T14244   0.794   5.742   8.257 -2.0702 -2.1986  0.1335
  132OSM   C18S14245   0.840   5.767   8.468  0.5411  0.3770  0.1393
  132OSM   H18S14246   0.937   5.818   8.449 -0.5025  1.6318 -2.3749
  132OSM   H18T14247   0.858   5.661   8.495  0.1577 -0.0637 -1.2280
  132OSM   H18U14248   0.789   5.810   8.557  0.5121  0.2089  0.2039
  132OSM    C1F14249   0.320   5.315   6.888 -0.4038 -0.1741  0.1227
  132OSM     OF14250   0.359   5.205   6.853 -0.3156 -0.1894 -0.2751
  132OSM    C2F14251   0.182   5.340   6.939 -0.0714 -0.5760  0.2752
  132OSM    H2F14252   0.147   5.440   6.905  1.9968  0.1808  0.1686
  132OSM    H2G14253   0.173   5.325   7.048 -0.5725 -0.3720  0.2642
  132OSM    C3F14254   0.074   5.240   6.887  0.5290 -0.3229 -0.3359
  132OSM    H3F14255   0.109   5.140   6.918  3.0446  0.9355  1.2244
  132OSM    H3G14256   0.065   5.237   6.776 -0.4062  1.0810 -0.3308
  132OSM    C4F14257  -0.061   5.256   6.952  0.6385  0.3366  0.1206
  132OSM    H4F14258  -0.116   5.340   6.906 -1.5980 -1.1236 -0.0257
  132OSM    H4G14259  -0.050   5.281   7.060  3.0355  0.4970 -0.1066
  132OSM    C5F14260  -0.149   5.130   6.929 -0.2230 -0.6093 -0.3094
  132OSM    H5F14261  -0.130   5.103   6.823  0.2848 -0.2618 -0.3082
  132OSM    H5G14262  -0.252   5.172   6.930 -1.1092 -2.5536  2.1591
  132OSM    C6F14263  -0.132   5.020   7.037 -0.5709 -0.7119 -0.2650
  132OSM    H6F14264  -0.032   4.972   7.033  0.0852  0.6410 -0.7197
  132OSM    H6G14265  -0.201   4.936   7.016 -0.6132 -0.7169 -0.1098
  132OSM    C7F14266  -0.154   5.069   7.186  0.7143 -0.0559  0.8776
  132OSM    H7F14267  -0.242   5.134   7.168 -0.3534 -1.4799  0.8079
  132OSM    H7G14268  -0.071   5.138   7.211  0.1935  1.1696 -0.6375
  132OSM    C8F14269  -0.191   4.965   7.294 -0.5246 -0.5892 -0.0070
  132OSM    H8F14270  -0.278   4.905   7.259 -1.1697  0.2299  0.1614
  132OSM    H8G14271  -0.221   5.015   7.389 -0.3986  0.5102 -0.5231
  132OSM    C9F14272  -0.075   4.883   7.336  0.2295  0.5229 -0.7584
  132OSM    H9F14273  -0.045   4.812   7.257  2.4398  0.1372  0.3442
  132OSM   C10F14274  -0.016   4.880   7.461  0.4356  0.5887  0.6218
  132OSM   H10F14275   0.062   4.805   7.481 -1.6221 -1.1648  2.5287
  132OSM   C11F14276  -0.055   4.939   7.597  0.1646 -0.2994  0.0534
  132OSM   H11F14277  -0.117   5.030   7.587  1.6531  0.8824  1.0517
  132OSM   H11G14278   0.037   4.980   7.645  0.1878  0.0224 -0.2632
  132OSM   C12F14279  -0.114   4.842   7.696 -0.3163  0.4524  0.1473
  132OSM   H12F14280  -0.032   4.771   7.722 -0.9411 -0.4123 -0.1967
  132OSM   H12G14281  -0.204   4.792   7.655  1.1220 -1.4947 -0.8095
  132OSM   C13F14282  -0.153   4.909   7.835 -0.0303  0.2161 -0.1604
  132OSM   H13F14283  -0.239   4.976   7.811  0.6912  1.1307 -0.2831
  132OSM   H13G14284  -0.071   4.974   7.872 -0.6284  1.2242 -0.5522
  132OSM   C14F14285  -0.210   4.817   7.941 -0.7018  0.0458  0.3984
  132OSM   H14F14286  -0.130   4.756   7.987  0.2428  0.3661 -0.7881
  132OSM   H14G14287  -0.286   4.753   7.890 -2.1619  1.2756  0.9441
  132OSM   C15F14288  -0.284   4.884   8.058  0.1001 -0.5822  0.0541
  132OSM   H15F14289  -0.376   4.929   8.015  0.5697 -0.4228 -0.7930
  132OSM   H15G14290  -0.222   4.970   8.093  0.1023 -1.4547  2.4158
  132OSM   C16F14291  -0.324   4.806   8.184  0.4680 -0.1670  0.4480
  132OSM   H16F14292  -0.238   4.746   8.220  0.2763  0.1328  1.4550
  132OSM   H16G14293  -0.405   4.737   8.152  0.7365 -0.5451  0.5732
  132OSM   C17F14294  -0.363   4.901   8.297 -0.0937 -0.4746  0.2628
  132OSM   H17F14295  -0.436   4.972   8.252  1.2923  0.6350 -0.2887
  132OSM   H17G14296  -0.278   4.971   8.308 -0.1557  0.5775 -4.2723
  132OSM   C18F14297  -0.409   4.838   8.432 -0.1756  0.5537  0.7218
  132OSM   H18F14298  -0.335   4.765   8.472 -2.9910 -1.8116  1.9843
  132OSM   H18G14299  -0.498   4.776   8.412  0.0400  0.3045  0.5246
  132OSM   H18H14300  -0.437   4.914   8.508  0.3351 -0.4092  1.9068
  133SAPE     N14301   1.106   1.519  10.900 -0.3018  0.0078 -0.3522
  133SAPE   HN114302   1.020   1.516  10.841  0.0900 -2.1942 -0.8907
  133SAPE   HN214303   1.132   1.426  10.939  0.7805  0.2090 -0.5405
  133SAPE   HN314304   1.095   1.581  10.982  1.4908  2.5099 -1.8402
  133SAPE   C1214305   1.203   1.583  10.808  0.1651  0.1513  0.2066
  133SAPE  H12A14306   1.226   1.519  10.720 -0.1576  0.8538 -0.4011
  133SAPE  H12B14307   1.304   1.588  10.855 -0.4701  0.3392  1.5874
  133SAPE   C1114308   1.163   1.729  10.754  0.0885  0.8922  0.4333
  133SAPE  H11A14309   1.155   1.797  10.841 -2.2365 -1.5178  2.2594
  133SAPE  H11B14310   1.058   1.724  10.718  0.2421 -1.1782  0.1248
  133SAPE     P14311   1.377   1.832  10.665  0.2024 -0.0075 -0.2596
  133SAPE   O1314312   1.357   1.925  10.778 -0.5593  0.3310  0.0431
  133SAPE   O1414313   1.481   1.729  10.674  0.5962 -0.0124 -0.2298
  133SAPE   O1214314   1.238   1.760  10.638  0.2110  0.5071 -0.1446
  133SAPE   O1114315   1.395   1.911  10.534 -0.2397  0.3187 -0.0294
  133SAPE    C114316   1.411   1.847  10.407  0.0973 -0.1504  0.5911
  133SAPE    HA14317   1.346   1.757  10.397  2.3105 -1.7505 -0.1142
  133SAPE    HB14318   1.379   1.915  10.325  0.6649 -3.0290 -2.2548
  133SAPE    C214319   1.560   1.813  10.380  0.0815 -0.5244  0.4349
  133SAPE    HS14320   1.595   1.767  10.474 -1.9474  1.8960  2.5121
  133SAPE   O2114321   1.618   1.940  10.348 -0.2192 -0.0895  0.0405
  133SAPE   C2114322   1.750   1.929  10.351 -0.1103 -0.5137  0.5494
  133SAPE   O2214323   1.818   1.837  10.398 -0.0768  0.2077  0.5956
  133SAPE   C2214324   1.810   2.052  10.282  0.0920 -0.1739 -0.0296
  133SAPE   H2R14325   1.731   2.098  10.220 -1.7592 -2.1036  0.7891
  133SAPE   H2S14326   1.845   2.124  10.359  0.3576 -1.0329  0.6658
  133SAPE    C314327   1.570   1.719  10.265  0.0722 -0.0721  0.6380
  133SAPE    HX14328   1.536   1.622  10.307  2.6294 -1.1410  0.4523
  133SAPE    HY14329   1.678   1.695  10.248  0.0997  0.5467 -0.1557
  133SAPE   O3114330   1.489   1.759  10.149  0.6019 -0.1297 -0.5028
  133SAPE   C3114331   1.569   1.811  10.051 -0.0444  0.0070  0.7203
  133SAPE   O3214332   1.685   1.825  10.063  0.1398  0.0780 -0.3466
  133SAPE   C3214333   1.484   1.884   9.945 -0.7169 -0.4853 -0.4331
  133SAPE   H2X14334   1.543   1.973   9.913  1.0843 -0.4996  2.4498
  133SAPE   H2Y14335   1.385   1.915   9.985 -0.9041 -2.2216  0.5552
  133SAPE   C2314336   1.922   2.003  10.190  0.0760  0.4702 -0.2326
  133SAPE   H3R14337   1.873   1.936  10.117 -0.4024 -1.3268  1.6293
  133SAPE   H3S14338   1.997   1.937  10.237 -1.6757  0.0152  2.1164
  133SAPE   C2414339   2.001   2.131  10.126  0.5415  0.3513  0.0628
  133SAPE   H4R14340   2.048   2.185  10.211  1.0606 -0.2169  0.1424
  133SAPE   H4S14341   1.919   2.201  10.097  0.9275  0.0117 -2.0205
  133SAPE   C2514342   2.100   2.092  10.020 -0.1798  0.0907  0.2907
  133SAPE   H5R14343   2.199   2.048  10.041 -0.4107 -0.5259  0.1066
  133SAPE   C2614344   2.070   2.104   9.887  0.1601 -0.5729  0.9100
  133SAPE   H6R14345   2.145   2.073   9.812 -0.2211  2.6614 -0.9918
  133SAPE   C2714346   1.939   2.159   9.827  0.5538  0.1798 -0.2342
  133SAPE   H7R14347   1.953   2.227   9.741 -2.5986  2.1947  0.6771
  133SAPE   H7S14348   1.892   2.229   9.900  1.7213  0.5286  0.2156
  133SAPE   C2814349   1.850   2.039   9.789 -0.6425 -0.4795  0.2293
  133SAPE   H8R14350   1.843   1.974   9.878  0.4269  0.4815  1.0376
  133SAPE   C2914351   1.789   2.019   9.672 -0.1394 -0.3651 -0.2999
  133SAPE   H9R14352   1.714   1.939   9.665  0.4598 -1.3860  2.9014
  133SAPE  C21014353   1.788   2.122   9.565 -1.0541  0.6009  0.6944
  133SAPE  H10R14354   1.877   2.111   9.500 -1.7524 -2.3940  0.0796
  133SAPE  H10S14355   1.788   2.216   9.624  1.0145 -0.1352  1.9857
  133SAPE  C21114356   1.663   2.122   9.479 -0.4161  0.1563 -0.0592
  133SAPE  H11R14357   1.572   2.150   9.535  0.2830  0.7240  0.8311
  133SAPE  C21214358   1.648   2.106   9.346 -0.2976  0.7314 -0.7250
  133SAPE  H12R14359   1.551   2.123   9.297  0.0437 -0.1680 -1.7636
  133SAPE  C21314360   1.763   2.079   9.250 -0.0492 -0.8870  0.5218
  133SAPE  H13R14361   1.795   1.973   9.254 -0.8907 -1.1368  0.7651
  133SAPE  H13S14362   1.850   2.137   9.289 -0.7026  0.3870  0.1382
  133SAPE  C21414363   1.746   2.107   9.096 -0.3337 -0.1031 -0.0461
  133SAPE  H14R14364   1.733   2.016   9.037 -1.9616 -0.2975  0.5769
  133SAPE  C21514365   1.742   2.230   9.036 -0.6707 -0.0144 -0.3473
  133SAPE  H15R14366   1.738   2.239   8.926  0.8463  2.9354 -0.2647
  133SAPE  C21614367   1.759   2.353   9.108  0.0731  0.2138 -0.1909
  133SAPE  H16R14368   1.852   2.402   9.075  0.5466  0.6419  1.6654
  133SAPE  H16S14369   1.761   2.340   9.219 -2.4999  0.3642 -0.0669
  133SAPE  C21714370   1.635   2.445   9.076  0.2915 -0.8745  0.7512
  133SAPE  H17R14371   1.614   2.513   9.162 -0.0679 -0.6049  0.4540
  133SAPE  H17S14372   1.552   2.374   9.064  0.9502 -1.5693  0.2510
  133SAPE  C21814373   1.655   2.544   8.956  0.3069  0.3223 -1.5109
  133SAPE  H18R14374   1.660   2.485   8.862  0.7144  0.4904 -1.5971
  133SAPE  H18S14375   1.748   2.599   8.983  0.5621 -1.6958  2.3436
  133SAPE  C21914376   1.555   2.661   8.940 -0.0587  0.2695 -0.6192
  133SAPE  H19R14377   1.618   2.750   8.920 -0.4645  0.5686 -0.5939
  133SAPE  H19S14378   1.496   2.664   9.035 -3.1145  1.5221 -2.4127
  133SAPE  C22014379   1.443   2.636   8.831 -0.2653  0.1450  0.3130
  133SAPE  H20R14380   1.390   2.546   8.868  2.4569 -0.8423  2.1955
  133SAPE  H20S14381   1.485   2.613   8.730  0.1455  0.4062  0.4212
  133SAPE  H20T14382   1.374   2.722   8.826  0.2209  0.4996 -0.9022
  133SAPE   C3314383   1.474   1.795   9.815 -0.2387  0.0193 -0.2934
  133SAPE   H3X14384   1.431   1.696   9.842  0.3527  0.0367  0.7725
  133SAPE   H3Y14385   1.569   1.767   9.764 -0.9096 -1.1191 -0.9535
  133SAPE   C3414386   1.383   1.862   9.705 -0.2185  0.4296 -0.0100
  133SAPE   H4X14387   1.412   1.968   9.684 -2.2027  0.8109 -0.9713
  133SAPE   H4Y14388   1.280   1.862   9.747 -0.7069 -0.8548 -1.1674
  133SAPE   C3514389   1.378   1.792   9.573  0.4414 -0.0052  0.6809
  133SAPE   H5X14390   1.338   1.689   9.576  0.7615 -0.2085 -0.9039
  133SAPE   H5Y14391   1.481   1.782   9.531 -0.3550  1.2265 -1.7850
  133SAPE   C3614392   1.283   1.866   9.472  0.6378 -0.0667 -0.4944
  133SAPE   H6X14393   1.319   1.970   9.460  2.1972 -0.2123  2.0235
  133SAPE   H6Y14394   1.182   1.864   9.518  0.6040 -0.8266 -0.5807
  133SAPE   C3714395   1.280   1.789   9.334 -0.4130 -0.5149 -0.4832
  133SAPE   H7X14396   1.177   1.803   9.294 -1.4188  3.9843  2.8626
  133SAPE   H7Y14397   1.288   1.682   9.362 -0.2503 -0.5515 -0.6642
  133SAPE   C3814398   1.379   1.837   9.231  0.1250  0.4110 -0.7047
  133SAPE   H8X14399   1.481   1.830   9.274 -0.1784 -0.1870 -0.0648
  133SAPE   H8Y14400   1.365   1.947   9.236 -2.1113  0.1024  0.8631
  133SAPE   C3914401   1.370   1.780   9.091 -0.3109  0.0779 -0.7019
  133SAPE   H9X14402   1.283   1.824   9.039  0.4566  2.6292  0.0013
  133SAPE   H9Y14403   1.359   1.673   9.119 -0.0079  0.3758  0.6240
  133SAPE  C31014404   1.500   1.808   9.015 -0.6171  0.9412  0.3448
  133SAPE  H10X14405   1.558   1.714   9.017 -3.9012 -1.2483  0.7643
  133SAPE  H10Y14406   1.557   1.886   9.070 -1.0431  1.0032  0.7138
  133SAPE  C31114407   1.485   1.851   8.871  1.2738 -0.8773 -0.2876
  133SAPE  H11X14408   1.434   1.949   8.859  0.5123 -1.4114 -1.5845
  133SAPE  H11Y14409   1.418   1.779   8.821  1.1253 -0.7573 -0.2595
  133SAPE  C31214410   1.611   1.867   8.784  0.3670 -0.7277 -0.3554
  133SAPE  H12X14411   1.661   1.768   8.781 -0.1202 -0.9435 -1.9580
  133SAPE  H12Y14412   1.668   1.953   8.827 -3.1868  1.4630  0.3871
  133SAPE  C31314413   1.569   1.892   8.639 -0.4879 -0.0643 -0.6994
  133SAPE  H13X14414   1.519   1.986   8.607 -0.5704  0.1510  0.0439
  133SAPE  H13Y14415   1.503   1.805   8.617  0.3038 -0.6341 -0.8854
  133SAPE  C31414416   1.683   1.864   8.542  0.3153 -0.2548 -0.2129
  133SAPE  H14X14417   1.777   1.850   8.598 -1.4566  1.2577  3.4942
  133SAPE  H14Y14418   1.704   1.955   8.483  0.3588  1.1413  1.8390
  133SAPE  C31514419   1.653   1.748   8.450  0.2356  0.0102  0.1839
  133SAPE  H15X14420   1.609   1.659   8.500 -2.5005 -0.0729 -2.1139
  133SAPE  H15Y14421   1.743   1.715   8.393 -0.7442  0.3056 -1.6218
  133SAPE  C31614422   1.535   1.792   8.354 -0.5293 -0.1288  0.6427
  133SAPE  H16X14423   1.469   1.850   8.422  0.0773 -0.3797  1.4577
  133SAPE  H16Y14424   1.473   1.711   8.310 -0.5648  0.4429 -0.3966
  133SAPE  C31714425   1.589   1.882   8.245 -0.3188 -0.1943 -0.1535
  133SAPE  H17X14426   1.692   1.855   8.214 -0.5119 -0.1468 -0.8501
  133SAPE  H17Y14427   1.595   1.984   8.290 -0.9398 -0.0774 -0.3203
  133SAPE  C31814428   1.497   1.873   8.126 -0.2833  0.1195  0.5879
  133SAPE  H18X14429   1.493   1.768   8.089 -3.2308 -0.7938  3.0660
  133SAPE  H18Y14430   1.525   1.943   8.044 -1.4758  0.1186  0.1580
  133SAPE  H18Z14431   1.388   1.882   8.148 -0.3389 -1.0295  0.8620
  134SAPE     N14432   6.409   2.104  10.694 -0.2423 -0.5686  0.3541
  134SAPE   HN114433   6.494   2.045  10.705  0.4876  0.7640  2.3403
  134SAPE   HN214434   6.424   2.187  10.632  2.1604 -1.9536 -1.0985
  134SAPE   HN314435   6.391   2.137  10.791  0.0002  4.1549 -0.9571
  134SAPE   C1214436   6.294   2.033  10.633 -0.1558  0.1603  0.2517
  134SAPE  H12A14437   6.254   1.964  10.710 -0.6384 -1.6667 -1.5506
  134SAPE  H12B14438   6.330   1.970  10.549 -0.8431 -2.2566  1.6724
  134SAPE   C1114439   6.188   2.131  10.581  0.2383 -0.0812 -0.2580
  134SAPE  H11A14440   6.115   2.072  10.521  0.5774 -0.4597 -0.3031
  134SAPE  H11B14441   6.243   2.206  10.522  2.1953  0.2095  1.7828
  134SAPE     P14442   6.022   2.307  10.671 -0.3139 -0.1740 -0.4843
  134SAPE   O1314443   5.900   2.254  10.602  0.0475 -0.4336  0.1027
  134SAPE   O1414444   5.997   2.379  10.792  0.3096 -0.1249 -0.0409
  134SAPE   O1214445   6.123   2.191  10.693 -0.6965 -0.1558 -0.0311
  134SAPE   O1114446   6.093   2.403  10.565  1.0641  0.6883  0.2352
  134SAPE    C114447   6.192   2.493  10.610 -0.3340  0.0760 -0.4304
  134SAPE    HA14448   6.245   2.460  10.702  0.0611  1.6617 -0.0549
  134SAPE    HB14449   6.272   2.485  10.533 -0.0953  1.4075 -0.3427
  134SAPE    C214450   6.147   2.642  10.608 -0.1877  0.3705 -0.2632
  134SAPE    HS14451   6.060   2.646  10.677 -2.3411 -0.7725 -2.7562
  134SAPE   O2114452   6.101   2.678  10.476 -0.3009  0.3943  0.5983
  134SAPE   C2114453   6.054   2.803  10.457 -1.1620  0.0949 -0.0213
  134SAPE   O2214454   6.065   2.889  10.537  0.1191 -0.5673 -0.0057
  134SAPE   C2214455   6.007   2.814  10.317 -0.2749  0.6035 -0.3567
  134SAPE   H2R14456   6.100   2.823  10.256  0.2838 -0.6559  0.2546
  134SAPE   H2S14457   5.952   2.721  10.290  1.4957 -0.6822  0.2219
  134SAPE    C314458   6.258   2.734  10.685  0.8088 -0.1168  0.1916
  134SAPE    HX14459   6.299   2.662  10.759 -1.5257 -0.0259  1.6861
  134SAPE    HY14460   6.199   2.819  10.724  0.0622 -1.3374  1.8844
  134SAPE   O3114461   6.360   2.778  10.588  0.7919 -0.2549  0.4382
  134SAPE   C3114462   6.421   2.887  10.622 -0.3358 -0.3462 -0.3828
  134SAPE   O3214463   6.387   2.972  10.708 -0.0499 -0.0542  0.3283
  134SAPE   C3214464   6.526   2.908  10.512 -0.6832  0.4657 -0.2028
  134SAPE   H2X14465   6.536   2.806  10.468  0.2916  0.0735  0.8541
  134SAPE   H2Y14466   6.622   2.939  10.559 -0.0525  0.5259 -1.4909
  134SAPE   C2314467   5.913   2.933  10.296  0.0529  0.1344  0.5632
  134SAPE   H3R14468   5.978   3.024  10.292  1.8021 -1.0762  0.0840
  134SAPE   H3S14469   5.829   2.938  10.368 -0.7752 -3.1762 -0.0030
  134SAPE   C2414470   5.836   2.913  10.163 -1.1102  0.2859  0.5046
  134SAPE   H4R14471   5.861   2.808  10.134 -0.6891  0.6262 -0.3870
  134SAPE   H4S14472   5.893   2.975  10.091  2.1052 -2.4471  0.4674
  134SAPE   C2514473   5.685   2.936  10.157 -0.3489  0.2311 -0.9700
  134SAPE   H5R14474   5.635   2.889  10.244  1.0656  1.5084  0.5957
  134SAPE   C2614475   5.624   2.994  10.050 -0.2220 -0.4115 -0.1095
  134SAPE   H6R14476   5.517   3.018  10.061 -0.3706 -0.4480 -1.3219
  134SAPE   C2714477   5.688   3.048   9.925 -1.2418  0.3932 -0.5148
  134SAPE   H7R14478   5.640   2.992   9.841 -1.5618 -1.8643  1.0937
  134SAPE   H7S14479   5.790   3.004   9.922 -1.2130 -0.3506  4.2455
  134SAPE   C2814480   5.687   3.197   9.910  0.0501 -0.4637 -0.0232
  134SAPE   H8R14481   5.644   3.252   9.996  1.0427 -2.4281  1.8218
  134SAPE   C2914482   5.738   3.267   9.807 -0.2795 -0.8091  0.7805
  134SAPE   H9R14483   5.738   3.377   9.812  0.1844 -0.6129 -2.0725
  134SAPE  C21014484   5.805   3.206   9.683  0.0316  0.1666 -0.0538
  134SAPE  H10R14485   5.773   3.099   9.676  1.6233 -0.3295 -0.1642
  134SAPE  H10S14486   5.915   3.214   9.691  0.1296 -0.4067 -0.7208
  134SAPE  C21114487   5.755   3.268   9.553  0.1549  0.3786 -0.0844
  134SAPE  H11R14488   5.673   3.340   9.569 -0.2008  0.2478 -1.2123
  134SAPE  C21214489   5.796   3.237   9.425  0.4305  0.2372 -0.3506
  134SAPE  H12R14490   5.753   3.285   9.335  0.4731  1.4382  0.2432
  134SAPE  C21314491   5.901   3.145   9.382 -0.3533 -0.7909 -0.2177
  134SAPE  H13R14492   5.850   3.060   9.331 -0.3540 -0.4491 -0.7894
  134SAPE  H13S14493   5.945   3.095   9.471 -0.6306  0.7860  0.8540
  134SAPE  C21414494   5.996   3.211   9.289 -0.1386 -0.2943  0.0651
  134SAPE  H14R14495   6.094   3.234   9.332 -0.0025 -3.9607  2.1687
  134SAPE  C21514496   5.972   3.245   9.160  0.1504  0.1565  0.5396
  134SAPE  H15R14497   6.053   3.288   9.099 -0.2876  0.2412  0.0055
  134SAPE  C21614498   5.841   3.217   9.082  0.3008 -0.1537 -0.3233
  134SAPE  H16R14499   5.780   3.310   9.081  2.8185  1.5768  0.1802
  134SAPE  H16S14500   5.785   3.133   9.129 -0.9422  0.0388 -1.3923
  134SAPE  C21714501   5.852   3.178   8.933 -0.1564 -0.4068  0.4084
  134SAPE  H17R14502   5.927   3.100   8.909  0.7669  0.5222  0.1785
  134SAPE  H17S14503   5.888   3.267   8.876  0.0092 -0.8803 -0.2351
  134SAPE  C21814504   5.718   3.126   8.881  0.5088 -0.5405  0.1271
  134SAPE  H18R14505   5.650   3.214   8.878  0.2248 -0.6986  1.3094
  134SAPE  H18S14506   5.678   3.046   8.946 -3.3202  0.0041 -1.2910
  134SAPE  C21914507   5.719   3.068   8.743  0.6291  0.4474 -0.7144
  134SAPE  H19R14508   5.757   2.966   8.765 -0.3736 -0.1308 -1.5961
  134SAPE  H19S14509   5.790   3.119   8.674  0.1284  0.8302 -0.9512
  134SAPE  C22014510   5.590   3.046   8.673 -0.1406  0.9511  0.5055
  134SAPE  H20R14511   5.531   3.137   8.648 -0.5924  0.6651  0.5227
  134SAPE  H20S14512   5.518   2.990   8.737  0.2722 -0.4498 -0.2120
  134SAPE  H20T14513   5.611   2.989   8.581 -3.3048 -0.6422  0.6273
  134SAPE   C3314514   6.495   3.006  10.403 -1.0769  0.2048 -1.1958
  134SAPE   H3X14515   6.573   3.004  10.324  0.5291  1.0116  0.3071
  134SAPE   H3Y14516   6.486   3.109  10.444 -1.2797 -0.3699  0.2710
  134SAPE   C3414517   6.358   2.973  10.346  0.0444  0.4917  0.2800
  134SAPE   H4X14518   6.286   2.978  10.430 -1.3470  1.7562 -0.9397
  134SAPE   H4Y14519   6.354   2.873  10.298  3.7771  1.1697 -1.8811
  134SAPE   C3514520   6.315   3.081  10.240 -0.0479 -0.8040  0.2333
  134SAPE   H5X14521   6.347   3.177  10.288 -0.9836  0.1707 -1.0261
  134SAPE   H5Y14522   6.206   3.070  10.224  0.0316 -0.7640 -0.3347
  134SAPE   C3614523   6.382   3.069  10.104  0.1351 -0.3126 -0.3585
  134SAPE   H6X14524   6.402   2.961  10.083  0.6273  0.0455 -1.8445
  134SAPE   H6Y14525   6.483   3.114  10.116  0.8028 -1.6387 -0.7336
  134SAPE   C3714526   6.297   3.125   9.991  0.0788 -0.8662  0.4672
  134SAPE   H7X14527   6.284   3.235   9.993  4.0374 -0.1707 -1.9397
  134SAPE   H7Y14528   6.196   3.082  10.005  0.1099 -1.0229  0.2234
  134SAPE   C3814529   6.342   3.090   9.848 -0.2826  0.1815 -0.5118
  134SAPE   H8X14530   6.371   2.984   9.836 -0.8848  0.0470 -0.8265
  134SAPE   H8Y14531   6.430   3.155   9.826  0.6849 -0.0290  2.2914
  134SAPE   C3914532   6.225   3.109   9.743  0.2477  0.7193 -0.1806
  134SAPE   H9X14533   6.171   3.201   9.771 -4.2851 -1.4671 -0.7371
  134SAPE   H9Y14534   6.144   3.037   9.769  0.8272  0.4127  0.7974
  134SAPE  C31014535   6.262   3.088   9.601 -0.7220  0.2682  0.1839
  134SAPE  H10X14536   6.344   3.159   9.578 -2.0349  1.3631 -1.2712
  134SAPE  H10Y14537   6.180   3.131   9.539 -1.4850  0.5640  1.3558
  134SAPE  C31114538   6.294   2.941   9.564 -0.8145 -0.4183  0.1891
  134SAPE  H11X14539   6.197   2.887   9.576 -1.6714  0.9208 -0.4645
  134SAPE  H11Y14540   6.373   2.908   9.634 -2.7362 -2.1193  1.6935
  134SAPE  C31214541   6.345   2.935   9.410 -0.1217 -0.1764 -0.4727
  134SAPE  H12X14542   6.443   2.987   9.404 -0.1083 -0.1760 -0.2772
  134SAPE  H12Y14543   6.278   2.998   9.349 -1.6794  0.3218  1.6381
  134SAPE  C31314544   6.355   2.788   9.371 -0.2669  0.9036  0.0088
  134SAPE  H13X14545   6.275   2.728   9.419  0.5697  0.0252  0.3471
  134SAPE  H13Y14546   6.451   2.749   9.412 -0.9165 -0.6441  0.1257
  134SAPE  C31414547   6.333   2.768   9.219 -0.3208 -0.1441 -0.5553
  134SAPE  H14X14548   6.396   2.846   9.171 -1.1786  1.7787  1.2519
  134SAPE  H14Y14549   6.227   2.780   9.186 -0.3496  0.1316 -0.3685
  134SAPE  C31514550   6.387   2.633   9.183 -0.5084 -0.7514  0.0275
  134SAPE  H15X14551   6.352   2.555   9.255  1.1727 -1.3838  0.2221
  134SAPE  H15Y14552   6.496   2.643   9.204 -0.3841 -2.4716  0.3235
  134SAPE  C31614553   6.367   2.607   9.039 -0.4211 -0.1672  0.1612
  134SAPE  H16X14554   6.382   2.704   8.987 -0.6769 -0.5455 -0.6351
  134SAPE  H16Y14555   6.264   2.565   9.039 -0.6115  0.1950  2.3668
  134SAPE  C31714556   6.479   2.505   8.992  0.7006  0.2706 -0.3737
  134SAPE  H17X14557   6.454   2.413   9.049 -1.5308 -0.1114 -1.8636
  134SAPE  H17Y14558   6.583   2.537   9.013 -0.0507  1.5523  1.7176
  134SAPE  C31814559   6.466   2.481   8.847  0.2279  0.3076  0.1148
  134SAPE  H18X14560   6.551   2.421   8.809 -0.4374 -0.9603  0.5877
  134SAPE  H18Y14561   6.455   2.570   8.780  3.9176 -0.8818 -2.3940
  134SAPE  H18Z14562   6.371   2.426   8.829  0.7435 -0.4891 -0.1909
  135SAPE     N14563   3.662   1.496  10.539  0.4661  0.1074  0.1971
  135SAPE   HN114564   3.716   1.464  10.622 -1.5151 -1.9458  0.8047
  135SAPE   HN214565   3.560   1.504  10.560 -0.1241  0.6763 -2.4496
  135SAPE   HN314566   3.667   1.419  10.469 -0.0310 -0.6852  1.0023
  135SAPE   C1214567   3.729   1.608  10.465  0.3610 -0.8392  0.4812
  135SAPE  H12A14568   3.649   1.667  10.415  0.7448  0.1305  0.9970
  135SAPE  H12B14569   3.796   1.575  10.382  2.5381  2.0842  0.9367
  135SAPE   C1114570   3.801   1.696  10.561 -0.2928  0.8268  0.2074
  135SAPE  H11A14571   3.857   1.777  10.509  0.5303 -0.1992 -0.5370
  135SAPE  H11B14572   3.876   1.643  10.623 -0.7976 -0.3594 -0.1655
  135SAPE     P14573   3.641   1.898  10.661  0.1232  0.0636  0.0861
  135SAPE   O1314574   3.518   1.884  10.743 -0.2155  0.2237  0.0119
  135SAPE   O1414575   3.734   2.005  10.704 -0.3022  0.1068 -0.4206
  135SAPE   O1214576   3.703   1.751  10.655 -0.2983 -0.5353  0.0867
  135SAPE   O1114577   3.612   1.914  10.511 -0.3496 -0.8258  0.8654
  135SAPE    C114578   3.615   2.042  10.452 -0.5210 -0.3921 -0.1218
  135SAPE    HA14579   3.522   2.099  10.470 -1.0995 -1.5836  0.7889
  135SAPE    HB14580   3.700   2.103  10.489  1.5005 -1.6844 -2.2886
  135SAPE    C214581   3.638   2.030  10.302 -0.1603 -0.0917  0.0941
  135SAPE    HS14582   3.740   1.987  10.291  0.3585  0.4813  2.1826
  135SAPE   O2114583   3.634   2.171  10.259  0.3475  0.4613 -0.8318
  135SAPE   C2114584   3.729   2.208  10.171 -0.1402  0.7530 -0.1439
  135SAPE   O2214585   3.814   2.131  10.121  0.9949 -0.1999  0.2172
  135SAPE   C2214586   3.711   2.351  10.131 -0.6690  0.2808 -0.0312
  135SAPE   H2R14587   3.780   2.417  10.189  0.4317 -0.9368  0.1038
  135SAPE   H2S14588   3.740   2.364  10.024 -0.3023 -0.6416 -0.0617
  135SAPE    C314589   3.541   1.935  10.232  0.0692 -0.7333 -0.5034
  135SAPE    HX14590   3.442   1.985  10.224  0.2904 -0.0668  0.6930
  135SAPE    HY14591   3.523   1.839  10.285  0.5346 -0.8431 -0.5431
  135SAPE   O3114592   3.583   1.907  10.092  0.6727  0.5527 -0.3093
  135SAPE   C3114593   3.689   1.821  10.090 -0.3031  0.6155  0.1560
  135SAPE   O3214594   3.737   1.771  10.189 -0.0620 -0.2990  0.4057
  135SAPE   C3214595   3.731   1.793   9.941 -0.3864  0.8293  0.0589
  135SAPE   H2X14596   3.764   1.888   9.894 -0.5770  0.9169  0.1020
  135SAPE   H2Y14597   3.639   1.773   9.882 -1.2914  1.6946  1.1140
  135SAPE   C2314598   3.569   2.408  10.155 -0.2655 -0.2161 -0.3170
  135SAPE   H3R14599   3.573   2.513  10.120  0.3145 -0.2388 -0.3263
  135SAPE   H3S14600   3.549   2.420  10.264  0.6266  0.8361 -0.2564
  135SAPE   C2414601   3.456   2.347  10.076  0.2029 -0.2922 -0.7843
  135SAPE   H4R14602   3.358   2.391  10.107  1.1129  0.1655  1.6203
  135SAPE   H4S14603   3.444   2.242  10.110 -0.9610  0.9542  3.1420
  135SAPE   C2514604   3.471   2.364   9.928 -0.1596 -0.2379  0.3815
  135SAPE   H5R14605   3.489   2.467   9.893  1.6728 -0.7796 -0.4084
  135SAPE   C2614606   3.476   2.264   9.840 -0.8022  0.1237  0.4468
  135SAPE   H6R14607   3.483   2.287   9.732 -2.7314 -3.0819 -0.4881
  135SAPE   C2714608   3.474   2.119   9.862 -0.4002  0.1192  0.2741
  135SAPE   H7R14609   3.447   2.100   9.968  0.2409 -0.6705  0.3088
  135SAPE   H7S14610   3.578   2.080   9.850  0.2148  1.8798 -0.3878
  135SAPE   C2814611   3.364   2.061   9.771 -0.2090 -0.0862 -0.3025
  135SAPE   H8R14612   3.260   2.075   9.806  0.1004  1.4401  0.0877
  135SAPE   C2914613   3.384   1.996   9.653  0.2939 -0.4286  0.0007
  135SAPE   H9R14614   3.294   1.960   9.601 -0.6652  1.4297  0.2982
  135SAPE  C21014615   3.512   1.972   9.575 -0.6648 -0.0227 -0.0509
  135SAPE  H10R14616   3.596   1.945   9.643  1.1099  1.8904 -1.3666
  135SAPE  H10S14617   3.537   2.071   9.531 -1.1380 -0.0374 -0.3521
  135SAPE  C21114618   3.498   1.862   9.470 -0.5487  0.1694  0.3427
  135SAPE  H11R14619   3.541   1.766   9.500  0.2463  0.7628  1.1631
  135SAPE  C21214620   3.453   1.876   9.347 -0.1540 -0.4438  0.6430
  135SAPE  H12R14621   3.446   1.782   9.291 -4.0445 -1.1936  2.0389
  135SAPE  C21314622   3.399   1.996   9.266 -0.6917 -0.0942 -0.2858
  135SAPE  H13R14623   3.389   2.081   9.337  3.1044  0.0416  0.2945
  135SAPE  H13S14624   3.299   1.980   9.220 -1.4296  2.7327  0.1250
  135SAPE  C21414625   3.508   2.027   9.167  0.2721  0.3296  0.0975
  135SAPE  H14R14626   3.600   2.068   9.210  1.3675 -0.2411 -1.6141
  135SAPE  C21514627   3.497   2.025   9.029  1.1214  0.8411 -0.6674
  135SAPE  H15R14628   3.586   2.038   8.965  1.0565  1.8338 -0.5708
  135SAPE  C21614629   3.374   1.979   8.956 -0.3246 -0.3771 -0.3929
  135SAPE  H16R14630   3.340   2.048   8.875 -1.7793 -1.2402 -0.5442
  135SAPE  H16S14631   3.282   1.983   9.018  0.2935  0.0021  0.5366
  135SAPE  C21714632   3.386   1.831   8.912  0.2742 -0.3328  0.0696
  135SAPE  H17R14633   3.285   1.793   8.884  0.2704 -1.4145  1.4472
  135SAPE  H17S14634   3.415   1.774   9.003 -1.3620  0.5315  1.1968
  135SAPE  C21814635   3.496   1.804   8.807  0.3847  0.1894 -0.0483
  135SAPE  H18R14636   3.597   1.830   8.846 -0.1370  0.8736  0.8671
  135SAPE  H18S14637   3.467   1.859   8.715  1.4798  1.2883  0.2333
  135SAPE  C21914638   3.502   1.656   8.769  0.0531 -0.2795 -0.0816
  135SAPE  H19R14639   3.515   1.588   8.856 -1.3298 -1.2879 -0.6214
  135SAPE  H19S14640   3.586   1.653   8.697 -0.6453 -2.2257 -0.9157
  135SAPE  C22014641   3.380   1.612   8.685  0.3727  0.2705 -0.0829
  135SAPE  H20R14642   3.295   1.629   8.755  0.7626  0.5454  0.3236
  135SAPE  H20S14643   3.390   1.503   8.664  0.0031  0.3477 -0.6987
  135SAPE  H20T14644   3.364   1.673   8.593  0.2091  1.2523  0.5871
  135SAPE   C3314645   3.848   1.696   9.921 -0.0949 -0.5973 -0.2872
  135SAPE   H3X14646   3.819   1.600   9.969  1.0847 -1.4101 -1.1382
  135SAPE   H3Y14647   3.939   1.739   9.968  0.6727 -0.2343 -2.0220
  135SAPE   C3414648   3.869   1.670   9.773 -0.8229 -0.1770  0.2234
  135SAPE   H4X14649   3.953   1.600   9.753 -2.3138 -1.6851 -0.9652
  135SAPE   H4Y14650   3.895   1.761   9.714  0.6162 -0.3704  0.5191
  135SAPE   C3514651   3.752   1.603   9.710 -0.3181  0.2269 -0.0334
  135SAPE   H5X14652   3.664   1.671   9.701  0.0471  0.4823 -2.1817
  135SAPE   H5Y14653   3.740   1.511   9.771  0.2550  0.1072 -0.0967
  135SAPE   C3614654   3.788   1.546   9.576  0.8649  0.1140  0.8059
  135SAPE   H6X14655   3.696   1.507   9.527 -0.0469  0.8468  1.8872
  135SAPE   H6Y14656   3.840   1.448   9.585  0.9537  0.0447 -0.2671
  135SAPE   C3714657   3.853   1.646   9.481  0.0087 -0.7464  0.1351
  135SAPE   H7X14658   3.963   1.655   9.488 -0.0811  0.9183 -0.2466
  135SAPE   H7Y14659   3.816   1.746   9.515  2.9927 -0.1032  1.9029
  135SAPE   C3814660   3.833   1.633   9.329  0.2377 -0.7845  0.4060
  135SAPE   H8X14661   3.729   1.596   9.312  0.8458 -1.2477 -3.0228
  135SAPE   H8Y14662   3.874   1.549   9.269 -1.0254  1.4631 -4.0076
  135SAPE   C3914663   3.849   1.772   9.253  0.0032 -0.3918  0.1531
  135SAPE   H9X14664   3.959   1.781   9.238 -0.2580  1.0726 -1.2742
  135SAPE   H9Y14665   3.823   1.856   9.320 -0.0678  0.0601 -0.4257
  135SAPE  C31014666   3.754   1.780   9.134  0.5820 -0.6502 -0.7031
  135SAPE  H10X14667   3.745   1.886   9.100  0.4429 -0.0090  1.2442
  135SAPE  H10Y14668   3.646   1.762   9.157  0.5235  0.1623 -0.2902
  135SAPE  C31114669   3.801   1.695   9.015  0.0856 -0.4521  0.3431
  135SAPE  H11X14670   3.713   1.659   8.958  0.2431 -1.5041  0.7247
  135SAPE  H11Y14671   3.847   1.603   9.057 -1.4051 -1.1001  0.6233
  135SAPE  C31214672   3.900   1.749   8.909 -1.2113 -0.0065  0.5031
  135SAPE  H12X14673   3.999   1.788   8.941 -0.8624  0.6873 -1.2966
  135SAPE  H12Y14674   3.848   1.836   8.865  1.5526  1.1498 -0.6758
  135SAPE  C31314675   3.929   1.652   8.787 -0.7474 -0.0216 -1.3752
  135SAPE  H13X14676   3.831   1.629   8.740 -1.2072  1.8388 -1.4161
  135SAPE  H13Y14677   3.974   1.556   8.820  0.9353  0.8942 -0.8922
  135SAPE  C31414678   4.022   1.708   8.681  0.1100  0.3615 -0.1820
  135SAPE  H14X14679   4.028   1.621   8.612  1.6981 -1.5401  2.1546
  135SAPE  H14Y14680   4.125   1.721   8.722 -0.2713  1.8609  0.3699
  135SAPE  C31514681   3.958   1.821   8.604  0.0299  0.4638  1.1051
  135SAPE  H15X14682   3.944   1.900   8.682  0.9229  0.7983  0.9375
  135SAPE  H15Y14683   3.859   1.793   8.563  0.0902  1.8850 -0.0982
  135SAPE  C31614684   4.048   1.868   8.499  0.3924  0.5490 -0.1410
  135SAPE  H16X14685   4.065   1.779   8.434 -2.6362  0.6843 -1.2578
  135SAPE  H16Y14686   4.142   1.903   8.548 -0.6330  2.5565  0.5355
  135SAPE  C31714687   3.998   1.985   8.406  0.7193  0.0620 -0.5597
  135SAPE  H17X14688   3.893   1.967   8.373 -0.4878  0.9111  2.4534
  135SAPE  H17Y14689   4.073   1.997   8.325  1.1467  1.8394  0.0561
  135SAPE  C31814690   3.981   2.119   8.484 -0.5790  0.1028 -0.0885
  135SAPE  H18X14691   3.893   2.110   8.551  0.5893  1.2226  1.6600
  135SAPE  H18Y14692   3.956   2.189   8.401  0.1093 -1.3661 -1.5970
  135SAPE  H18Z14693   4.072   2.158   8.532 -1.1401 -1.4751  2.4273
  136SAPE     N14694   0.180   1.059  10.792 -0.3321  0.1233 -0.1629
  136SAPE   HN114695   0.195   1.152  10.837 -0.4595  1.1550 -2.1658
  136SAPE   HN214696   0.193   0.980  10.859  0.0730 -2.9330 -3.5487
  136SAPE   HN314697   0.248   1.043  10.715 -1.2098  1.4762 -1.2542
  136SAPE   C1214698   0.039   1.065  10.739 -0.0302  0.1286 -0.3995
  136SAPE  H12A14699   0.038   1.128  10.648  0.9813  2.7196  1.2512
  136SAPE  H12B14700  -0.020   1.107  10.824  2.2567  1.4656  0.6189
  136SAPE   C1114701  -0.013   0.925  10.709  0.4439  1.5368 -0.4373
  136SAPE  H11A14702   0.058   0.863  10.651 -0.0247  1.3878 -0.8601
  136SAPE  H11B14703  -0.108   0.926  10.650 -0.5540  0.6876  1.0869
  136SAPE     P14704  -0.070   0.693  10.855 -0.2016  0.2578 -0.0723
  136SAPE   O1314705   0.054   0.623  10.903  0.0577 -0.1954 -0.4162
  136SAPE   O1414706  -0.195   0.672  10.933  0.5959 -0.1294  0.1221
  136SAPE   O1214707  -0.043   0.852  10.834 -0.5652 -0.6845  0.1025
  136SAPE   O1114708  -0.082   0.647  10.695  0.1523 -0.6512 -0.0680
  136SAPE    C114709  -0.209   0.629  10.635  0.0169  0.1941  0.1078
  136SAPE    HA14710  -0.281   0.592  10.711 -1.7417  1.3704 -0.9067
  136SAPE    HB14711  -0.243   0.729  10.600  1.1642  0.8940  0.9228
  136SAPE    C214712  -0.220   0.517  10.522 -0.2336  0.5850 -0.0843
  136SAPE    HS14713  -0.274   0.429  10.561  1.2019 -1.5645 -2.6046
  136SAPE   O2114714  -0.093   0.472  10.461  0.0969 -0.0850  0.0630
  136SAPE   C2114715  -0.062   0.342  10.479 -0.0412  0.1665 -0.1073
  136SAPE   O2214716  -0.121   0.265  10.553 -0.6008  0.1797  0.1204
  136SAPE   C2214717   0.039   0.296  10.373  0.0879  0.5703 -0.8013
  136SAPE   H2R14718  -0.011   0.316  10.276  0.7225 -0.4525 -1.3584
  136SAPE   H2S14719   0.120   0.372  10.378  0.6326 -0.0656  0.7355
  136SAPE    C314720  -0.299   0.565  10.400 -0.0850  0.5216 -0.9100
  136SAPE    HX14721  -0.237   0.652  10.368  2.0181 -0.9091 -0.9024
  136SAPE    HY14722  -0.397   0.599  10.442 -0.0068 -2.9724  2.5846
  136SAPE   O3114723  -0.304   0.467  10.296  0.1152  0.1834  0.4403
  136SAPE   C3114724  -0.405   0.490  10.219  0.4354 -0.1461  0.2560
  136SAPE   O3214725  -0.484   0.582  10.232  0.0650 -0.1123 -0.1491
  136SAPE   C3214726  -0.414   0.375  10.117 -0.0534 -0.0598 -0.4068
  136SAPE   H2X14727  -0.478   0.298  10.165 -0.4573 -1.2630 -2.7621
  136SAPE   H2Y14728  -0.312   0.338  10.094  0.3910  0.8365  0.0790
  136SAPE   C2314729   0.090   0.149  10.376  0.8989 -0.2368 -0.0456
  136SAPE   H3R14730   0.047   0.094  10.289 -1.2729 -1.3637  1.6415
  136SAPE   H3S14731   0.051   0.102  10.468 -3.1368 -0.7626 -1.8109
  136SAPE   C2414732   0.243   0.136  10.358  0.7114 -0.5887 -0.4625
  136SAPE   H4R14733   0.288   0.176  10.451  1.2248 -4.8864  1.3719
  136SAPE   H4S14734   0.271   0.194  10.267  1.7669 -0.0757  0.1768
  136SAPE   C2514735   0.289   0.001  10.345 -0.4036  0.1260 -0.1390
  136SAPE   H5R14736   0.283  -0.071  10.429  0.1580  0.3525  0.1031
  136SAPE   C2614737   0.333  -0.051  10.227  0.2448 -0.2060 -0.4533
  136SAPE   H6R14738   0.351  -0.159  10.234 -1.3885 -0.4446  0.3653
  136SAPE   C2714739   0.358   0.017  10.090  0.4204  0.1765  0.3184
  136SAPE   H7R14740   0.461   0.051  10.065  0.3034 -0.2774 -0.8388
  136SAPE   H7S14741   0.305   0.115  10.084  2.7802  1.4584 -3.1487
  136SAPE   C2814742   0.305  -0.065   9.972  0.8368 -0.1702  0.4111
  136SAPE   H8R14743   0.200  -0.096   9.976  1.0633 -1.1883 -0.7715
  136SAPE   C2914744   0.367  -0.112   9.854  0.9938 -0.4718 -0.5336
  136SAPE   H9R14745   0.303  -0.177   9.794  0.2998 -2.0003  1.7128
  136SAPE  C21014746   0.506  -0.101   9.800  0.6851 -0.4835 -0.0634
  136SAPE  H10R14747   0.541   0.004   9.806 -1.3030  0.1929  0.6068
  136SAPE  H10S14748   0.499  -0.124   9.692 -2.9878 -1.7680  0.3067
  136SAPE  C21114749   0.608  -0.187   9.873  0.1695 -0.3862 -0.0388
  136SAPE  H11R14750   0.629  -0.153   9.975 -1.8482 -1.3079  0.7453
  136SAPE  C21214751   0.659  -0.306   9.831  0.3033 -0.1953 -0.1364
  136SAPE  H12R14752   0.727  -0.362   9.896 -0.5605 -0.5384  0.4978
  136SAPE  C21314753   0.618  -0.383   9.709  0.5456 -0.0552  0.1105
  136SAPE  H13R14754   0.514  -0.366   9.674  0.9865  0.0363 -1.2090
  136SAPE  H13S14755   0.612  -0.492   9.726 -0.5214 -0.7992 -4.0560
  136SAPE  C21414756   0.718  -0.356   9.601 -0.5104  0.4264 -0.6809
  136SAPE  H14R14757   0.815  -0.408   9.599  0.5698  2.3634 -1.7652
  136SAPE  C21514758   0.688  -0.293   9.488  0.0048  0.1089 -0.4337
  136SAPE  H15R14759   0.769  -0.277   9.416  1.5818 -0.7060  1.0832
  136SAPE  C21614760   0.557  -0.219   9.458 -0.4420 -0.2700 -0.4456
  136SAPE  H16R14761   0.565  -0.110   9.476  2.1588 -0.7239  1.8728
  136SAPE  H16S14762   0.474  -0.259   9.521 -0.4055  1.0601  0.4846
  136SAPE  C21714763   0.513  -0.235   9.308 -0.2655  0.0542  0.0761
  136SAPE  H17R14764   0.508  -0.343   9.285 -1.3361 -0.3021  1.8698
  136SAPE  H17S14765   0.591  -0.197   9.237 -0.5997  0.6779  0.0372
  136SAPE  C21814766   0.375  -0.180   9.277  1.0630 -0.3753 -0.2664
  136SAPE  H18R14767   0.366  -0.078   9.319  2.4558  0.2437 -1.3851
  136SAPE  H18S14768   0.297  -0.247   9.318  1.9590 -1.8939 -0.9435
  136SAPE  C21914769   0.338  -0.159   9.126 -0.0080 -0.4650  0.4459
  136SAPE  H19R14770   0.411  -0.099   9.068 -1.2792  0.9307  0.2411
  136SAPE  H19S14771   0.242  -0.107   9.109  0.0929 -0.5484 -0.4095
  136SAPE  C22014772   0.333  -0.296   9.053  0.0087 -0.6811  0.3718
  136SAPE  H20R14773   0.266  -0.366   9.106 -0.1939 -0.4640  0.4018
  136SAPE  H20S14774   0.430  -0.350   9.044 -0.2979 -1.3310  0.8861
  136SAPE  H20T14775   0.293  -0.274   8.952 -0.0580 -0.3605  0.4688
  136SAPE   C3314776  -0.495   0.415   9.993  0.2637 -0.6068  0.3499
  136SAPE   H3X14777  -0.459   0.514   9.956  2.8677 -1.3674  0.6282
  136SAPE   H3Y14778  -0.599   0.443  10.019  1.2089  2.6740  1.1324
  136SAPE   C3414779  -0.487   0.306   9.890  0.2882  1.0361  0.1120
  136SAPE   H4X14780  -0.530   0.214   9.935  0.3434  1.3715  0.8813
  136SAPE   H4Y14781  -0.384   0.295   9.852  0.6240 -2.8008  1.7235
  136SAPE   C3514782  -0.573   0.339   9.771  0.2579 -0.3045  0.3650
  136SAPE   H5X14783  -0.585   0.447   9.746 -0.3813 -0.9796 -2.7479
  136SAPE   H5Y14784  -0.679   0.305   9.768 -0.2597  1.2641 -0.0914
  136SAPE   C3614785  -0.513   0.284   9.632 -0.0137  0.2451 -0.5963
  136SAPE   H6X14786  -0.524   0.174   9.638 -1.4884  0.3872 -0.2655
  136SAPE   H6Y14787  -0.406   0.311   9.622 -0.0039  0.2619 -0.4412
  136SAPE   C3714788  -0.586   0.344   9.506  0.0860 -0.0952  0.4005
  136SAPE   H7X14789  -0.591   0.454   9.508  1.6687  0.0010  0.0778
  136SAPE   H7Y14790  -0.688   0.299   9.510  0.7027 -1.5680  0.3611
  136SAPE   C3814791  -0.526   0.280   9.380  0.0614 -0.5385  0.2759
  136SAPE   H8X14792  -0.533   0.169   9.383  1.4387 -0.6646 -0.4877
  136SAPE   H8Y14793  -0.423   0.321   9.382 -0.4093  0.6983  0.3208
  136SAPE   C3914794  -0.589   0.332   9.244 -0.2174 -0.3286 -0.3330
  136SAPE   H9X14795  -0.510   0.311   9.168  0.6310  1.2523  0.0582
  136SAPE   H9Y14796  -0.606   0.442   9.249  1.6739 -0.0762  2.1854
  136SAPE  C31014797  -0.716   0.260   9.201 -0.3561 -0.3051  0.1836
  136SAPE  H10X14798  -0.789   0.281   9.282  0.8713 -2.2143  1.8636
  136SAPE  H10Y14799  -0.701   0.152   9.182  0.6228 -0.4667  1.7122
  136SAPE  C31114800  -0.797   0.324   9.081 -0.2343 -0.5146 -0.2424
  136SAPE  H11X14801  -0.737   0.333   8.988  0.1090 -0.0600  0.0196
  136SAPE  H11Y14802  -0.816   0.428   9.114 -2.1299 -0.9370  0.1082
  136SAPE  C31214803  -0.931   0.257   9.061 -0.1656  0.2223  0.0346
  136SAPE  H12X14804  -0.988   0.248   9.156  2.7960 -2.2073  1.7348
  136SAPE  H12Y14805  -0.927   0.153   9.022  0.2770  0.2344  0.0473
  136SAPE  C31314806  -1.021   0.329   8.952  0.3465 -0.4991 -0.7394
  136SAPE  H13X14807  -1.045   0.431   8.990  1.7926  0.1660 -1.4994
  136SAPE  H13Y14808  -1.120   0.280   8.943  0.6338 -1.1263 -0.5587
  136SAPE  C31414809  -0.957   0.338   8.821 -0.4931 -0.1821  0.1289
  136SAPE  H14X14810  -0.943   0.237   8.777 -2.6093 -0.7461  0.6551
  136SAPE  H14Y14811  -0.855   0.384   8.824 -0.4681  0.2044 -3.0674
  136SAPE  C31514812  -1.024   0.419   8.711 -0.1984 -0.2758 -0.4746
  136SAPE  H15X14813  -0.994   0.524   8.733  2.6264 -1.2816  0.9475
  136SAPE  H15Y14814  -1.135   0.419   8.706 -0.3589 -3.2959  0.9019
  136SAPE  C31614815  -0.987   0.371   8.572  0.0792  0.1094 -0.5312
  136SAPE  H16X14816  -1.067   0.307   8.530  0.1008 -0.9212  0.9169
  136SAPE  H16Y14817  -0.893   0.313   8.588 -0.9814 -1.0845  2.1494
  136SAPE  C31714818  -0.973   0.484   8.474  0.1907  0.3743 -0.2456
  136SAPE  H17X14819  -0.914   0.570   8.513  0.7017 -0.5359  1.0506
  136SAPE  H17Y14820  -1.071   0.535   8.464  1.1501  1.9876 -2.2706
  136SAPE  C31814821  -0.928   0.437   8.340  0.5305 -0.2205  0.3558
  136SAPE  H18X14822  -0.999   0.361   8.300  0.6805  0.0407 -0.4108
  136SAPE  H18Y14823  -0.824   0.397   8.346 -0.0691 -1.7525  1.3731
  136SAPE  H18Z14824  -0.917   0.527   8.277  1.5934  1.2967  2.5715
  137SAPE     N14825   1.455   5.451  11.175 -0.2548 -0.0197  0.3779
  137SAPE   HN114826   1.390   5.372  11.158 -1.0256  0.9348 -1.4552
  137SAPE   HN214827   1.538   5.408  11.219  2.1993  4.2350  0.5209
  137SAPE   HN314828   1.407   5.526  11.229 -0.1266  0.9254 -0.7745
  137SAPE   C1214829   1.502   5.504  11.038 -0.6955  0.1511  0.5456
  137SAPE  H12A14830   1.415   5.550  10.988 -0.7104  0.5536  0.9335
  137SAPE  H12B14831   1.539   5.415  10.983  3.6706  2.3461 -0.5887
  137SAPE   C1114832   1.626   5.599  11.055 -0.3637 -1.0224 -0.3879
  137SAPE  H11A14833   1.652   5.629  10.951 -2.7926  0.0647 -0.7565
  137SAPE  H11B14834   1.706   5.532  11.092  0.7572 -1.1069 -2.7820
  137SAPE     P14835   1.689   5.835  11.152  0.6558 -0.0817  0.2711
  137SAPE   O1314836   1.687   5.895  11.286  0.2464 -0.2663  0.2957
  137SAPE   O1414837   1.819   5.801  11.094 -0.3560  0.1479  0.2603
  137SAPE   O1214838   1.595   5.702  11.151  0.3689 -0.1977  0.5869
  137SAPE   O1114839   1.614   5.916  11.047 -0.2783  0.0014 -0.3319
  137SAPE    C114840   1.472   5.947  11.049 -0.2058 -0.3652 -0.8309
  137SAPE    HA14841   1.429   5.921  11.148  1.4092 -2.1522 -0.5351
  137SAPE    HB14842   1.463   6.057  11.045 -0.4852 -0.3788 -0.5905
  137SAPE    C214843   1.411   5.882  10.929 -0.4886 -0.3124  0.3991
  137SAPE    HS14844   1.439   5.775  10.926  0.7805  0.0215 -1.2015
  137SAPE   O2114845   1.456   5.942  10.803  0.1154 -0.1155 -0.4834
  137SAPE   C2114846   1.556   5.885  10.730  0.9294  0.2336  0.5447
  137SAPE   O2214847   1.614   5.782  10.758  0.1797  0.2281 -0.8176
  137SAPE   C2214848   1.565   5.950  10.601 -0.2437 -0.1709 -0.5739
  137SAPE   H2R14849   1.517   5.890  10.521 -3.6492  1.8267 -0.2151
  137SAPE   H2S14850   1.518   6.050  10.607 -2.6076 -1.2552  0.7419
  137SAPE    C314851   1.256   5.893  10.943 -0.5031  0.3977 -0.7991
  137SAPE    HX14852   1.237   6.002  10.942 -1.3644  0.2513 -1.3704
  137SAPE    HY14853   1.229   5.849  11.042  2.6125 -0.0988 -0.0556
  137SAPE   O3114854   1.192   5.823  10.832  0.0337  0.0100 -0.4294
  137SAPE   C3114855   1.175   5.695  10.839  0.0996 -0.0601 -0.1725
  137SAPE   O3214856   1.208   5.631  10.939  0.3199  0.8637  0.2221
  137SAPE   C3214857   1.116   5.629  10.715  0.3771  0.3500  0.2651
  137SAPE   H2X14858   1.007   5.625  10.735  0.4453 -1.2250  0.4132
  137SAPE   H2Y14859   1.144   5.523  10.701 -2.5173 -0.7525  1.8674
  137SAPE   C2314860   1.712   5.982  10.565  0.0245  0.5551 -0.2391
  137SAPE   H3R14861   1.779   5.893  10.557  0.8704  1.2814 -1.6410
  137SAPE   H3S14862   1.756   6.044  10.646  1.4749  2.9808 -2.6949
  137SAPE   C2414863   1.733   6.066  10.432  0.7764 -0.0060  0.1048
  137SAPE   H4R14864   1.666   6.154  10.435 -1.2290 -1.4683  1.0102
  137SAPE   H4S14865   1.685   6.014  10.347 -1.9008  2.8822 -0.3005
  137SAPE   C2514866   1.876   6.097  10.406  0.2034  0.4908  0.1102
  137SAPE   H5R14867   1.948   6.100  10.489  1.1258  0.6086 -0.6800
  137SAPE   C2614868   1.931   6.111  10.285 -1.2827  0.1314  0.5718
  137SAPE   H6R14869   2.033   6.152  10.282 -1.0213 -0.4268  1.6052
  137SAPE   C2714870   1.857   6.104  10.154  0.6383  0.1126 -0.9570
  137SAPE   H7R14871   1.874   6.198  10.097 -0.3057  2.3166  2.1352
  137SAPE   H7S14872   1.747   6.120  10.163  1.0139  2.7426  0.0677
  137SAPE   C2814873   1.898   5.977  10.082 -0.2604  0.0966 -1.0375
  137SAPE   H8R14874   1.908   5.890  10.148  0.1542  1.3892  0.6556
  137SAPE   C2914875   1.910   5.952   9.950 -0.0744 -0.3798 -0.4396
  137SAPE   H9R14876   1.949   5.856   9.913  0.8764  0.0203 -0.5219
  137SAPE  C21014877   1.885   6.054   9.846  0.0812 -0.0194  1.0379
  137SAPE  H10R14878   1.857   6.153   9.890 -2.7498  0.7750 -2.1440
  137SAPE  H10S14879   1.798   6.037   9.779  1.7679  1.9128 -1.8380
  137SAPE  C21114880   2.000   6.085   9.751  0.4081 -0.3157  0.3003
  137SAPE  H11R14881   2.096   6.111   9.799  0.7087  1.3546 -1.1036
  137SAPE  C21214882   2.007   6.085   9.619  0.7948  0.0198  0.1739
  137SAPE  H12R14883   2.102   6.114   9.572  0.2363  1.6610  0.0125
  137SAPE  C21314884   1.893   6.066   9.525  0.0029  0.6047 -0.5295
  137SAPE  H13R14885   1.798   6.039   9.574 -0.6738  0.7710 -1.7120
  137SAPE  H13S14886   1.912   5.970   9.471 -2.6645 -0.2759 -0.0182
  137SAPE  C21414887   1.881   6.180   9.429 -0.6727  0.1339 -0.7052
  137SAPE  H14R14888   1.812   6.258   9.463 -0.6892  0.5573 -1.6605
  137SAPE  C21514889   1.953   6.198   9.314  0.4596 -0.2347  0.5106
  137SAPE  H15R14890   1.932   6.271   9.235  0.3290  0.4260  1.1475
  137SAPE  C21614891   2.062   6.103   9.273  0.2566  0.6214  0.1460
  137SAPE  H16R14892   2.025   6.000   9.257 -3.4784  2.0259 -1.2460
  137SAPE  H16S14893   2.142   6.108   9.350 -1.2191  0.4870  1.7285
  137SAPE  C21714894   2.130   6.149   9.143  0.4387 -0.3793 -0.3147
  137SAPE  H17R14895   2.226   6.095   9.127 -0.7080 -1.4507 -4.7044
  137SAPE  H17S14896   2.177   6.250   9.139 -0.1587 -0.0243  0.8997
  137SAPE  C21814897   2.039   6.120   9.019 -0.3341  0.7707 -0.5271
  137SAPE  H18R14898   2.056   6.199   8.943  0.1826  1.5237  0.3463
  137SAPE  H18S14899   1.936   6.127   9.058 -0.1930  1.1548 -0.2182
  137SAPE  C21914900   2.059   5.979   8.970  0.4367  0.1177  0.5533
  137SAPE  H19R14901   2.025   5.920   9.058 -0.0387  0.1966  0.4230
  137SAPE  H19S14902   2.168   5.955   8.965  0.5263  0.6801 -0.5004
  137SAPE  C22014903   1.986   5.939   8.840 -0.4673  0.1934 -0.5870
  137SAPE  H20R14904   1.997   6.008   8.753 -0.4348  1.0819  0.1143
  137SAPE  H20S14905   1.876   5.944   8.859 -0.4983 -0.0785 -0.6956
  137SAPE  H20T14906   2.009   5.835   8.809  1.1257  0.8054 -1.5932
  137SAPE   C3314907   1.146   5.704  10.588  0.6452  0.3455  0.1451
  137SAPE   H3X14908   1.255   5.723  10.571  0.4974  0.2263 -1.0267
  137SAPE   H3Y14909   1.113   5.810  10.598  0.4131  0.1531  1.7755
  137SAPE   C3414910   1.094   5.645  10.449 -0.1410  0.0948 -0.1129
  137SAPE   H4X14911   0.984   5.657  10.455 -0.2921 -0.6811 -1.0539
  137SAPE   H4Y14912   1.103   5.535  10.435 -0.6553 -0.0825  0.8823
  137SAPE   C3514913   1.141   5.720  10.321  0.1459 -0.1955  0.7275
  137SAPE   H5X14914   1.248   5.701  10.297  0.2158 -2.0371  2.3053
  137SAPE   H5Y14915   1.112   5.827  10.326 -0.2484 -0.2534 -0.1355
  137SAPE   C3614916   1.076   5.648  10.199  0.1610  0.1365  0.6154
  137SAPE   H6X14917   0.966   5.627  10.199  0.5919 -2.4978  0.3346
  137SAPE   H6Y14918   1.128   5.550  10.198  0.7112  0.4312 -0.3699
  137SAPE   C3714919   1.107   5.717  10.066  0.5484  0.1461  0.2095
  137SAPE   H7X14920   1.211   5.753  10.079  0.0677  1.1561  1.5945
  137SAPE   H7Y14921   1.037   5.802  10.050 -0.3009 -0.0667  2.4063
  137SAPE   C3814922   1.099   5.626   9.940  0.4532 -0.8191  0.8166
  137SAPE   H8X14923   1.000   5.577   9.931 -0.0079 -0.4944  3.3664
  137SAPE   H8Y14924   1.166   5.538   9.950  0.5662 -0.5596  2.5094
  137SAPE   C3914925   1.144   5.706   9.817  0.6370 -0.3348  0.4369
  137SAPE   H9X14926   1.254   5.713   9.828  0.8271 -1.1814 -0.7523
  137SAPE   H9Y14927   1.107   5.810   9.805  3.9973  1.0540  1.0858
  137SAPE  C31014928   1.110   5.635   9.684  0.2441 -0.3818 -0.3666
  137SAPE  H10X14929   0.999   5.630   9.679  0.2830 -0.6306 -1.1264
  137SAPE  H10Y14930   1.159   5.535   9.689  2.5795  0.6213 -1.4650
  137SAPE  C31114931   1.172   5.694   9.557  0.1208  0.6719  0.1242
  137SAPE  H11X14932   1.283   5.696   9.558  0.2718 -0.0608 -3.1802
  137SAPE  H11Y14933   1.130   5.797   9.556  2.3606  1.7548  3.0620
  137SAPE  C31214934   1.129   5.627   9.426  0.1304  0.0712  0.4360
  137SAPE  H12X14935   1.022   5.623   9.400  0.4005 -0.3050 -0.6560
  137SAPE  H12Y14936   1.174   5.526   9.418 -0.1357  0.0289 -0.5487
  137SAPE  C31314937   1.207   5.682   9.303  0.5721  0.3887 -0.2917
  137SAPE  H13X14938   1.178   5.614   9.220  0.1769 -2.2518  1.8811
  137SAPE  H13Y14939   1.316   5.669   9.319  0.5056  0.6535  0.4138
  137SAPE  C31414940   1.168   5.828   9.264 -0.1030 -0.0071  0.1109
  137SAPE  H14X14941   1.214   5.894   9.341  0.4031 -1.0094  0.7018
  137SAPE  H14Y14942   1.059   5.841   9.276 -0.1815 -0.3201 -0.2422
  137SAPE  C31514943   1.219   5.872   9.128  0.3144 -0.2315 -0.0751
  137SAPE  H15X14944   1.329   5.875   9.117  0.2217  0.0259 -1.0274
  137SAPE  H15Y14945   1.188   5.976   9.105 -0.2708 -0.5359 -0.6989
  137SAPE  C31614946   1.152   5.788   9.018 -0.4503 -0.2369  0.0738
  137SAPE  H16X14947   1.051   5.751   9.047 -0.3424 -1.2612 -0.7814
  137SAPE  H16Y14948   1.207   5.692   9.025 -0.2983 -0.0917  1.0545
  137SAPE  C31714949   1.160   5.847   8.878  0.5870 -0.8407  0.4314
  137SAPE  H17X14950   1.130   5.766   8.808  1.3249 -0.9173  0.1882
  137SAPE  H17Y14951   1.264   5.865   8.843 -0.6957 -0.8645 -3.9232
  137SAPE  C31814952   1.080   5.978   8.858 -0.3288  0.1599  0.4991
  137SAPE  H18X14953   0.972   5.967   8.883 -0.9612  2.5637 -0.7730
  137SAPE  H18Y14954   1.078   6.013   8.752 -1.1569 -1.4474 -0.0497
  137SAPE  H18Z14955   1.122   6.058   8.923 -0.5489 -0.9085  2.0020
  138SAPE     N14956   4.117   3.300  10.596 -0.6541 -0.2229 -0.9163
  138SAPE   HN114957   4.210   3.346  10.604 -0.8463  0.2788 -1.5446
  138SAPE   HN214958   4.060   3.338  10.675  2.0760  2.7240 -0.1255
  138SAPE   HN314959   4.141   3.199  10.606  2.3930  0.5969  1.8387
  138SAPE   C1214960   4.063   3.334  10.461 -0.3607  0.0467 -0.2000
  138SAPE  H12A14961   3.953   3.320  10.459 -0.2239 -1.0153 -2.0433
  138SAPE  H12B14962   4.120   3.279  10.383  1.8603  0.2535  1.1885
  138SAPE   C1114963   4.095   3.486  10.443 -0.1126  0.2188  0.3969
  138SAPE  H11A14964   4.059   3.519  10.343  2.5612  2.0945 -0.0403
  138SAPE  H11B14965   4.205   3.499  10.438 -0.1808  0.5007 -0.4508
  138SAPE     P14966   3.892   3.618  10.556  0.3313 -0.2583  0.3241
  138SAPE   O1314967   3.817   3.525  10.642 -0.1885  0.4375 -0.4235
  138SAPE   O1414968   3.892   3.764  10.590  0.4656 -0.0279  0.1243
  138SAPE   O1214969   4.040   3.562  10.562 -0.1474 -0.0355 -0.1605
  138SAPE   O1114970   3.846   3.586  10.407 -0.5657 -0.0677  0.3699
  138SAPE    C114971   3.800   3.688  10.326  0.1701 -0.8550 -0.0367
  138SAPE    HA14972   3.866   3.778  10.331  2.0469 -2.2294  2.6879
  138SAPE    HB14973   3.816   3.651  10.223  0.2912 -0.3481 -0.2044
  138SAPE    C214974   3.651   3.720  10.342  0.3861 -0.2715 -0.1850
  138SAPE    HS14975   3.639   3.733  10.452  1.7431 -2.6105  0.2993
  138SAPE   O2114976   3.572   3.602  10.305  0.0496 -0.1946  0.2863
  138SAPE   C2114977   3.456   3.589  10.354  0.1409 -0.4317  0.7198
  138SAPE   O2214978   3.404   3.665  10.428  0.7285 -0.1490 -0.7785
  138SAPE   C2214979   3.377   3.467  10.301  0.2243 -0.1074  0.1830
  138SAPE   H2R14980   3.449   3.407  10.240 -0.3174  0.2990 -0.8765
  138SAPE   H2S14981   3.336   3.407  10.385 -0.1491  0.6603  0.5578
  138SAPE    C314982   3.601   3.850  10.265  0.5633  0.4013 -0.6926
  138SAPE    HX14983   3.637   3.944  10.311  1.3139  0.3624 -1.1759
  138SAPE    HY14984   3.491   3.867  10.267  0.1170 -2.1627  0.7856
  138SAPE   O3114985   3.642   3.852  10.125  0.2282  0.5003  0.6368
  138SAPE   C3114986   3.576   3.773  10.044 -0.7515  0.6307 -0.3768
  138SAPE   O3214987   3.480   3.706  10.071 -0.3667 -0.1162 -0.8549
  138SAPE   C3214988   3.635   3.782   9.911 -0.8800  0.2046 -0.6577
  138SAPE   H2X14989   3.732   3.727   9.915 -1.1806 -0.2618  0.9816
  138SAPE   H2Y14990   3.641   3.890   9.889 -0.3388  0.7749  2.0099
  138SAPE   C2314991   3.255   3.517  10.218 -0.1892 -0.2305  0.6204
  138SAPE   H3R14992   3.289   3.583  10.136  2.6220 -0.0541  1.8434
  138SAPE   H3S14993   3.192   3.573  10.291 -1.6588 -0.5372 -0.3731
  138SAPE   C2414994   3.173   3.403  10.144 -0.6150  1.4182 -0.9188
  138SAPE   H4R14995   3.144   3.330  10.223 -2.3743  1.6933 -1.2649
  138SAPE   H4S14996   3.240   3.344  10.078  1.3578  0.4863  1.7466
  138SAPE   C2514997   3.045   3.454  10.089 -0.0670 -0.2967 -0.1485
  138SAPE   H5R14998   2.979   3.467  10.176 -0.0771  1.3825 -0.3762
  138SAPE   C2614999   3.020   3.500   9.968  0.1684 -0.6883 -0.3980
  138SAPE   H6R15000   2.917   3.533   9.946  0.4920 -0.9888 -2.6544
  138SAPE   C2715001   3.121   3.515   9.858  0.1615  0.6968 -0.4073
  138SAPE   H7R15002   3.198   3.435   9.872  0.3063  0.8216 -0.4921
  138SAPE   H7S15003   3.187   3.601   9.881  1.5766 -0.0349 -1.5208
  138SAPE   C2815004   3.063   3.523   9.716  0.8771 -0.3900 -0.2748
  138SAPE   H8R15005   2.958   3.553   9.704  0.3565 -2.0072 -0.0234
  138SAPE   C2915006   3.133   3.500   9.606 -0.6103  0.1652  0.0556
  138SAPE   H9R15007   3.079   3.513   9.511 -0.3300  3.3364  0.2100
  138SAPE  C21015008   3.277   3.450   9.584 -0.3801 -0.0735 -0.3204
  138SAPE  H10R15009   3.327   3.461   9.682 -0.7330  1.1682 -0.2559
  138SAPE  H10S15010   3.325   3.525   9.517  1.5874 -1.3155 -0.3476
  138SAPE  C21115011   3.265   3.314   9.533 -0.4193  0.1971  0.1814
  138SAPE  H11R15012   3.202   3.248   9.595 -2.4537  1.2366 -0.6914
  138SAPE  C21215013   3.326   3.274   9.416  0.1478  0.3629 -0.3796
  138SAPE  H12R15014   3.318   3.166   9.400 -1.7146  0.5062 -0.6366
  138SAPE  C21315015   3.414   3.358   9.324  0.0905 -0.0458 -0.8717
  138SAPE  H13R15016   3.466   3.440   9.377 -1.3672 -0.9043  2.0761
  138SAPE  H13S15017   3.342   3.407   9.254 -1.5912  1.3460  1.6850
  138SAPE  C21415018   3.511   3.266   9.251 -0.2989  0.1046  0.3587
  138SAPE  H14R15019   3.615   3.269   9.287  0.1132  2.0953 -0.8296
  138SAPE  C21515020   3.487   3.196   9.139 -0.5836  0.0893 -0.5326
  138SAPE  H15R15021   3.568   3.137   9.094  2.5746  0.3889  4.0500
  138SAPE  C21615022   3.365   3.182   9.060 -0.3048  0.4943 -0.2733
  138SAPE  H16R15023   3.388   3.199   8.953 -0.0870 -3.6920 -1.0854
  138SAPE  H16S15024   3.292   3.260   9.091 -0.8586 -0.0023 -0.2845
  138SAPE  C21715025   3.303   3.040   9.082  0.2063  0.3841  0.0884
  138SAPE  H17R15026   3.300   3.014   9.190  0.4505  2.3197  0.5909
  138SAPE  H17S15027   3.362   2.966   9.024  0.7044  1.9203 -1.4637
  138SAPE  C21815028   3.168   3.041   9.016  0.1387 -0.2337  0.2643
  138SAPE  H18R15029   3.183   3.065   8.908  2.6370 -1.3665  0.2801
  138SAPE  H18S15030   3.104   3.127   9.046 -0.6852 -0.9392  0.5911
  138SAPE  C21915031   3.080   2.916   9.047  0.4545  0.9242  0.4740
  138SAPE  H19R15032   3.117   2.820   9.005 -1.4592 -0.0070  0.7846
  138SAPE  H19S15033   2.978   2.945   9.013  0.4529  0.0727 -0.2676
  138SAPE  C22015034   3.069   2.876   9.196 -0.0617 -0.1971 -0.0897
  138SAPE  H20R15035   3.166   2.856   9.244  0.9781 -1.3768 -2.5217
  138SAPE  H20S15036   3.019   2.778   9.209  0.5035 -0.2991  1.4246
  138SAPE  H20T15037   3.013   2.949   9.260  0.2238  0.1346 -0.2147
  138SAPE   C3315038   3.535   3.729   9.799 -0.6353 -0.0491 -0.6437
  138SAPE   H3X15039   3.446   3.795   9.792 -0.7892 -0.2737 -0.8183
  138SAPE   H3Y15040   3.516   3.622   9.822 -2.6967  0.7159  1.6182
  138SAPE   C3415041   3.596   3.730   9.655 -0.4088  0.3154  0.2824
  138SAPE   H4X15042   3.530   3.676   9.583 -0.2112  2.0657 -1.3023
  138SAPE   H4Y15043   3.687   3.666   9.655  0.7626  1.9217 -0.5717
  138SAPE   C3515044   3.624   3.863   9.598 -0.0858 -0.2872 -0.5112
  138SAPE   H5X15045   3.699   3.919   9.657 -1.1765  0.8783 -0.1907
  138SAPE   H5Y15046   3.544   3.939   9.581  1.2643  0.7741 -2.5298
  138SAPE   C3615047   3.703   3.851   9.457 -0.8827 -0.0111 -0.0954
  138SAPE   H6X15048   3.780   3.772   9.470 -0.7065  0.6007  4.3660
  138SAPE   H6Y15049   3.749   3.948   9.429  1.2217 -0.6386  1.0359
  138SAPE   C3715050   3.610   3.813   9.345  0.6961 -0.1923 -0.4842
  138SAPE   H7X15051   3.524   3.883   9.344  1.3131  0.6075  0.1230
  138SAPE   H7Y15052   3.571   3.713   9.373 -0.0614  0.0253 -0.7654
  138SAPE   C3815053   3.685   3.809   9.211  0.7704  0.3776 -0.0361
  138SAPE   H8X15054   3.667   3.715   9.155  0.9152  0.6651 -0.5720
  138SAPE   H8Y15055   3.795   3.803   9.223  0.8457 -0.6560 -1.0753
  138SAPE   C3915056   3.637   3.916   9.111 -0.0738  0.3037  0.5409
  138SAPE   H9X15057   3.675   4.012   9.152 -1.2936  0.4560  1.3714
  138SAPE   H9Y15058   3.527   3.903   9.115 -0.1041  0.0985 -0.5873
  138SAPE  C31015059   3.684   3.892   8.970  0.0784 -0.1240 -0.4879
  138SAPE  H10X15060   3.624   3.815   8.917 -0.4148  0.3589 -0.6419
  138SAPE  H10Y15061   3.787   3.851   8.972  0.0617 -0.1640  0.9192
  138SAPE  C31115062   3.683   4.019   8.889 -0.4156 -0.4852 -0.0707
  138SAPE  H11X15063   3.726   3.992   8.791  0.1769 -0.1893  0.1024
  138SAPE  H11Y15064   3.746   4.095   8.940 -3.6162 -0.0519  3.7996
  138SAPE  C31215065   3.550   4.089   8.871 -0.0404 -0.5108 -0.1557
  138SAPE  H12X15066   3.495   4.065   8.964  0.0257 -2.1247 -0.4932
  138SAPE  H12Y15067   3.492   4.049   8.785  0.2739 -1.6227  0.1358
  138SAPE  C31315068   3.555   4.240   8.861 -0.4917  0.1778 -0.5029
  138SAPE  H13X15069   3.630   4.284   8.930 -0.4691 -2.7544  1.5676
  138SAPE  H13Y15070   3.452   4.276   8.881  0.3215  0.9041  2.9870
  138SAPE  C31415071   3.592   4.275   8.722  0.2074  0.1252 -0.3263
  138SAPE  H14X15072   3.513   4.236   8.654  0.5265 -2.9848  0.9250
  138SAPE  H14Y15073   3.685   4.221   8.694 -1.3083 -2.1225 -1.3866
  138SAPE  C31515074   3.622   4.426   8.685 -0.1250  0.3543  0.3703
  138SAPE  H15X15075   3.689   4.486   8.750 -0.0231 -0.7190  1.2868
  138SAPE  H15Y15076   3.529   4.478   8.715  0.6919  2.2713 -0.2589
  138SAPE  C31615077   3.663   4.437   8.537  0.7929  0.3612 -0.2865
  138SAPE  H16X15078   3.600   4.363   8.484 -1.3695 -0.2258  2.8520
  138SAPE  H16Y15079   3.771   4.410   8.536  0.1871 -2.2271 -0.6635
  138SAPE  C31715080   3.632   4.579   8.480 -0.7911 -0.8220  0.5762
  138SAPE  H17X15081   3.664   4.661   8.547 -1.1582  0.9776 -1.3695
  138SAPE  H17Y15082   3.521   4.583   8.478 -0.7447  1.3169 -1.1122
  138SAPE  C31815083   3.694   4.601   8.339 -0.3990 -0.3346 -0.0238
  138SAPE  H18X15084   3.688   4.507   8.280 -0.3698 -0.0897 -0.4262
  138SAPE  H18Y15085   3.804   4.612   8.343 -0.3281  0.0131 -1.8996
  138SAPE  H18Z15086   3.647   4.692   8.296 -0.9821 -0.6462 -0.0556
  139SAPE     N15087   1.418   3.736  10.867 -0.2366 -0.3300  0.2694
  139SAPE   HN115088   1.337   3.728  10.931  0.0973 -2.5737  0.4974
  139SAPE   HN215089   1.423   3.654  10.803 -0.4902  0.4866 -0.8280
  139SAPE   HN315090   1.509   3.719  10.912  0.1675 -2.5474 -1.2107
  139SAPE   C1215091   1.418   3.862  10.788 -0.0243 -0.7242  0.6160
  139SAPE  H12A15092   1.398   3.941  10.863  2.6963  0.1425  0.5182
  139SAPE  H12B15093   1.342   3.863  10.707  0.8710  0.2853 -0.2398
  139SAPE   C1115094   1.548   3.894  10.710 -0.8733  0.4732  0.1554
  139SAPE  H11A15095   1.549   3.994  10.662  2.3500  1.2920  1.6551
  139SAPE  H11B15096   1.552   3.823  10.624  0.9011  1.3644 -0.5553
  139SAPE     P15097   1.810   3.891  10.744 -0.1248 -0.3956 -0.0390
  139SAPE   O1315098   1.837   4.036  10.741 -0.5126 -0.0897  0.0746
  139SAPE   O1415099   1.898   3.803  10.821 -0.3013 -0.0449 -0.0581
  139SAPE   O1215100   1.659   3.868  10.798  0.1810 -0.1075  0.1294
  139SAPE   O1115101   1.802   3.849  10.595  0.3321  0.1127  0.3578
  139SAPE    C115102   1.800   3.719  10.538  0.3404  0.0426 -0.4309
  139SAPE    HA15103   1.834   3.639  10.607 -0.2477 -0.0015 -0.1867
  139SAPE    HB15104   1.694   3.701  10.513  0.3403  1.9872 -2.1383
  139SAPE    C215105   1.873   3.699  10.399  0.5897  0.0261  0.1057
  139SAPE    HS15106   1.983   3.700  10.412  0.5345 -2.1841  1.2294
  139SAPE   O2115107   1.825   3.806  10.315 -0.0999  0.4112 -0.1626
  139SAPE   C2115108   1.903   3.858  10.231 -0.4374 -0.4996  0.2326
  139SAPE   O2215109   2.025   3.830  10.217 -0.0901 -0.1405 -0.8034
  139SAPE   C2215110   1.819   3.949  10.141 -0.0460 -0.4315  0.2145
  139SAPE   H2R15111   1.729   3.905  10.092 -0.5918  0.0366  0.7761
  139SAPE   H2S15112   1.786   4.034  10.205  0.5735  0.1787 -0.2602
  139SAPE    C315113   1.830   3.559  10.336  0.4369 -0.2764 -0.2964
  139SAPE    HX15114   1.726   3.550  10.373 -0.4573 -0.1532 -2.6385
  139SAPE    HY15115   1.887   3.471  10.374 -0.3725 -0.3994  0.6935
  139SAPE   O3115116   1.821   3.548  10.193  0.2388  0.4012 -0.0989
  139SAPE   C3115117   1.735   3.452  10.147 -0.2261  0.2733  0.4265
  139SAPE   O3215118   1.689   3.366  10.217 -0.1306  0.9844 -0.1065
  139SAPE   C3215119   1.689   3.486  10.003  0.5408 -0.2825 -0.1545
  139SAPE   H2X15120   1.578   3.485  10.008  0.5668 -2.4275  1.3411
  139SAPE   H2Y15121   1.713   3.401   9.936 -1.4528 -0.4349 -0.7389
  139SAPE   C2315122   1.901   4.009  10.032  0.1001 -0.6387 -0.0066
  139SAPE   H3R15123   1.911   3.934   9.951  0.4893 -1.2322  0.5868
  139SAPE   H3S15124   2.000   4.043  10.069  0.2794  1.0374 -1.8625
  139SAPE   C2415125   1.834   4.130   9.965 -0.5458  0.5251 -0.3904
  139SAPE   H4R15126   1.731   4.097   9.940  0.1442 -1.1580 -1.1512
  139SAPE   H4S15127   1.898   4.143   9.875 -0.0873 -2.1443 -0.5541
  139SAPE   C2515128   1.837   4.257  10.049 -0.2716  0.1586  0.6349
  139SAPE   H5R15129   1.794   4.236  10.148  0.7996  1.1060  1.3206
  139SAPE   C2615130   1.888   4.377  10.028 -0.2151  0.1295  0.6465
  139SAPE   H6R15131   1.874   4.453  10.106 -0.6985  1.3802 -0.5892
  139SAPE   C2715132   1.960   4.442   9.910 -0.4795 -0.1199 -0.1657
  139SAPE   H7R15133   1.887   4.517   9.873 -0.8190 -0.2762  0.1815
  139SAPE   H7S15134   1.979   4.374   9.824  0.2045  0.2525 -0.3107
  139SAPE   C2815135   2.089   4.496   9.953 -0.4743 -0.1635 -0.3250
  139SAPE   H8R15136   2.088   4.527  10.058 -0.6391 -0.3191 -0.2797
  139SAPE   C2915137   2.206   4.510   9.882 -0.3705 -0.6802  0.2389
  139SAPE   H9R15138   2.291   4.554   9.935 -0.1028 -1.4986  0.5114
  139SAPE  C21015139   2.228   4.489   9.730 -0.0882 -0.0696 -0.4847
  139SAPE  H10R15140   2.325   4.531   9.698  1.0091 -1.1910  1.2381
  139SAPE  H10S15141   2.152   4.535   9.663 -2.1244 -1.9242  0.4205
  139SAPE  C21115142   2.235   4.343   9.697  0.0610  0.2532  0.1389
  139SAPE  H11R15143   2.187   4.274   9.768 -0.8802 -0.1761 -0.8910
  139SAPE  C21215144   2.287   4.291   9.583 -0.1057 -0.2274  0.5182
  139SAPE  H12R15145   2.282   4.182   9.574 -0.1904 -0.0567 -2.5360
  139SAPE  C21315146   2.350   4.375   9.479 -0.2289  0.1327 -0.4315
  139SAPE  H13R15147   2.450   4.402   9.519 -0.6038 -1.3202  1.6412
  139SAPE  H13S15148   2.302   4.474   9.463  0.0601  0.3535  0.0318
  139SAPE  C21415149   2.352   4.290   9.358  0.1177 -0.5411  0.0177
  139SAPE  H14R15150   2.250   4.255   9.333 -1.0177 -0.2262  3.5967
  139SAPE  C21515151   2.454   4.270   9.274  0.4935 -0.5403 -0.6736
  139SAPE  H15R15152   2.441   4.209   9.183 -1.2445 -1.2506  0.0060
  139SAPE  C21615153   2.591   4.340   9.290 -0.5563 -0.3883 -0.8004
  139SAPE  H16R15154   2.612   4.406   9.377  1.1009  0.6311 -1.9161
  139SAPE  H16S15155   2.600   4.401   9.197  0.8206 -1.0040 -1.1027
  139SAPE  C21715156   2.714   4.243   9.289  1.0894 -1.0585  0.3647
  139SAPE  H17R15157   2.725   4.207   9.184  1.8899 -0.1818  0.1305
  139SAPE  H17S15158   2.694   4.153   9.350 -1.0708 -1.4224 -0.8004
  139SAPE  C21815159   2.837   4.320   9.328  0.0725 -0.6180  0.3064
  139SAPE  H18R15160   2.830   4.355   9.434 -1.5004 -0.3126  0.1310
  139SAPE  H18S15161   2.853   4.405   9.258 -0.5149 -0.8505 -0.1193
  139SAPE  C21915162   2.953   4.223   9.316  0.0307 -0.8049 -0.1605
  139SAPE  H19R15163   2.971   4.187   9.213  0.7666  1.0491 -0.7329
  139SAPE  H19S15164   2.929   4.147   9.393 -2.7534  0.3497  0.2380
  139SAPE  C22015165   3.086   4.289   9.354  0.3480  0.0561 -0.2593
  139SAPE  H20R15166   3.090   4.303   9.464 -0.7882 -1.9226  0.0955
  139SAPE  H20S15167   3.119   4.379   9.300  0.5467  2.9255  4.1147
  139SAPE  H20T15168   3.164   4.212   9.337  1.6296  0.9755  1.2225
  139SAPE   C3315169   1.718   3.624   9.948 -0.3666  0.2959 -0.0335
  139SAPE   H3X15170   1.823   3.628   9.912 -0.5349 -2.5853 -1.0999
  139SAPE   H3Y15171   1.692   3.702  10.023 -2.9149  2.9840 -3.3606
  139SAPE   C3415172   1.634   3.657   9.824  0.1222  0.4835 -0.2336
  139SAPE   H4X15173   1.527   3.640   9.848 -0.2193  2.3864 -0.1900
  139SAPE   H4Y15174   1.670   3.580   9.752 -0.7358 -0.8295  0.7041
  139SAPE   C3515175   1.671   3.800   9.775  0.8161  0.0106  0.6241
  139SAPE   H5X15176   1.781   3.811   9.765  0.8257  0.6468  1.3858
  139SAPE   H5Y15177   1.632   3.873   9.849  1.6579 -0.3898  1.4836
  139SAPE   C3615178   1.609   3.844   9.639  0.3284  0.4270 -1.1090
  139SAPE   H6X15179   1.625   3.953   9.625  0.8392  0.7859  1.6816
  139SAPE   H6Y15180   1.501   3.819   9.641  0.6204 -0.8621 -0.7921
  139SAPE   C3715181   1.665   3.777   9.519 -0.3974  0.1024  0.3702
  139SAPE   H7X15182   1.649   3.667   9.529 -1.7116  0.4224  2.2941
  139SAPE   H7Y15183   1.770   3.813   9.516 -0.4871  0.6711  2.4556
  139SAPE   C3815184   1.591   3.833   9.395  0.5267  0.0542  0.0888
  139SAPE   H8X15185   1.601   3.944   9.391  0.3772  0.0455 -0.5982
  139SAPE   H8Y15186   1.484   3.803   9.400  0.0094  1.0908 -2.6415
  139SAPE   C3915187   1.657   3.775   9.269 -0.1184  0.3223 -0.6128
  139SAPE   H9X15188   1.618   3.674   9.244 -1.1855  0.5013  0.2406
  139SAPE   H9Y15189   1.768   3.781   9.277 -0.2825  1.9272  0.8929
  139SAPE  C31015190   1.608   3.858   9.140 -0.1546 -0.5313 -0.7491
  139SAPE  H10X15191   1.636   3.964   9.155  1.6746 -1.0933  0.1864
  139SAPE  H10Y15192   1.500   3.839   9.121 -0.3324  0.1114 -0.4033
  139SAPE  C31115193   1.681   3.815   9.015  0.1700  0.7492  0.4213
  139SAPE  H11X15194   1.788   3.791   9.029  0.2709  0.4016 -0.8379
  139SAPE  H11Y15195   1.673   3.893   8.936  0.5669  0.8493  0.4781
  139SAPE  C31215196   1.613   3.697   8.947  0.1989  0.7782  0.5140
  139SAPE  H12X15197   1.506   3.729   8.944  0.4163  1.4849 -0.0339
  139SAPE  H12Y15198   1.614   3.604   9.008 -0.4168  1.6538  1.9020
  139SAPE  C31315199   1.676   3.668   8.802 -0.1528 -0.8760 -0.0426
  139SAPE  H13X15200   1.765   3.605   8.821 -0.6996 -1.6917 -0.1536
  139SAPE  H13Y15201   1.695   3.770   8.763  1.0903 -0.0091  2.6219
  139SAPE  C31415202   1.571   3.607   8.702 -0.3550 -0.2063  0.0005
  139SAPE  H14X15203   1.485   3.675   8.682  1.1716  1.9095  0.2473
  139SAPE  H14Y15204   1.536   3.516   8.755  1.3767  0.6280  2.8314
  139SAPE  C31515205   1.641   3.591   8.561 -0.5934 -0.1896 -0.4961
  139SAPE  H15X15206   1.703   3.499   8.567  0.2867  0.4086 -0.1853
  139SAPE  H15Y15207   1.704   3.679   8.536 -0.9433  0.9296  2.1958
  139SAPE  C31615208   1.537   3.582   8.444 -0.8286 -0.1258 -0.6340
  139SAPE  H16X15209   1.472   3.494   8.459 -0.5878 -0.1304  0.4052
  139SAPE  H16Y15210   1.474   3.674   8.447  1.4081  1.5329 -1.3765
  139SAPE  C31715211   1.605   3.587   8.304 -0.2686  0.1588 -0.9150
  139SAPE  H17X15212   1.650   3.689   8.303 -1.7118  0.8746  0.9512
  139SAPE  H17Y15213   1.528   3.586   8.223  0.9228  1.5955 -2.1319
  139SAPE  C31815214   1.703   3.476   8.277  0.2106 -0.2550 -0.8494
  139SAPE  H18X15215   1.792   3.483   8.344  0.4672  2.2111 -1.3528
  139SAPE  H18Y15216   1.736   3.481   8.171  1.1971 -1.1597 -0.6085
  139SAPE  H18Z15217   1.656   3.376   8.290  0.1282 -0.2576 -1.1613
  140SAPE     N15218   4.303   0.821  10.619 -0.0531  0.0481  0.6782
  140SAPE   HN115219   4.354   0.852  10.533  1.6915 -3.1216  0.4108
  140SAPE   HN215220   4.347   0.729  10.636 -0.4926  0.2883  3.5813
  140SAPE   HN315221   4.209   0.796  10.583 -0.2281  0.5727  0.7577
  140SAPE   C1215222   4.295   0.927  10.732 -0.1441 -0.0233  0.0867
  140SAPE  H12A15223   4.286   0.868  10.826  3.6292 -0.6638  0.2009
  140SAPE  H12B15224   4.202   0.986  10.714 -0.1388 -0.7331 -2.8054
  140SAPE   C1115225   4.424   1.007  10.753  0.7685 -0.6059  0.3710
  140SAPE  H11A15226   4.418   1.075  10.841  1.6316 -2.0619  1.6277
  140SAPE  H11B15227   4.430   1.078  10.668  0.4188 -0.4578  0.4676
  140SAPE     P15228   4.607   0.913  10.899  0.1042  0.0258 -0.0883
  140SAPE   O1315229   4.605   1.050  10.963  1.2500  0.6906  0.3198
  140SAPE   O1415230   4.550   0.797  10.969 -0.0576  0.3235 -0.2244
  140SAPE   O1215231   4.536   0.923  10.758  0.0516 -0.0050 -0.0388
  140SAPE   O1115232   4.749   0.887  10.845 -0.0680  0.9982 -0.1322
  140SAPE    C115233   4.796   0.900  10.714 -0.2805 -0.1269 -0.6536
  140SAPE    HA15234   4.752   0.994  10.673 -1.6669 -0.4539  0.0383
  140SAPE    HB15235   4.907   0.911  10.721 -0.4649  0.8315  1.5806
  140SAPE    C215236   4.755   0.789  10.619  0.1192 -0.4289 -0.1668
  140SAPE    HS15237   4.668   0.732  10.660  1.8117 -1.9944  1.4511
  140SAPE   O2115238   4.861   0.694  10.613 -0.1902  0.5727 -0.0320
  140SAPE   C2115239   4.822   0.575  10.591  0.6413  0.0537  0.3879
  140SAPE   O2215240   4.710   0.529  10.616 -0.6428 -0.0688 -0.1738
  140SAPE   C2215241   4.940   0.483  10.551 -0.1298 -0.2818  0.0834
  140SAPE   H2R15242   4.992   0.524  10.463  1.4125  0.7984  1.4350
  140SAPE   H2S15243   5.009   0.487  10.638 -1.2396 -1.1674  1.0456
  140SAPE    C315244   4.711   0.849  10.479 -0.0195 -0.4833 -0.7811
  140SAPE    HX15245   4.788   0.925  10.457 -1.3581  1.2667  0.3260
  140SAPE    HY15246   4.620   0.912  10.478 -0.0414 -0.5130 -0.7062
  140SAPE   O3115247   4.708   0.754  10.373  0.3585  0.5017  1.0264
  140SAPE   C3115248   4.585   0.712  10.332  0.0085 -0.1944  0.2303
  140SAPE   O3215249   4.479   0.751  10.365  1.0899 -0.6136 -0.1718
  140SAPE   C3215250   4.608   0.604  10.233  0.8502  0.0819  0.4368
  140SAPE   H2X15251   4.653   0.530  10.303 -0.9378  0.0507  1.6390
  140SAPE   H2Y15252   4.673   0.641  10.151 -0.9876 -0.6865 -1.4862
  140SAPE   C2315253   4.893   0.336  10.533  0.0770  0.0110 -0.9323
  140SAPE   H3R15254   4.848   0.306  10.630  2.3404 -0.9752 -0.1084
  140SAPE   H3S15255   4.988   0.279  10.526  1.1533  1.5507  0.3130
  140SAPE   C2415256   4.802   0.303  10.405 -0.4287  0.4852  0.1997
  140SAPE   H4R15257   4.855   0.336  10.313  2.5918 -3.7256  0.1097
  140SAPE   H4S15258   4.717   0.374  10.402 -1.3818 -0.6319 -0.4076
  140SAPE   C2515259   4.737   0.167  10.387  0.0679  0.0883  0.0816
  140SAPE   H5R15260   4.699   0.113  10.476 -3.7744 -0.9955 -1.9839
  140SAPE   C2615261   4.750   0.090  10.276  1.3257  0.1322 -0.0059
  140SAPE   H6R15262   4.693  -0.003  10.275  2.4217 -0.5566 -0.7559
  140SAPE   C2715263   4.824   0.122  10.150  0.4733 -0.0270 -0.0588
  140SAPE   H7R15264   4.915   0.176  10.182 -0.2532  0.2890  1.5916
  140SAPE   H7S15265   4.765   0.198  10.095  3.0727  1.3359 -1.0900
  140SAPE   C2815266   4.866   0.002  10.076 -0.4681  0.5138  0.6636
  140SAPE   H8R15267   4.943  -0.066  10.114 -0.2709 -0.4408 -1.3521
  140SAPE   C2915268   4.816  -0.036   9.957  0.1095  0.7264 -1.0158
  140SAPE   H9R15269   4.862  -0.127   9.916 -0.5095 -0.7309  1.3455
  140SAPE  C21015270   4.700   0.034   9.889 -0.2195  1.2288 -0.0397
  140SAPE  H10R15271   4.650   0.099   9.964 -0.0252 -0.0100  1.2162
  140SAPE  H10S15272   4.633  -0.051   9.864  0.0961  0.3139  2.0165
  140SAPE  C21115273   4.766   0.116   9.776  0.4511 -0.0639  0.1048
  140SAPE  H11R15274   4.847   0.187   9.801 -0.1954  1.2564 -1.4613
  140SAPE  C21215275   4.730   0.112   9.647 -0.5252  0.2635  0.2666
  140SAPE  H12R15276   4.785   0.189   9.590 -0.8404  2.0162  2.2063
  140SAPE  C21315277   4.635   0.022   9.580  0.1311  0.3358  0.3385
  140SAPE  H13R15278   4.550   0.087   9.552  0.5218  0.4744 -0.5693
  140SAPE  H13S15279   4.590  -0.055   9.646 -0.2811 -2.1833 -2.6679
  140SAPE  C21415280   4.723  -0.047   9.475 -0.0780 -0.1330  0.5403
  140SAPE  H14R15281   4.817  -0.088   9.516  1.9950  3.5883 -0.0356
  140SAPE  C21515282   4.691  -0.081   9.347  0.4265  0.0630 -0.5960
  140SAPE  H15R15283   4.762  -0.131   9.280  1.1654  3.0544 -2.1934
  140SAPE  C21615284   4.559  -0.055   9.282 -0.1334 -1.0172  0.1362
  140SAPE  H16R15285   4.517   0.044   9.310 -0.9578 -0.9022 -1.4251
  140SAPE  H16S15286   4.480  -0.122   9.322 -1.5592  0.1084 -0.7220
  140SAPE  C21715287   4.543  -0.068   9.136 -0.3559  0.2463  0.6784
  140SAPE  H17R15288   4.433  -0.062   9.124 -0.0499  2.8814 -2.2768
  140SAPE  H17S15289   4.575  -0.169   9.102  0.7142  1.7736 -3.4788
  140SAPE  C21815290   4.623   0.027   9.051  0.5024  0.2270  0.0741
  140SAPE  H18R15291   4.732   0.024   9.069  0.3308 -1.4527  1.1118
  140SAPE  H18S15292   4.596   0.128   9.090 -0.8388  1.1074 -2.8458
  140SAPE  C21915293   4.593   0.042   8.896 -0.1567 -0.2634 -0.8462
  140SAPE  H19R15294   4.653  -0.042   8.854 -1.5159 -2.2185  0.8900
  140SAPE  H19S15295   4.632   0.141   8.864 -0.7855  0.8303  1.5287
  140SAPE  C22015296   4.449   0.021   8.851 -0.2731  1.0487 -0.2036
  140SAPE  H20R15297   4.431   0.041   8.743  0.4346 -2.2276 -1.0179
  140SAPE  H20S15298   4.373   0.073   8.914 -1.2552  0.0169 -0.4896
  140SAPE  H20T15299   4.425  -0.087   8.864 -1.6442  1.2416 -0.8610
  140SAPE   C3315300   4.477   0.542  10.179 -0.3080  0.6658  0.2610
  140SAPE   H3X15301   4.408   0.624  10.147 -0.8671  0.1624  0.1493
  140SAPE   H3Y15302   4.422   0.499  10.265  0.3446  0.7969  0.7530
  140SAPE   C3415303   4.500   0.438  10.070  0.3907  0.0544  0.3397
  140SAPE   H4X15304   4.571   0.367  10.118 -1.2533 -1.1362  1.0689
  140SAPE   H4Y15305   4.549   0.487   9.983 -1.1488  0.0676 -0.5506
  140SAPE   C3515306   4.366   0.365  10.027 -0.1601 -0.1883  0.4673
  140SAPE   H5X15307   4.291   0.441   9.996 -1.3680 -1.5087  0.0668
  140SAPE   H5Y15308   4.337   0.301  10.112  0.6527  1.0320  1.7064
  140SAPE   C3615309   4.395   0.289   9.894 -0.5851  0.9018 -0.4523
  140SAPE   H6X15310   4.483   0.222   9.894 -1.9412 -1.2056 -4.1121
  140SAPE   H6Y15311   4.422   0.365   9.817  0.4867  3.1326  1.9589
  140SAPE   C3715312   4.274   0.213   9.842  0.0913  0.6956 -0.2689
  140SAPE   H7X15313   4.185   0.279   9.835 -0.8996 -0.5541  0.1588
  140SAPE   H7Y15314   4.254   0.148   9.929  1.0760  2.8908  1.6969
  140SAPE   C3815315   4.303   0.143   9.706 -0.1829 -0.2015  0.1683
  140SAPE   H8X15316   4.226   0.062   9.708  0.0359 -0.4056  1.9494
  140SAPE   H8Y15317   4.404   0.099   9.703  0.7589  1.8914 -0.7349
  140SAPE   C3915318   4.277   0.230   9.591 -0.3903 -0.2952  0.2017
  140SAPE   H9X15319   4.361   0.298   9.567 -0.3131 -1.0108 -1.8072
  140SAPE   H9Y15320   4.190   0.297   9.611 -0.7364 -0.7859  0.3552
  140SAPE  C31015321   4.241   0.149   9.466 -0.7335  0.0844  0.0892
  140SAPE  H10X15322   4.147   0.094   9.488 -1.0947 -1.8280 -4.9304
  140SAPE  H10Y15323   4.312   0.067   9.444 -1.0562 -0.1366 -0.1282
  140SAPE  C31115324   4.219   0.221   9.336  0.0240 -0.5406  0.4249
  140SAPE  H11X15325   4.317   0.255   9.296 -1.2175  0.8403 -1.5887
  140SAPE  H11Y15326   4.171   0.316   9.368 -0.7791 -1.5229  2.2829
  140SAPE  C31215327   4.145   0.141   9.230  0.3119  0.3613 -0.3309
  140SAPE  H12X15328   4.042   0.107   9.252  0.6727 -0.1079  0.6698
  140SAPE  H12Y15329   4.205   0.055   9.192 -0.0688 -0.0577  0.0057
  140SAPE  C31315330   4.142   0.216   9.091 -0.2748  0.8015 -0.1024
  140SAPE  H13X15331   4.246   0.230   9.054  0.0057 -1.5190 -0.3400
  140SAPE  H13Y15332   4.088   0.313   9.079 -1.6195 -0.0929 -1.8445
  140SAPE  C31415333   4.076   0.122   8.981  0.1695 -0.9368  0.7588
  140SAPE  H14X15334   3.974   0.089   9.009 -0.1238 -0.8444 -0.1764
  140SAPE  H14Y15335   4.132   0.028   8.966  1.2918 -0.0908 -0.6188
  140SAPE  C31515336   4.067   0.188   8.849 -0.8860 -0.5504 -0.5548
  140SAPE  H15X15337   4.174   0.199   8.819 -0.7471  0.4475  0.2851
  140SAPE  H15Y15338   4.019   0.288   8.840  1.0025  0.4585  0.0291
  140SAPE  C31615339   3.986   0.096   8.749  0.1285  1.3173  0.4712
  140SAPE  H16X15340   3.890   0.087   8.802 -0.0999  0.3206 -0.0812
  140SAPE  H16Y15341   4.042  -0.000   8.750 -1.1701  0.5044  2.8693
  140SAPE  C31715342   3.970   0.155   8.610 -0.6484  0.2683 -0.1920
  140SAPE  H17X15343   3.916   0.250   8.628  0.8110  0.8956  1.1076
  140SAPE  H17Y15344   3.903   0.089   8.551 -1.1169  1.3311 -0.8635
  140SAPE  C31815345   4.104   0.191   8.536  1.0918 -0.1225 -0.0634
  140SAPE  H18X15346   4.156   0.272   8.592 -0.8534  0.5841  0.8347
  140SAPE  H18Y15347   4.089   0.219   8.430 -0.9073  4.1859  1.1073
  140SAPE  H18Z15348   4.162   0.097   8.547  0.8353 -0.3599 -0.7170
  141SAPE     N15349   0.654   0.089  11.043  0.3685 -0.0955 -0.4813
  141SAPE   HN115350   0.681   0.189  11.035  0.3565  0.1381  1.7246
  141SAPE   HN215351   0.740   0.034  11.063 -0.4657 -1.1284  0.4196
  141SAPE   HN315352   0.601   0.056  10.960  0.0998 -1.8060  0.3158
  141SAPE   C1215353   0.562   0.078  11.159 -0.6483  0.7571 -0.5714
  141SAPE  H12A15354   0.490   0.162  11.165  0.7703  1.9312  4.1498
  141SAPE  H12B15355   0.622   0.071  11.252 -1.3142 -1.4168 -0.2583
  141SAPE   C1115356   0.477  -0.050  11.154 -0.2693 -0.4567 -0.3348
  141SAPE  H11A15357   0.391  -0.033  11.085  0.3190  0.8010 -0.7761
  141SAPE  H11B15358   0.437  -0.073  11.255  1.3718  3.8839  1.5094
  141SAPE     P15359   0.497  -0.286  11.043 -0.2904  0.0254 -0.1142
  141SAPE   O1315360   0.598  -0.393  11.066  0.6896 -0.3710  0.6536
  141SAPE   O1415361   0.358  -0.318  11.076 -0.3438 -0.2608 -0.0110
  141SAPE   O1215362   0.544  -0.164  11.119 -0.3987 -0.0041  0.5025
  141SAPE   O1115363   0.505  -0.243  10.890  0.5708  0.1950 -0.2232
  141SAPE    C115364   0.393  -0.250  10.800 -0.2737 -0.7997 -0.7584
  141SAPE    HA15365   0.323  -0.333  10.825 -0.5557 -0.1825  0.5580
  141SAPE    HB15366   0.329  -0.160  10.808 -0.1758 -0.8839  1.8099
  141SAPE    C215367   0.446  -0.271  10.658 -0.3572 -0.6629 -0.2407
  141SAPE    HS15368   0.513  -0.359  10.668  0.0428 -0.4749 -1.1826
  141SAPE   O2115369   0.525  -0.155  10.611  0.1403 -0.0305 -0.1192
  141SAPE   C2115370   0.595  -0.179  10.500 -0.1289 -0.9847  0.2717
  141SAPE   O2215371   0.632  -0.286  10.459  0.4226  0.5989  0.3193
  141SAPE   C2215372   0.622  -0.047  10.422  0.6255  0.4584 -0.0040
  141SAPE   H2R15373   0.527   0.010  10.418 -1.0718 -2.1505  0.4337
  141SAPE   H2S15374   0.693   0.012  10.483  2.5630 -1.1851 -0.5364
  141SAPE    C315375   0.318  -0.298  10.569 -0.2016 -0.2397 -0.0419
  141SAPE    HX15376   0.252  -0.209  10.568 -0.9971 -0.8085  0.1979
  141SAPE    HY15377   0.267  -0.381  10.624 -0.3289 -1.0392 -1.3284
  141SAPE   O3115378   0.360  -0.321  10.434  0.3874 -0.4848  0.1259
  141SAPE   C3115379   0.386  -0.453  10.408 -0.3020  0.4921  0.2047
  141SAPE   O3215380   0.364  -0.540  10.492 -0.7330  0.1105 -0.0376
  141SAPE   C3215381   0.439  -0.471  10.264  0.0673  0.4774 -0.8196
  141SAPE   H2X15382   0.541  -0.509  10.282  0.1950  0.7849 -0.8906
  141SAPE   H2Y15383   0.446  -0.370  10.219  0.4881  0.4712 -0.7736
  141SAPE   C2315384   0.688  -0.068  10.285  0.7370  0.1603 -0.8951
  141SAPE   H3R15385   0.620  -0.114  10.210  0.8642 -1.0422 -0.2956
  141SAPE   H3S15386   0.774  -0.137  10.297 -0.2213 -0.6481  2.3928
  141SAPE   C2415387   0.727   0.064  10.216  0.4201  0.5089  0.1613
  141SAPE   H4R15388   0.637   0.126  10.195  1.3642  1.9541  0.2245
  141SAPE   H4S15389   0.764   0.028  10.118 -0.4758 -0.0995  0.0392
  141SAPE   C2515390   0.837   0.146  10.280  0.4153  0.2277 -0.6611
  141SAPE   H5R15391   0.841   0.144  10.390  0.6089  0.5441 -0.6629
  141SAPE   C2615392   0.913   0.232  10.213 -0.2485  0.6304  0.6230
  141SAPE   H6R15393   1.006   0.266  10.260  0.6738 -0.6674 -0.1815
  141SAPE   C2715394   0.913   0.254  10.065 -0.4651  0.2222  0.1808
  141SAPE   H7R15395   0.924   0.364  10.049  0.6795 -0.2544 -3.0915
  141SAPE   H7S15396   0.820   0.223  10.013 -0.9456  0.5416  0.8333
  141SAPE   C2815397   1.034   0.196   9.996  0.0849  0.5238 -0.3032
  141SAPE   H8R15398   1.119   0.163  10.058  1.1478  1.3233 -1.3041
  141SAPE   C2915399   1.054   0.179   9.859  0.4646 -0.0113 -0.8737
  141SAPE   H9R15400   1.150   0.137   9.826 -0.5340 -2.3450 -1.0151
  141SAPE  C21015401   0.954   0.220   9.748 -0.4236  0.3188 -0.8067
  141SAPE  H10R15402   1.016   0.265   9.667  1.2889 -3.2827 -1.6988
  141SAPE  H10S15403   0.879   0.287   9.796 -0.6941 -0.6920  0.2088
  141SAPE  C21115404   0.869   0.109   9.695  0.3639  0.2137  0.3324
  141SAPE  H11R15405   0.827   0.037   9.766  0.9172 -2.9667 -2.3372
  141SAPE  C21215406   0.845   0.080   9.565  0.1894 -0.6288  0.4514
  141SAPE  H12R15407   0.773  -0.000   9.547  0.2256 -0.3445 -1.0325
  141SAPE  C21315408   0.890   0.159   9.442 -0.0898 -0.2417 -0.2655
  141SAPE  H13R15409   0.949   0.252   9.460  1.7227 -1.1739 -1.1779
  141SAPE  H13S15410   0.799   0.196   9.390  0.1155  1.4911  0.5108
  141SAPE  C21415411   0.976   0.085   9.348 -0.3646 -0.3587 -0.7611
  141SAPE  H14R15412   1.076   0.070   9.391  1.5614  1.4731 -4.1900
  141SAPE  C21515413   0.962   0.044   9.220  0.1209 -0.0746 -0.2920
  141SAPE  H15R15414   1.051   0.001   9.172 -0.6969 -0.1954 -1.7779
  141SAPE  C21615415   0.833   0.061   9.147  0.1444 -0.1965  0.0602
  141SAPE  H16R15416   0.826   0.156   9.089 -1.0673  0.6570  1.5195
  141SAPE  H16S15417   0.743   0.066   9.212  0.7081 -2.7025  1.1248
  141SAPE  C21715418   0.800  -0.041   9.033  0.4992  0.1915 -0.4423
  141SAPE  H17R15419   0.770  -0.137   9.081 -0.5109  0.9807  0.5334
  141SAPE  H17S15420   0.893  -0.061   8.974 -0.4063  0.4112 -1.9922
  141SAPE  C21815421   0.688  -0.002   8.936  0.1009  0.1714 -0.0373
  141SAPE  H18R15422   0.726   0.081   8.871  1.7371 -1.1156 -0.7960
  141SAPE  H18S15423   0.607   0.043   8.996 -1.0185 -0.1321 -1.2762
  141SAPE  C21915424   0.636  -0.128   8.866 -0.0437 -0.3073  0.8516
  141SAPE  H19R15425   0.543  -0.103   8.811 -0.8090 -1.0020  1.7902
  141SAPE  H19S15426   0.603  -0.200   8.944 -0.6463 -1.2772 -0.2620
  141SAPE  C22015427   0.739  -0.214   8.792  0.0455 -0.5034 -0.1805
  141SAPE  H20R15428   0.787  -0.160   8.708 -1.8742  0.6312 -0.6046
  141SAPE  H20S15429   0.683  -0.305   8.763  0.3817 -0.2982 -1.5107
  141SAPE  H20T15430   0.817  -0.245   8.865 -2.6606 -3.6569  1.6373
  141SAPE   C3315431   0.358  -0.559  10.172 -0.3760  0.5988 -0.3042
  141SAPE   H3X15432   0.327  -0.648  10.230 -1.9161  0.1358 -1.7505
  141SAPE   H3Y15433   0.429  -0.588  10.092  1.9934 -0.5388  2.0971
  141SAPE   C3415434   0.233  -0.491  10.104  0.1222  0.0241  0.6416
  141SAPE   H4X15435   0.279  -0.411  10.042 -0.2401 -0.0959  0.2124
  141SAPE   H4Y15436   0.161  -0.454  10.180 -0.2295 -1.9865  1.3544
  141SAPE   C3515437   0.155  -0.581  10.007  0.3541  0.1269  0.5567
  141SAPE   H5X15438   0.105  -0.669  10.053  0.8197 -1.4563 -1.7805
  141SAPE   H5Y15439   0.231  -0.631   9.943 -0.5724 -1.0734  0.3597
  141SAPE   C3615440   0.041  -0.520   9.927  0.3736  0.6857  0.0391
  141SAPE   H6X15441  -0.027  -0.464   9.995 -0.2433 -1.2107  1.0317
  141SAPE   H6Y15442  -0.018  -0.593   9.868  0.2058  1.2644 -0.5246
  141SAPE   C3715443   0.085  -0.419   9.820 -0.3221 -0.3025 -0.7894
  141SAPE   H7X15444   0.132  -0.333   9.871 -1.0441 -0.0054 -0.6191
  141SAPE   H7Y15445   0.004  -0.385   9.752 -0.2143 -2.5684 -2.1615
  141SAPE   C3815446   0.187  -0.480   9.723 -0.1101  0.0392 -0.0894
  141SAPE   H8X15447   0.135  -0.559   9.664  0.1168 -0.3723  0.2510
  141SAPE   H8Y15448   0.275  -0.520   9.778  1.6130  2.5126 -0.9029
  141SAPE   C3915449   0.228  -0.378   9.619 -0.1659 -0.0990  0.3701
  141SAPE   H9X15450   0.270  -0.431   9.530 -2.6485 -0.2675 -0.7788
  141SAPE   H9Y15451   0.307  -0.310   9.658 -2.1064  3.4013 -1.3444
  141SAPE  C31015452   0.127  -0.282   9.562 -0.1610  0.3739 -0.0681
  141SAPE  H10X15453   0.182  -0.198   9.515  0.1612 -0.6331 -1.5746
  141SAPE  H10Y15454   0.068  -0.224   9.636  0.4396  0.4434  0.3675
  141SAPE  C31115455   0.041  -0.363   9.459 -0.0628 -0.0926 -0.3814
  141SAPE  H11X15456  -0.049  -0.410   9.506  0.8250 -1.5245 -0.0459
  141SAPE  H11Y15457   0.105  -0.446   9.422  0.6591 -0.1218  0.8683
  141SAPE  C31215458  -0.013  -0.281   9.335 -0.2508 -0.3367 -0.7385
  141SAPE  H12X15459  -0.099  -0.337   9.292 -0.6988 -0.7446  0.6317
  141SAPE  H12Y15460   0.067  -0.259   9.261  1.1682 -0.7579  0.6206
  141SAPE  C31315461  -0.081  -0.144   9.385  0.2936  0.1542 -0.4619
  141SAPE  H13X15462  -0.014  -0.089   9.455 -1.5740  1.2169  0.5560
  141SAPE  H13Y15463  -0.168  -0.173   9.447 -0.1861  2.5491  0.0836
  141SAPE  C31415464  -0.133  -0.059   9.272 -0.1517 -0.3812 -0.4245
  141SAPE  H14X15465  -0.214   0.005   9.315  0.4472  0.4186 -0.4603
  141SAPE  H14Y15466  -0.170  -0.125   9.192 -3.6089 -1.4082  1.8030
  141SAPE  C31515467  -0.024   0.040   9.221 -0.4548  0.7374 -0.2655
  141SAPE  H15X15468   0.066  -0.007   9.176  1.0424  0.6573  2.6176
  141SAPE  H15Y15469   0.010   0.095   9.311  0.1441 -2.0622  1.3355
  141SAPE  C31615470  -0.083   0.136   9.121 -0.4076 -0.1415 -0.2704
  141SAPE  H16X15471  -0.181   0.172   9.161 -0.8915 -1.9243  0.2652
  141SAPE  H16Y15472  -0.092   0.104   9.015  1.1850  0.2068 -0.5356
  141SAPE  C31715473   0.002   0.267   9.116  0.9085  0.0359  0.3922
  141SAPE  H17X15474   0.108   0.249   9.089  0.2045  0.6448 -3.2649
  141SAPE  H17Y15475  -0.006   0.314   9.217  1.0377  2.2401 -0.5618
  141SAPE  C31815476  -0.046   0.371   9.022  0.1960 -0.1631  0.6087
  141SAPE  H18X15477  -0.026   0.339   8.918 -2.0621  2.2181 -0.6676
  141SAPE  H18Y15478   0.017   0.462   9.035  0.9482 -0.2763 -1.7948
  141SAPE  H18Z15479  -0.154   0.396   9.024 -0.3612 -0.7657 -5.2055
  142SAPE     N15480   0.289   5.969  11.450 -0.0416 -0.2601 -0.1417
  142SAPE   HN115481   0.298   6.062  11.404 -1.3417  1.2115  2.3797
  142SAPE   HN215482   0.271   5.896  11.378  0.0031 -0.7118  0.2991
  142SAPE   HN315483   0.204   5.991  11.507  1.3337  0.8733  1.6018
  142SAPE   C1215484   0.417   5.956  11.525  0.6316  0.3627  0.0494
  142SAPE  H12A15485   0.403   5.897  11.618 -0.3172  1.0361  0.3480
  142SAPE  H12B15486   0.450   6.060  11.548  2.5614  0.1593 -1.5596
  142SAPE   C1115487   0.523   5.888  11.436  0.8878  0.6303  0.1657
  142SAPE  H11A15488   0.522   5.780  11.464  3.8578  1.0978  2.5905
  142SAPE  H11B15489   0.626   5.917  11.467  1.5411 -2.4171  1.1704
  142SAPE     P15490   0.613   5.937  11.187  0.1089  0.2751 -0.1055
  142SAPE   O1315491   0.600   6.078  11.146  0.0742  0.0202  0.0419
  142SAPE   O1415492   0.746   5.899  11.240 -0.3647 -0.6561 -0.9297
  142SAPE   O1215493   0.494   5.901  11.293 -0.5273  0.1065 -0.7060
  142SAPE   O1115494   0.578   5.849  11.063 -0.3341  0.3042 -0.1923
  142SAPE    C115495   0.595   5.711  11.052 -0.3821  0.4170  0.1799
  142SAPE    HA15496   0.626   5.670  11.151  0.8714  1.3493  0.2098
  142SAPE    HB15497   0.498   5.662  11.030  0.7675 -0.8833 -2.4224
  142SAPE    C215498   0.708   5.672  10.950  0.4799  0.6780  0.1415
  142SAPE    HS15499   0.807   5.696  10.996  0.9916  0.3422 -0.7500
  142SAPE   O2115500   0.674   5.749  10.835 -0.2203  0.2537 -0.1775
  142SAPE   C2115501   0.766   5.803  10.777 -0.5405 -0.3306  0.0722
  142SAPE   O2215502   0.885   5.811  10.800 -0.0785  0.1686  0.4223
  142SAPE   C2215503   0.690   5.894  10.676 -0.5978  0.3509 -0.1855
  142SAPE   H2R15504   0.625   5.839  10.605  1.7664  0.1483 -2.3171
  142SAPE   H2S15505   0.624   5.964  10.732 -0.4816  0.7570 -0.5517
  142SAPE    C315506   0.709   5.519  10.921 -0.0716  0.4390  0.0620
  142SAPE    HX15507   0.610   5.472  10.904  1.3876 -2.7700 -0.2438
  142SAPE    HY15508   0.749   5.476  11.015 -1.4177  2.7290  1.8047
  142SAPE   O3115509   0.804   5.486  10.813  0.0167 -0.3794  0.6665
  142SAPE   C3115510   0.801   5.359  10.783 -0.5564 -0.0633  0.2850
  142SAPE   O3215511   0.747   5.274  10.853 -0.3559  0.6219 -0.4454
  142SAPE   C3215512   0.891   5.337  10.665 -0.5962  0.6253  0.2055
  142SAPE   H2X15513   0.986   5.299  10.707  0.0413 -0.6782 -2.2409
  142SAPE   H2Y15514   0.909   5.434  10.615  2.3201  0.4354  0.7407
  142SAPE   C2315515   0.792   5.993  10.606 -0.0323 -0.0851 -0.2386
  142SAPE   H3R15516   0.859   5.932  10.542  0.0052 -1.0260  0.6717
  142SAPE   H3S15517   0.854   6.041  10.684 -1.9122  2.2280 -0.0571
  142SAPE   C2415518   0.705   6.096  10.536 -0.6372 -0.1202  0.1331
  142SAPE   H4R15519   0.774   6.176  10.501  0.1196 -1.2491 -1.0435
  142SAPE   H4S15520   0.642   6.142  10.615 -1.0147  2.9791 -1.7747
  142SAPE   C2515521   0.620   6.036  10.429  0.5392 -0.4946 -0.2449
  142SAPE   H5R15522   0.514   6.038  10.455  0.2147 -0.8739 -1.4480
  142SAPE   C2615523   0.646   5.993  10.307 -0.7022  0.3495  0.4058
  142SAPE   H6R15524   0.564   5.961  10.242  0.5469  1.0228 -1.5787
  142SAPE   C2715525   0.783   6.000  10.240  0.5256 -0.1526 -0.3898
  142SAPE   H7R15526   0.776   5.924  10.159 -0.6543  0.5753 -0.9920
  142SAPE   H7S15527   0.863   5.972  10.312  1.1974 -1.7545 -1.6957
  142SAPE   C2815528   0.809   6.144  10.195  0.9594  0.1007 -0.5246
  142SAPE   H8R15529   0.779   6.222  10.267  4.0390  1.3092 -0.3957
  142SAPE   C2915530   0.837   6.188  10.072 -0.3170 -0.1411 -1.1335
  142SAPE   H9R15531   0.869   6.293  10.061  1.5719 -0.6671 -1.0911
  142SAPE  C21015532   0.871   6.108   9.949  0.5269  0.4266  0.0690
  142SAPE  H10R15533   0.894   6.006   9.986 -0.6738 -1.4304 -3.7656
  142SAPE  H10S15534   0.967   6.141   9.904 -0.6697 -0.4682 -3.4479
  142SAPE  C21115535   0.753   6.117   9.859 -0.1339  0.3136  0.3539
  142SAPE  H11R15536   0.648   6.129   9.891 -0.1511  0.7638  0.1443
  142SAPE  C21215537   0.763   6.101   9.725 -0.7145  0.5330 -0.2316
  142SAPE  H12R15538   0.672   6.106   9.663 -1.9959  0.5470  1.5695
  142SAPE  C21315539   0.895   6.072   9.650 -0.6481  0.8549 -0.3211
  142SAPE  H13R15540   0.967   6.026   9.721 -2.0660  1.5748  1.6728
  142SAPE  H13S15541   0.936   6.173   9.627  1.3687  0.1271 -0.1335
  142SAPE  C21415542   0.897   5.996   9.512  1.0662 -0.1693 -0.2266
  142SAPE  H14R15543   0.914   5.888   9.514  0.3721 -0.3279 -1.7456
  142SAPE  C21515544   0.871   6.052   9.393  0.1255 -0.1724  0.7754
  142SAPE  H15R15545   0.867   5.992   9.301  1.9976 -0.7992  1.0680
  142SAPE  C21615546   0.851   6.197   9.364  0.7421  0.5655  0.0280
  142SAPE  H16R15547   0.881   6.255   9.454  1.6398 -0.0290  0.1189
  142SAPE  H16S15548   0.741   6.205   9.351  0.4320 -1.8401  0.6299
  142SAPE  C21715549   0.929   6.243   9.244 -0.1689  0.0158  0.6526
  142SAPE  H17R15550   1.032   6.201   9.246  0.0578  0.2626 -1.9092
  142SAPE  H17S15551   0.936   6.353   9.249 -0.6562  0.0508  0.6671
  142SAPE  C21815552   0.862   6.208   9.108 -0.6620 -0.4160  0.5774
  142SAPE  H18R15553   0.828   6.102   9.096  2.5017 -1.4682  0.0667
  142SAPE  H18S15554   0.942   6.228   9.035  0.3879 -0.5104  1.6720
  142SAPE  C21915555   0.736   6.298   9.085  0.2800  0.6391  0.3416
  142SAPE  H19R15556   0.772   6.391   9.036 -1.3508 -0.1195 -2.4870
  142SAPE  H19S15557   0.677   6.316   9.177  1.8593  1.4083  1.2439
  142SAPE  C22015558   0.642   6.229   8.983 -0.1082 -0.2595  0.0215
  142SAPE  H20R15559   0.696   6.190   8.894 -0.6725 -1.4187  0.1702
  142SAPE  H20S15560   0.562   6.296   8.945  2.0758  2.2644 -0.4383
  142SAPE  H20T15561   0.589   6.148   9.036  0.6339  0.1311  1.4131
  142SAPE   C3315562   0.819   5.249  10.561  0.7306 -0.4787  0.2903
  142SAPE   H3X15563   0.735   5.312  10.526  1.2488 -0.9620 -2.0017
  142SAPE   H3Y15564   0.782   5.161  10.617 -2.7051  1.6138  1.6357
  142SAPE   C3415565   0.910   5.215  10.434  0.1789 -0.7100  0.1911
  142SAPE   H4X15566   1.005   5.168  10.468 -0.4401 -2.3738 -0.3048
  142SAPE   H4Y15567   0.942   5.304  10.376 -1.0491 -0.7481 -0.5839
  142SAPE   C3515568   0.845   5.123  10.333  0.3639 -0.1877  0.1880
  142SAPE   H5X15569   0.749   5.165  10.298 -0.3075 -1.0747  0.9018
  142SAPE   H5Y15570   0.820   5.037  10.399 -0.3973  0.2021  0.4194
  142SAPE   C3615571   0.918   5.095  10.211 -0.6096  0.0017 -0.2520
  142SAPE   H6X15572   0.857   5.011  10.173  0.0827 -0.1476 -1.0632
  142SAPE   H6Y15573   1.022   5.060  10.230 -1.0314 -0.0610  2.3399
  142SAPE   C3715574   0.918   5.211  10.110  0.3149  0.1596  0.3625
  142SAPE   H7X15575   1.007   5.278  10.120  0.0741  0.5453  0.0100
  142SAPE   H7Y15576   0.833   5.275  10.144  1.2032 -0.3552  3.9626
  142SAPE   C3815577   0.893   5.159   9.966  0.7332 -0.5814  0.3722
  142SAPE   H8X15578   0.789   5.122   9.970  0.5564  0.0040  1.8736
  142SAPE   H8Y15579   0.960   5.075   9.940  0.5471 -0.9709  1.1216
  142SAPE   C3915580   0.920   5.267   9.857  0.6493  0.2254 -0.8894
  142SAPE   H9X15581   1.030   5.281   9.868  0.5739  0.5181 -0.5092
  142SAPE   H9Y15582   0.868   5.363   9.878 -1.0965 -0.1739 -3.0340
  142SAPE  C31015583   0.892   5.222   9.724  0.4661  0.8741 -0.3420
  142SAPE  H10X15584   0.783   5.211   9.707  0.9964 -1.8815 -2.9425
  142SAPE  H10Y15585   0.939   5.121   9.711  0.2356  0.3010  2.6672
  142SAPE  C31115586   0.926   5.309   9.608 -0.7584 -0.7985  0.4554
  142SAPE  H11X15587   1.029   5.311   9.567 -1.1501 -0.1420 -0.5297
  142SAPE  H11Y15588   0.898   5.410   9.645 -0.9161 -1.7162  3.0166
  142SAPE  C31215589   0.832   5.272   9.486  0.0037  0.4083 -0.2908
  142SAPE  H12X15590   0.726   5.271   9.519 -0.2541  1.0750 -1.0557
  142SAPE  H12Y15591   0.846   5.166   9.456 -1.1223  0.1702  0.0008
  142SAPE  C31315592   0.846   5.356   9.366 -0.6589 -0.0915  0.4220
  142SAPE  H13X15593   0.866   5.460   9.399  1.9756 -0.0077 -1.1157
  142SAPE  H13Y15594   0.747   5.362   9.315 -1.2528 -1.9038  1.3189
  142SAPE  C31415595   0.955   5.313   9.267  0.3953 -1.0917 -0.3346
  142SAPE  H14X15596   0.948   5.205   9.242 -0.4627 -0.7886 -1.4797
  142SAPE  H14Y15597   1.057   5.331   9.307  0.2713  2.9244 -1.4581
  142SAPE  C31515598   0.944   5.389   9.134  0.5641 -0.2933 -0.3611
  142SAPE  H15X15599   1.032   5.360   9.073  1.1973 -1.1285  0.8933
  142SAPE  H15Y15600   0.949   5.498   9.154 -1.5454 -0.1346 -0.3761
  142SAPE  C31615601   0.822   5.355   9.048  0.2987 -0.2925  0.7663
  142SAPE  H16X15602   0.730   5.389   9.100  0.4696  0.2193  0.7434
  142SAPE  H16Y15603   0.824   5.245   9.032  0.7705 -0.2101  0.1956
  142SAPE  C31715604   0.839   5.406   8.904  0.5011  1.2795 -0.1230
  142SAPE  H17X15605   0.929   5.350   8.871 -1.0922  0.0246 -2.6667
  142SAPE  H17Y15606   0.857   5.515   8.896  0.8795  1.1862 -0.5960
  142SAPE  C31815607   0.718   5.360   8.817 -0.4662  0.1938  0.0318
  142SAPE  H18X15608   0.714   5.250   8.803  3.7979 -0.0081 -0.9799
  142SAPE  H18Y15609   0.739   5.410   8.720  1.8415 -0.3452  0.1945
  142SAPE  H18Z15610   0.623   5.397   8.861 -0.9386 -0.3681 -0.4946
  143SAPE     N15611   1.464   1.153  10.849  0.4624 -0.6655  0.1694
  143SAPE   HN115612   1.535   1.077  10.844  1.1740  0.0656 -1.4303
  143SAPE   HN215613   1.521   1.240  10.847  0.5536 -0.7290 -1.5923
  143SAPE   HN315614   1.406   1.147  10.936 -0.1943 -4.1565 -0.3499
  143SAPE   C1215615   1.370   1.144  10.737 -0.3666 -0.1138  0.5932
  143SAPE  H12A15616   1.424   1.125  10.642 -0.2596 -0.3985  0.7117
  143SAPE  H12B15617   1.316   1.240  10.724 -1.3856 -0.7798 -0.2666
  143SAPE   C1115618   1.273   1.028  10.747 -0.3027 -0.0507 -0.4020
  143SAPE  H11A15619   1.309   0.924  10.730 -2.7914 -0.8407 -1.3241
  143SAPE  H11B15620   1.196   1.021  10.667  2.8289 -2.1618 -3.5673
  143SAPE     P15621   1.086   1.133  10.907  0.1184  0.2424 -0.1848
  143SAPE   O1315622   0.993   1.072  11.005  0.5027  0.1915  0.1602
  143SAPE   O1415623   1.146   1.258  10.947 -0.2677 -0.0997  0.0081
  143SAPE   O1215624   1.203   1.028  10.877 -0.5836  0.2309  0.1727
  143SAPE   O1115625   1.001   1.139  10.769 -0.2403  0.1981 -0.5827
  143SAPE    C115626   0.884   1.050  10.754  0.6272  0.0889 -0.2038
  143SAPE    HA15627   0.898   0.959  10.817  0.8805  0.0784 -0.2753
  143SAPE    HB15628   0.791   1.105  10.780 -0.9819 -1.6339 -1.9886
  143SAPE    C215629   0.867   0.991  10.606  0.6074 -0.1142 -0.1465
  143SAPE    HS15630   0.921   0.894  10.602 -0.2497 -0.5612 -1.3810
  143SAPE   O2115631   0.902   1.085  10.503  0.0188  0.2464  0.2199
  143SAPE   C2115632   0.993   1.037  10.412  0.5355 -0.0395 -0.2955
  143SAPE   O2215633   1.036   0.922  10.405 -0.0198  0.3811  0.0552
  143SAPE   C2215634   1.045   1.151  10.321 -0.7438 -0.4958  0.1923
  143SAPE   H2R15635   1.026   1.248  10.373 -1.9918 -1.5597  1.7988
  143SAPE   H2S15636   1.156   1.155  10.321 -0.7652  2.0530  1.3977
  143SAPE    C315637   0.715   0.967  10.577 -0.4254 -0.5990  0.1571
  143SAPE    HX15638   0.664   1.065  10.590  0.3013 -0.0089 -1.1684
  143SAPE    HY15639   0.677   0.903  10.659 -0.4368 -0.6056  0.1465
  143SAPE   O3115640   0.679   0.911  10.445  0.0522  0.2360  0.2006
  143SAPE   C3115641   0.594   0.977  10.370  0.6846 -0.0314  0.1599
  143SAPE   O3215642   0.531   1.076  10.405  0.0750  0.6590 -0.1649
  143SAPE   C3215643   0.568   0.907  10.238 -0.1646  0.2352 -0.0279
  143SAPE   H2X15644   0.591   0.799  10.252 -3.5922 -1.2316 -3.7796
  143SAPE   H2Y15645   0.649   0.949  10.174 -1.5152  0.3361 -1.7603
  143SAPE   C2315646   0.982   1.166  10.178  0.4512  0.0188  0.2328
  143SAPE   H3R15647   1.020   1.078  10.122  1.1962  0.8576 -0.6362
  143SAPE   H3S15648   1.022   1.258  10.128  0.9921 -0.8143 -0.9135
  143SAPE   C2415649   0.821   1.157  10.184 -0.1133 -0.3694  0.2265
  143SAPE   H4R15650   0.787   1.068  10.241 -0.8087 -0.2844 -0.0416
  143SAPE   H4S15651   0.785   1.136  10.081  1.5301 -1.7400 -0.1094
  143SAPE   C2515652   0.760   1.283  10.237  0.3141 -0.2674 -0.6103
  143SAPE   H5R15653   0.758   1.287  10.347  2.2892 -0.4343 -0.5338
  143SAPE   C2615654   0.707   1.383  10.168 -0.7195  0.9263  0.4223
  143SAPE   H6R15655   0.685   1.475  10.225 -0.0259  1.4799 -0.1664
  143SAPE   C2715656   0.709   1.392  10.015  0.4207  0.2834 -0.1530
  143SAPE   H7R15657   0.606   1.369   9.980 -0.6162 -0.1137  2.8649
  143SAPE   H7S15658   0.777   1.318   9.968  2.4164  0.4637  2.2556
  143SAPE   C2815659   0.752   1.532   9.975 -0.1210  0.0745 -0.4619
  143SAPE   H8R15660   0.857   1.556   9.999  0.4396 -0.4229 -2.2166
  143SAPE   C2915661   0.677   1.622   9.918  0.5846  0.1128 -0.1661
  143SAPE   H9R15662   0.730   1.708   9.874 -0.7401  0.1171 -1.8384
  143SAPE  C21015663   0.528   1.607   9.890 -0.1651  0.0277  0.2526
  143SAPE  H10R15664   0.457   1.601   9.975 -0.0630  0.9960  0.4191
  143SAPE  H10S15665   0.514   1.509   9.840 -0.3764 -0.2214  0.7882
  143SAPE  C21115666   0.480   1.716   9.799  0.4093  0.3040 -0.3791
  143SAPE  H11R15667   0.433   1.790   9.865  0.6141 -0.1494  0.2753
  143SAPE  C21215668   0.472   1.713   9.668  0.2484 -0.3190 -0.1929
  143SAPE  H12R15669   0.426   1.802   9.624  0.1319 -0.9515 -1.3802
  143SAPE  C21315670   0.525   1.608   9.574 -0.8471 -0.0388 -0.5460
  143SAPE  H13R15671   0.597   1.546   9.632 -0.0314 -0.2051 -1.7111
  143SAPE  H13S15672   0.574   1.652   9.485  1.4836 -1.4005 -0.0274
  143SAPE  C21415673   0.417   1.511   9.533 -0.2358 -0.3600  0.4959
  143SAPE  H14R15674   0.394   1.432   9.607  0.5920 -0.1394  0.9950
  143SAPE  C21515675   0.339   1.523   9.425 -0.1810  0.6446 -0.9653
  143SAPE  H15R15676   0.260   1.447   9.417  1.3802 -1.4630  1.5352
  143SAPE  C21615677   0.354   1.631   9.318  0.7652  0.2411 -0.6582
  143SAPE  H16R15678   0.396   1.730   9.347  1.4981  0.8335 -3.4143
  143SAPE  H16S15679   0.252   1.646   9.276  0.8165 -1.5780 -1.5321
  143SAPE  C21715680   0.448   1.588   9.215 -1.0374  0.8329  0.0801
  143SAPE  H17R15681   0.418   1.491   9.169  0.2794  1.2349 -1.7586
  143SAPE  H17S15682   0.552   1.585   9.253 -0.3458 -1.1983 -1.7210
  143SAPE  C21815683   0.466   1.683   9.095  0.7201  0.8845  0.3731
  143SAPE  H18R15684   0.517   1.778   9.120  0.6031  1.5627 -1.7434
  143SAPE  H18S15685   0.361   1.714   9.075 -0.0684 -0.2229  2.4562
  143SAPE  C21915686   0.524   1.617   8.972 -0.1422 -0.1711  0.1883
  143SAPE  H19R15687   0.470   1.527   8.934  0.6671 -1.2356  1.4853
  143SAPE  H19S15688   0.620   1.575   9.008 -1.0371 -0.8321  1.9111
  143SAPE  C22015689   0.541   1.708   8.850  0.2109 -0.2788  0.8065
  143SAPE  H20R15690   0.626   1.779   8.848  1.1582 -1.3990 -1.2277
  143SAPE  H20S15691   0.449   1.767   8.831  1.4814  1.1641 -1.2250
  143SAPE  H20T15692   0.551   1.649   8.757 -0.2831  2.9200 -1.4387
  143SAPE   C3315693   0.425   0.921  10.173 -0.7778  0.1898  0.2533
  143SAPE   H3X15694   0.404   1.027  10.147 -1.8846 -0.2016 -0.5296
  143SAPE   H3Y15695   0.344   0.887  10.240 -1.2122 -1.3378 -0.9949
  143SAPE   C3415696   0.398   0.836  10.043  0.2665 -0.3432 -0.6775
  143SAPE   H4X15697   0.291   0.846  10.015  0.0968 -2.2747 -0.8580
  143SAPE   H4Y15698   0.407   0.727  10.062  0.9303 -0.1636  0.0857
  143SAPE   C3515699   0.504   0.864   9.935  0.2036  0.3645  0.4030
  143SAPE   H5X15700   0.493   0.787   9.856  1.7476  1.5316 -1.0162
  143SAPE   H5Y15701   0.601   0.838   9.983 -0.5203  0.3286  1.9179
  143SAPE   C3615702   0.517   1.009   9.887  0.2543 -0.1136 -0.4878
  143SAPE   H6X15703   0.511   1.074   9.977 -0.4675 -0.1951 -0.4681
  143SAPE   H6Y15704   0.435   1.039   9.819  1.1735 -2.4394 -2.7657
  143SAPE   C3715705   0.646   1.032   9.813 -0.9396  0.1455 -0.6395
  143SAPE   H7X15706   0.646   0.951   9.737  0.2313  0.6176 -1.1725
  143SAPE   H7Y15707   0.731   1.008   9.880  0.5054  1.6611 -1.8303
  143SAPE   C3815708   0.658   1.173   9.746  0.0972 -0.0443 -0.7589
  143SAPE   H8X15709   0.766   1.194   9.733  0.1392  0.0380 -0.3060
  143SAPE   H8Y15710   0.621   1.251   9.816  1.7133  0.9698 -1.0087
  143SAPE   C3915711   0.611   1.181   9.602  0.8535 -0.3738 -0.4654
  143SAPE   H9X15712   0.626   1.289   9.581  4.7763 -0.8372 -0.8987
  143SAPE   H9Y15713   0.506   1.149   9.589  0.6504  0.0037  0.1597
  143SAPE  C31015714   0.695   1.103   9.506  0.9346 -0.1202  0.4782
  143SAPE  H10X15715   0.660   0.997   9.503 -1.6663  0.6544 -2.6189
  143SAPE  H10Y15716   0.804   1.100   9.526  0.7809  1.3260  1.7385
  143SAPE  C31115717   0.672   1.154   9.362  0.2563  0.4602 -0.3767
  143SAPE  H11X15718   0.676   1.264   9.355 -3.4179  0.7809  0.5521
  143SAPE  H11Y15719   0.572   1.123   9.326 -0.2335 -0.4408  1.6190
  143SAPE  C31215720   0.780   1.109   9.261  0.1178 -0.1876  0.1845
  143SAPE  H12X15721   0.879   1.155   9.280 -0.6934  1.4254  0.7161
  143SAPE  H12Y15722   0.749   1.158   9.166  1.2882  0.6630  0.2195
  143SAPE  C31315723   0.794   0.958   9.237  0.4035 -1.2206 -0.8320
  143SAPE  H13X15724   0.695   0.917   9.208 -0.5804 -0.5193  1.3286
  143SAPE  H13Y15725   0.832   0.918   9.333 -0.6165 -3.6258 -1.3646
  143SAPE  C31415726   0.890   0.918   9.132  0.2922  0.8901  0.3204
  143SAPE  H14X15727   0.996   0.946   9.149  0.1733  0.9729  0.9102
  143SAPE  H14Y15728   0.840   0.980   9.055  1.2044  1.3247  0.0708
  143SAPE  C31515729   0.894   0.774   9.083 -0.4406 -0.8493 -0.4735
  143SAPE  H15X15730   0.966   0.769   8.998  1.5102 -0.2078  1.0596
  143SAPE  H15Y15731   0.788   0.765   9.053 -0.7928  1.4374 -0.1228
  143SAPE  C31615732   0.939   0.673   9.188  0.1252 -0.5962  0.0810
  143SAPE  H16X15733   0.873   0.685   9.277  0.2379 -1.1888  0.2480
  143SAPE  H16Y15734   1.043   0.710   9.204  0.8849 -1.4223 -2.4286
  143SAPE  C31715735   0.942   0.522   9.146 -0.2499  0.5420  0.2090
  143SAPE  H17X15736   0.995   0.470   9.229  0.2455  0.5956 -0.0735
  143SAPE  H17Y15737   1.009   0.510   9.059 -0.1835  1.3737  0.1374
  143SAPE  C31815738   0.800   0.458   9.121  0.6389  0.0172  0.2659
  143SAPE  H18X15739   0.802   0.348   9.106  0.1977  0.0644 -0.1663
  143SAPE  H18Y15740   0.758   0.511   9.033 -1.5703  1.2604  1.9782
  143SAPE  H18Z15741   0.742   0.474   9.214  0.0093 -3.0173  0.5103
  144SAPE     N15742   5.846   5.562  10.982 -0.2221  0.2370  0.0025
  144SAPE   HN115743   5.926   5.628  10.970  0.0170 -0.3963 -2.6977
  144SAPE   HN215744   5.805   5.580  11.075  2.1716 -0.4291  1.2547
  144SAPE   HN315745   5.890   5.469  10.985 -1.2372 -0.2470  0.4273
  144SAPE   C1215746   5.757   5.567  10.862 -0.4739 -0.1436  0.0911
  144SAPE  H12A15747   5.675   5.492  10.865 -0.8889 -0.1137 -3.9379
  144SAPE  H12B15748   5.817   5.554  10.769 -2.9193 -2.1726 -1.3692
  144SAPE   C1115749   5.698   5.712  10.871  0.5647 -0.2461  0.2475
  144SAPE  H11A15750   5.638   5.737  10.781 -0.6200 -0.8843  0.8400
  144SAPE  H11B15751   5.771   5.795  10.860  0.3027  0.2861  2.1993
  144SAPE     P15752   5.520   5.846  11.001  0.2351  0.4783 -0.2234
  144SAPE   O1315753   5.467   5.861  11.138  0.0752  0.0339  0.4366
  144SAPE   O1415754   5.584   5.963  10.936 -0.3504  0.5402  0.2602
  144SAPE   O1215755   5.617   5.724  10.992  0.2344 -0.3680 -0.1153
  144SAPE   O1115756   5.393   5.808  10.917 -0.0584  0.6931  0.7400
  144SAPE    C115757   5.336   5.687  10.933  0.4865  0.6723 -0.0539
  144SAPE    HA15758   5.390   5.614  10.998 -1.4363 -0.4057  0.4004
  144SAPE    HB15759   5.231   5.702  10.965  0.6904  2.6005 -0.1757
  144SAPE    C215760   5.332   5.619  10.791  0.3688 -0.0615 -0.5977
  144SAPE    HS15761   5.439   5.617  10.763  0.4749 -1.2762 -0.1766
  144SAPE   O2115762   5.263   5.704  10.698  0.3755 -0.1908  0.4861
  144SAPE   C2115763   5.303   5.681  10.574  0.4419  0.1273 -0.1677
  144SAPE   O2215764   5.402   5.623  10.536 -0.1738  0.2041  0.0401
  144SAPE   C2215765   5.185   5.719  10.486 -0.2916 -0.2966 -0.4086
  144SAPE   H2R15766   5.199   5.660  10.392 -1.8548 -1.1396 -0.1531
  144SAPE   H2S15767   5.103   5.685  10.553  0.0686  1.5733  1.0643
  144SAPE    C315768   5.271   5.477  10.787 -0.5380 -0.8147 -0.1670
  144SAPE    HX15769   5.164   5.483  10.816 -0.3968 -1.9988  0.6834
  144SAPE    HY15770   5.322   5.421  10.869  3.1238  1.3100 -0.7799
  144SAPE   O3115771   5.286   5.403  10.661  0.5984 -0.3351 -0.1229
  144SAPE   C3115772   5.392   5.338  10.631  0.2171  0.0377  0.2087
  144SAPE   O3215773   5.500   5.341  10.693  0.2192 -0.0400  0.2863
  144SAPE   C3215774   5.360   5.251  10.513  0.4046 -0.0411  0.9440
  144SAPE   H2X15775   5.280   5.297  10.451  0.7281 -0.3106  0.3186
  144SAPE   H2Y15776   5.310   5.166  10.564  0.5601 -0.8973 -0.2855
  144SAPE   C2315777   5.167   5.870  10.469  0.2768  0.1438  0.1861
  144SAPE   H3R15778   5.163   5.925  10.565 -0.4942 -0.9732  0.8241
  144SAPE   H3S15779   5.065   5.887  10.429  0.6674  2.0820 -0.0852
  144SAPE   C2415780   5.266   5.941  10.366  0.1027 -0.1206 -0.2592
  144SAPE   H4R15781   5.292   5.874  10.281  1.8168  0.2659 -0.0725
  144SAPE   H4S15782   5.349   5.978  10.429 -1.3244  0.9725  1.0623
  144SAPE   C2515783   5.193   6.065  10.315  0.2614  0.0178 -0.4288
  144SAPE   H5R15784   5.192   6.140  10.395 -1.0185 -1.7274  1.2784
  144SAPE   C2615785   5.135   6.086  10.199  0.5421 -0.5127 -0.2720
  144SAPE   H6R15786   5.091   6.186  10.186 -1.4385 -1.4358 -1.0557
  144SAPE   C2715787   5.136   5.988  10.084  0.1591  0.6825  0.1623
  144SAPE   H7R15788   5.108   5.889  10.126 -0.0690  1.0581  0.9144
  144SAPE   H7S15789   5.239   5.981  10.043  0.1848  0.0447  0.3250
  144SAPE   C2815790   5.043   6.026   9.968  0.2483 -0.2843 -1.2626
  144SAPE   H8R15791   4.948   6.066  10.006  1.0197  0.1313  0.2818
  144SAPE   C2915792   5.061   6.034   9.837 -0.3747  0.5174 -0.5147
  144SAPE   H9R15793   4.984   6.098   9.793 -1.8072  1.0443  2.4888
  144SAPE  C21015794   5.180   5.996   9.757 -0.7773 -0.0613 -0.4140
  144SAPE  H10R15795   5.171   5.889   9.727  1.0680 -1.0551  2.1945
  144SAPE  H10S15796   5.271   5.996   9.821 -0.6367 -0.6610 -0.6081
  144SAPE  C21115797   5.187   6.086   9.636  0.0066 -0.2626 -0.4290
  144SAPE  H11R15798   5.258   6.168   9.655  1.5488 -1.6163 -0.1488
  144SAPE  C21215799   5.128   6.076   9.513  0.0981 -0.3238 -0.5289
  144SAPE  H12R15800   5.135   6.158   9.440 -0.6756  0.2780  0.0627
  144SAPE  C21315801   5.044   5.957   9.472  0.3078  0.1199 -0.0379
  144SAPE  H13R15802   4.946   5.986   9.429 -0.0175 -0.9453 -0.0449
  144SAPE  H13S15803   5.005   5.889   9.551 -3.3670  0.8815 -1.0020
  144SAPE  C21415804   5.124   5.861   9.392  0.3405 -0.1643 -0.5192
  144SAPE  H14R15805   5.206   5.809   9.443  0.2835  0.1892 -0.0612
  144SAPE  C21515806   5.100   5.829   9.263  0.8757  0.6360 -0.4527
  144SAPE  H15R15807   5.163   5.753   9.215  2.2244 -0.1684  2.4198
  144SAPE  C21615808   4.996   5.902   9.179  0.0717  0.7004 -0.0690
  144SAPE  H16R15809   4.993   6.008   9.210  0.6682  0.2000  1.8540
  144SAPE  H16S15810   4.891   5.866   9.180  0.3229 -0.6153 -3.8324
  144SAPE  C21715811   5.048   5.898   9.033  0.0323  0.0967 -0.0458
  144SAPE  H17R15812   5.045   5.794   8.995  2.3555 -0.3083  0.7171
  144SAPE  H17S15813   5.159   5.912   9.034  0.1258 -0.5367  1.3541
  144SAPE  C21815814   4.982   6.007   8.948 -0.3675  0.6584  0.2128
  144SAPE  H18R15815   5.049   6.096   8.950  0.9115 -0.2778  1.1951
  144SAPE  H18S15816   4.880   6.025   8.987 -1.0876  3.2615 -2.4920
  144SAPE  C21915817   4.970   5.961   8.797 -0.2970 -0.1932 -0.9978
  144SAPE  H19R15818   5.071   5.930   8.762  0.2757  0.7239 -0.2345
  144SAPE  H19S15819   4.953   6.047   8.728 -2.6041 -0.9884 -1.5090
  144SAPE  C22015820   4.866   5.849   8.765 -0.4442 -0.2673  0.2634
  144SAPE  H20R15821   4.763   5.880   8.795  0.1933  1.6559  0.6090
  144SAPE  H20S15822   4.887   5.756   8.823  2.1258  0.3895  0.4977
  144SAPE  H20T15823   4.879   5.838   8.655 -0.6282  0.8215  0.1205
  144SAPE   C3315824   5.488   5.212  10.426  0.1451 -0.2755  0.6036
  144SAPE   H3X15825   5.521   5.108  10.450  0.2233 -0.0322  1.5724
  144SAPE   H3Y15826   5.569   5.280  10.462  0.3839 -0.8040  1.0769
  144SAPE   C3415827   5.461   5.241  10.270  0.0256  0.5841 -0.8285
  144SAPE   H4X15828   5.415   5.342  10.265  0.8927  0.9521 -1.8047
  144SAPE   H4Y15829   5.390   5.160  10.244  0.6429 -0.0853 -0.4803
  144SAPE   C3515830   5.586   5.235  10.182  0.4291  0.0728  0.0335
  144SAPE   H5X15831   5.632   5.135  10.201 -2.9443 -2.0785 -2.0366
  144SAPE   H5Y15832   5.659   5.317  10.200  0.2686  0.4174 -0.8534
  144SAPE   C3615833   5.536   5.245  10.037 -0.2733 -0.2688 -0.3408
  144SAPE   H6X15834   5.480   5.341  10.023  0.9445  0.3502 -1.0995
  144SAPE   H6Y15835   5.470   5.156  10.026  0.5014 -1.0247  0.8780
  144SAPE   C3715836   5.653   5.232   9.933  0.5303 -0.2812 -0.1862
  144SAPE   H7X15837   5.714   5.140   9.946 -0.1820 -1.3087 -3.2451
  144SAPE   H7Y15838   5.726   5.316   9.940  0.6734 -0.4722  0.6102
  144SAPE   C3815839   5.591   5.222   9.798  0.0118  0.3582  0.5519
  144SAPE   H8X15840   5.507   5.293   9.783  0.7516  1.0033 -0.7320
  144SAPE   H8Y15841   5.551   5.118   9.790 -0.5776  0.6687 -0.9358
  144SAPE   C3915842   5.685   5.240   9.681  0.5761 -0.6958  0.8390
  144SAPE   H9X15843   5.760   5.158   9.670  1.5043  0.0319  1.5527
  144SAPE   H9Y15844   5.748   5.332   9.684  1.1093 -0.9940 -0.3537
  144SAPE  C31015845   5.602   5.239   9.552  0.1888  0.2578 -0.3413
  144SAPE  H10X15846   5.564   5.343   9.548 -0.3676  0.0368 -1.8456
  144SAPE  H10Y15847   5.522   5.163   9.537  0.3334 -0.0337  0.3244
  144SAPE  C31115848   5.683   5.219   9.423  0.1620 -0.1684 -0.7639
  144SAPE  H11X15849   5.728   5.118   9.432 -1.0550 -0.7098 -0.4741
  144SAPE  H11Y15850   5.759   5.298   9.411  0.1898  0.2435  1.6845
  144SAPE  C31215851   5.595   5.216   9.301  0.1842 -0.1963  0.4888
  144SAPE  H12X15852   5.508   5.279   9.332  0.1595 -1.5646  3.5462
  144SAPE  H12Y15853   5.550   5.115   9.300  0.0034 -0.2019  2.8726
  144SAPE  C31315854   5.662   5.255   9.170 -0.6421 -0.1645 -0.1404
  144SAPE  H13X15855   5.760   5.202   9.173  0.7716  2.3390  0.7523
  144SAPE  H13Y15856   5.696   5.360   9.177 -1.6629  0.2021 -0.4841
  144SAPE  C31415857   5.593   5.218   9.036 -0.2101 -0.5071 -0.5970
  144SAPE  H14X15858   5.500   5.278   9.023  0.1357  0.4201  0.9195
  144SAPE  H14Y15859   5.564   5.113   9.015  1.4518 -1.3468  1.0533
  144SAPE  C31515860   5.681   5.266   8.919 -0.0468  0.1976  0.7386
  144SAPE  H15X15861   5.773   5.207   8.896 -1.8358 -1.6629 -2.3421
  144SAPE  H15Y15862   5.714   5.370   8.935  2.5207 -0.0255 -2.1825
  144SAPE  C31615863   5.610   5.272   8.778  0.4422 -0.1049  0.3899
  144SAPE  H16X15864   5.510   5.316   8.801  0.3118 -0.7580  1.1275
  144SAPE  H16Y15865   5.583   5.169   8.747 -0.8737 -1.1233  4.3318
  144SAPE  C31715866   5.685   5.342   8.667  0.3722  0.4029 -0.0196
  144SAPE  H17X15867   5.770   5.274   8.645 -1.1473 -1.9627  0.9586
  144SAPE  H17Y15868   5.725   5.435   8.712  0.1207  0.3246  0.3672
  144SAPE  C31815869   5.594   5.366   8.549 -0.6393 -0.1485  0.3617
  144SAPE  H18X15870   5.525   5.284   8.520  0.9438 -0.0097 -4.6904
  144SAPE  H18Y15871   5.658   5.375   8.459 -0.5007 -3.3709  0.0030
  144SAPE  H18Z15872   5.533   5.458   8.554 -1.1591 -0.5426  1.9291
  145SAPE     N15873   2.575   5.676  11.243  0.2704  0.1966  0.1673
  145SAPE   HN115874   2.575   5.584  11.293 -0.5620  1.5836  2.9035
  145SAPE   HN215875   2.635   5.750  11.284 -0.8736  0.7646  0.8551
  145SAPE   HN315876   2.481   5.717  11.258 -0.6002 -0.8432 -2.0578
  145SAPE   C1215877   2.602   5.655  11.098 -0.5753  0.0974  0.5403
  145SAPE  H12A15878   2.578   5.549  11.074  2.2967 -0.8470  1.4256
  145SAPE  H12B15879   2.712   5.660  11.087 -0.4611  1.4258  2.0416
  145SAPE   C1115880   2.529   5.767  11.013 -0.4299  0.5943 -0.4808
  145SAPE  H11A15881   2.566   5.759  10.909  1.4466  0.0299  0.1907
  145SAPE  H11B15882   2.578   5.856  11.058 -0.1020  0.7637 -1.1709
  145SAPE     P15883   2.309   5.895  10.966  0.1850  0.0688  0.1112
  145SAPE   O1315884   2.170   5.863  10.922  0.1956 -0.3492 -0.2976
  145SAPE   O1415885   2.342   5.998  11.071 -0.1628 -0.1502  0.6677
  145SAPE   O1215886   2.383   5.762  11.020 -0.5665 -0.0527 -0.0732
  145SAPE   O1115887   2.391   5.920  10.834  0.0963  0.0213 -0.1105
  145SAPE    C115888   2.483   6.015  10.797 -0.0331  0.6145 -0.2639
  145SAPE    HA15889   2.493   6.092  10.877 -0.1958  0.5006 -0.1349
  145SAPE    HB15890   2.579   5.960  10.794  0.1071  0.8255  0.1961
  145SAPE    C215891   2.447   6.089  10.661  0.2071 -0.0889 -0.4655
  145SAPE    HS15892   2.354   6.146  10.685  0.0895 -1.3864  2.6278
  145SAPE   O2115893   2.417   5.997  10.555 -0.3454 -0.0019  0.0160
  145SAPE   C2115894   2.334   6.029  10.458  0.3244  0.5832  0.0020
  145SAPE   O2215895   2.268   6.129  10.446  0.2529 -0.9745  0.5222
  145SAPE   C2215896   2.334   5.905  10.350 -0.0929 -0.6709 -0.2854
  145SAPE   H2R15897   2.425   5.843  10.367  0.4148  0.5020  1.5751
  145SAPE   H2S15898   2.247   5.842  10.378 -1.4300  0.3847 -1.8541
  145SAPE    C315899   2.561   6.182  10.618 -0.1828 -0.3483 -0.2992
  145SAPE    HX15900   2.636   6.110  10.581 -2.6377 -2.3525 -1.6962
  145SAPE    HY15901   2.600   6.242  10.703  0.5205  0.6038 -1.2634
  145SAPE   O3115902   2.533   6.261  10.507 -0.3634  0.2811  0.1569
  145SAPE   C3115903   2.453   6.369  10.533 -0.2704 -0.1018 -0.3222
  145SAPE   O3215904   2.409   6.402  10.642  0.3318  0.0568 -0.0994
  145SAPE   C3215905   2.431   6.461  10.409  0.6675 -0.4123 -0.2203
  145SAPE   H2X15906   2.422   6.567  10.441 -0.3155 -0.6701  0.4041
  145SAPE   H2Y15907   2.331   6.436  10.368 -0.1727  2.7417 -0.3737
  145SAPE   C2315908   2.313   5.950  10.199  1.0409 -0.3124 -0.5669
  145SAPE   H3R15909   2.218   6.006  10.209  2.1483  1.4526  0.5665
  145SAPE   H3S15910   2.290   5.864  10.132 -2.1979  0.3448 -0.4686
  145SAPE   C2415911   2.431   6.039  10.151  0.4923  0.5597  0.1947
  145SAPE   H4R15912   2.518   5.973  10.132 -0.3801 -0.5636 -0.0346
  145SAPE   H4S15913   2.454   6.106  10.236  0.1394 -0.4422  1.1151
  145SAPE   C2515914   2.395   6.117  10.027 -1.0314  0.3362 -0.6434
  145SAPE   H5R15915   2.375   6.224  10.041 -1.2901 -0.1038  4.0032
  145SAPE   C2615916   2.388   6.082   9.899 -0.5436  0.5487 -0.5866
  145SAPE   H6R15917   2.361   6.163   9.830  1.0081  2.6061  1.0479
  145SAPE   C2715918   2.412   5.942   9.840 -0.0233  0.1086  0.1567
  145SAPE   H7R15919   2.451   5.871   9.916  0.0886 -0.9091 -0.8143
  145SAPE   H7S15920   2.496   5.934   9.768  0.8770 -0.2123  1.2103
  145SAPE   C2815921   2.288   5.890   9.765  0.0081 -0.0256  0.0790
  145SAPE   H8R15922   2.190   5.872   9.812 -0.7133  1.5585 -0.7397
  145SAPE   C2915923   2.272   5.882   9.630  0.2625 -0.8569  0.5410
  145SAPE   H9R15924   2.175   5.849   9.591  0.5267  0.0613 -0.9827
  145SAPE  C21015925   2.372   5.938   9.525 -0.3442 -0.1042 -0.5752
  145SAPE  H10R15926   2.417   6.033   9.562  0.7104 -0.8884  0.2052
  145SAPE  H10S15927   2.330   5.969   9.427 -0.8095  2.5476  0.3652
  145SAPE  C21115928   2.481   5.834   9.512 -0.0823  0.3048  0.2982
  145SAPE  H11R15929   2.540   5.809   9.601 -2.1813  1.9304  2.2837
  145SAPE  C21215930   2.519   5.769   9.399  0.3106  0.7370 -0.2700
  145SAPE  H12R15931   2.587   5.682   9.406 -1.1966 -0.4223  0.5554
  145SAPE  C21315932   2.457   5.782   9.260  0.0373  0.1661 -0.2344
  145SAPE  H13R15933   2.482   5.884   9.222 -0.7681  0.9528  1.2659
  145SAPE  H13S15934   2.347   5.776   9.274 -0.7887  1.0637 -4.7271
  145SAPE  C21415935   2.520   5.681   9.160 -0.0202  0.6183 -0.1774
  145SAPE  H14R15936   2.537   5.581   9.202  2.2876  0.5006 -1.2530
  145SAPE  C21515937   2.563   5.699   9.030  0.2503 -0.3822  0.1247
  145SAPE  H15R15938   2.604   5.610   8.981  2.8002 -0.1102  1.5743
  145SAPE  C21615939   2.554   5.822   8.947  0.4905 -0.1580 -0.4182
  145SAPE  H16R15940   2.652   5.875   8.944  0.1948  0.4347  0.0684
  145SAPE  H16S15941   2.480   5.894   8.988 -0.7826 -1.3220 -0.5970
  145SAPE  C21715942   2.513   5.791   8.802 -0.3959 -0.7095 -0.3047
  145SAPE  H17R15943   2.598   5.741   8.752  1.2919  2.0042 -0.3240
  145SAPE  H17S15944   2.505   5.889   8.750  2.3708 -0.7821 -0.9995
  145SAPE  C21815945   2.383   5.709   8.777 -0.1112 -0.9425 -0.1271
  145SAPE  H18R15946   2.302   5.782   8.792 -0.6926 -1.0999 -2.1645
  145SAPE  H18S15947   2.369   5.625   8.848 -1.1811 -0.4236  0.2900
  145SAPE  C21915948   2.375   5.662   8.637  0.8842  0.2500 -0.0854
  145SAPE  H19R15949   2.471   5.610   8.618  0.3467 -0.5340 -0.6872
  145SAPE  H19S15950   2.368   5.748   8.566  1.0964  1.1921  0.9944
  145SAPE  C22015951   2.255   5.567   8.616 -0.3468  0.3760 -0.0401
  145SAPE  H20R15952   2.270   5.478   8.681 -1.9495 -1.3859 -1.9414
  145SAPE  H20S15953   2.240   5.539   8.510  2.3145 -0.3257 -0.2967
  145SAPE  H20T15954   2.166   5.620   8.656 -0.7266  0.8624 -1.4904
  145SAPE   C3315955   2.548   6.450  10.304  0.3100  0.5751  0.2789
  145SAPE   H3X15956   2.592   6.351  10.280 -0.2694  0.7976 -1.9055
  145SAPE   H3Y15957   2.622   6.514  10.358  0.1762 -1.6425  3.3552
  145SAPE   C3415958   2.522   6.524  10.169 -0.0098 -0.3066 -0.5007
  145SAPE   H4X15959   2.460   6.614  10.186  0.6788  0.4528 -1.8886
  145SAPE   H4Y15960   2.460   6.463  10.100 -3.8773  0.2020  2.2199
  145SAPE   C3515961   2.653   6.572  10.099 -0.8482 -0.0524  0.4700
  145SAPE   H5X15962   2.731   6.494  10.111 -1.2109 -0.6876 -1.1502
  145SAPE   H5Y15963   2.682   6.673  10.137  1.0002 -0.7976  1.1826
  145SAPE   C3615964   2.650   6.575   9.946  0.0267 -0.2507  0.2015
  145SAPE   H6X15965   2.584   6.659   9.912 -1.1784 -0.3335  2.1760
  145SAPE   H6Y15966   2.591   6.487   9.916  1.3419 -1.2777  0.5426
  145SAPE   C3715967   2.777   6.582   9.871  0.2024 -0.1418  0.4606
  145SAPE   H7X15968   2.809   6.478   9.851 -0.3509  0.0549 -1.7673
  145SAPE   H7Y15969   2.858   6.623   9.936  1.9844  0.7140 -2.0970
  145SAPE   C3815970   2.769   6.659   9.741  0.4911  0.3928  0.0469
  145SAPE   H8X15971   2.785   6.763   9.776 -0.9854  0.0222  1.9570
  145SAPE   H8Y15972   2.669   6.653   9.693  0.3225  1.1813  0.2933
  145SAPE   C3915973   2.879   6.624   9.646  0.1020 -0.0746  0.1685
  145SAPE   H9X15974   2.876   6.516   9.623 -0.8700  0.4058 -2.2082
  145SAPE   H9Y15975   2.976   6.646   9.696  0.3285 -1.9783  0.6328
  145SAPE  C31015976   2.866   6.698   9.511 -0.3241  0.7149 -0.0342
  145SAPE  H10X15977   2.784   6.653   9.450 -0.3501  0.0775  0.4554
  145SAPE  H10Y15978   2.968   6.674   9.472  0.2463 -0.6911  2.1261
  145SAPE  C31115979   2.841   6.849   9.516 -0.3076 -0.0391 -0.7135
  145SAPE  H11X15980   2.936   6.894   9.552 -0.2760 -1.5697  1.2757
  145SAPE  H11Y15981   2.765   6.872   9.593  0.3397 -0.7820  0.1607
  145SAPE  C31215982   2.819   6.919   9.378  0.4730 -0.5339  0.2645
  145SAPE  H12X15983   2.896   6.880   9.308  1.4241  0.5618  0.6863
  145SAPE  H12Y15984   2.832   7.025   9.405 -0.9281 -0.2421 -0.1396
  145SAPE  C31315985   2.683   6.907   9.314 -0.0512  0.4110 -0.2416
  145SAPE  H13X15986   2.598   6.943   9.375  0.1193 -1.5445  1.2465
  145SAPE  H13Y15987   2.660   6.798   9.314 -1.9608  0.7749  0.9656
  145SAPE  C31415988   2.666   6.962   9.174 -0.2037  0.0046 -0.4905
  145SAPE  H14X15989   2.680   7.072   9.168 -0.6672  0.1499  0.7496
  145SAPE  H14Y15990   2.560   6.943   9.144 -0.9031  1.1227  1.1297
  145SAPE  C31515991   2.770   6.918   9.071  0.6216  0.0252  0.4375
  145SAPE  H15X15992   2.870   6.963   9.088 -0.2432  1.5856  1.5786
  145SAPE  H15Y15993   2.736   6.962   8.975 -0.7903 -0.3988  0.7218
  145SAPE  C31615994   2.770   6.766   9.043 -1.0956 -0.0188 -0.9779
  145SAPE  H16X15995   2.686   6.740   8.975 -1.0525 -1.1420 -0.6167
  145SAPE  H16Y15996   2.743   6.722   9.141 -0.5464  0.9530 -0.3696
  145SAPE  C31715997   2.907   6.715   8.993 -0.7638  0.0373 -0.7126
  145SAPE  H17X15998   2.993   6.743   9.057  0.3105  0.6058 -2.3557
  145SAPE  H17Y15999   2.925   6.760   8.893  1.3549 -1.4519 -1.0762
  145SAPE  C31816000   2.905   6.566   8.967 -0.4299 -0.5526 -0.7354
  145SAPE  H18X16001   3.004   6.531   8.932  0.4432  2.5862 -1.7487
  145SAPE  H18Y16002   2.812   6.540   8.911 -0.6480 -1.3599 -0.0242
  145SAPE  H18Z16003   2.888   6.517   9.065 -1.2872  0.3059 -0.4416
  146SAPE     N16004   1.495   4.681  11.165  0.5064  0.9652  0.3582
  146SAPE   HN116005   1.398   4.700  11.197  0.4281 -0.7056  1.2240
  146SAPE   HN216006   1.532   4.774  11.140 -1.1123  1.1737 -1.5529
  146SAPE   HN316007   1.497   4.623  11.078  1.3157  0.9677  0.3737
  146SAPE   C1216008   1.569   4.607  11.276  0.3471 -0.8058 -0.0721
  146SAPE  H12A16009   1.511   4.513  11.286 -1.1199  0.1659  0.8169
  146SAPE  H12B16010   1.557   4.671  11.365  1.7219 -0.6069  0.0001
  146SAPE   C1116011   1.719   4.574  11.240  0.0137 -0.3036  1.0501
  146SAPE  H11A16012   1.758   4.514  11.326 -0.2922 -0.5661  1.0074
  146SAPE  H11B16013   1.769   4.673  11.236 -1.2242  0.4474  2.6999
  146SAPE     P16014   1.859   4.483  11.035 -0.6043 -0.0146  0.1909
  146SAPE   O1316015   1.979   4.463  11.121  0.0754 -0.5368 -0.3739
  146SAPE   O1416016   1.848   4.377  10.935 -0.7243  1.1627  0.1254
  146SAPE   O1216017   1.728   4.493  11.122  0.0459 -0.2503  0.1276
  146SAPE   O1116018   1.882   4.617  10.963 -0.2438 -0.0710  0.2330
  146SAPE    C116019   1.772   4.676  10.897 -0.4498  0.5292  0.1165
  146SAPE    HA16020   1.677   4.674  10.954 -0.1407  2.2020  0.7375
  146SAPE    HB16021   1.805   4.778  10.867 -2.9640  1.7524  1.2741
  146SAPE    C216022   1.747   4.607  10.756 -0.3512  0.6944 -0.5120
  146SAPE    HS16023   1.702   4.510  10.789 -2.2958  1.7503  0.1239
  146SAPE   O2116024   1.871   4.595  10.681  0.0666 -0.4313 -0.3408
  146SAPE   C2116025   1.872   4.487  10.609  0.0835  0.1882  0.1260
  146SAPE   O2216026   1.788   4.397  10.608  0.3331 -0.5700  0.2375
  146SAPE   C2216027   1.996   4.474  10.529  0.0020  0.2341 -0.1160
  146SAPE   H2R16028   2.075   4.440  10.599  0.0578 -3.2699 -1.6835
  146SAPE   H2S16029   1.970   4.392  10.458 -2.4568 -0.9515  1.9792
  146SAPE    C316030   1.636   4.675  10.672  0.3612  0.1279  0.2238
  146SAPE    HX16031   1.679   4.765  10.623 -2.0780  2.0751  1.4329
  146SAPE    HY16032   1.554   4.706  10.739 -1.3953 -1.8353 -0.8753
  146SAPE   O3116033   1.594   4.583  10.566 -0.1938 -0.4102 -0.6782
  146SAPE   C3116034   1.483   4.626  10.510  0.2484  0.8815  0.2057
  146SAPE   O3216035   1.422   4.728  10.536  0.2393  0.2377  0.3423
  146SAPE   C3216036   1.440   4.533  10.394  0.5918  0.1748  0.4903
  146SAPE   H2X16037   1.335   4.559  10.371 -0.1816 -1.0670  2.3635
  146SAPE   H2Y16038   1.442   4.432  10.439  3.5003 -0.6737 -1.2485
  146SAPE   C2316039   2.046   4.603  10.462 -0.0335  0.0147  0.5851
  146SAPE   H3R16040   2.156   4.612  10.456 -0.1942  2.6180  0.3603
  146SAPE   H3S16041   2.007   4.695  10.510 -1.2305 -1.3742  2.4155
  146SAPE   C2416042   1.992   4.598  10.312 -0.2455 -0.2027 -0.2818
  146SAPE   H4R16043   1.885   4.570  10.312  0.3890 -2.9856 -1.4717
  146SAPE   H4S16044   2.044   4.507  10.273  0.5339  0.8141 -1.6778
  146SAPE   C2516045   2.028   4.720  10.232  0.3051 -0.3035  0.4801
  146SAPE   H5R16046   2.132   4.740  10.202 -0.3871  0.9670 -1.2694
  146SAPE   C2616047   1.933   4.791  10.174  0.7712  0.3885  0.6180
  146SAPE   H6R16048   1.973   4.880  10.123  1.6024 -0.1831  0.2711
  146SAPE   C2716049   1.783   4.771  10.171  0.0625  0.4139 -0.5075
  146SAPE   H7R16050   1.743   4.741  10.270  0.2245  1.7057 -0.0323
  146SAPE   H7S16051   1.770   4.680  10.107  0.0443 -1.5713  2.1458
  146SAPE   C2816052   1.710   4.885  10.095 -0.2032  0.2090 -0.1623
  146SAPE   H8R16053   1.691   4.977  10.151  0.4421 -0.2836  0.8896
  146SAPE   C2916054   1.672   4.884   9.972  0.1531  0.3086  0.8985
  146SAPE   H9R16055   1.619   4.968   9.926  1.8856  0.0083 -1.9220
  146SAPE  C21016056   1.697   4.767   9.869  0.2628 -0.5437  0.8159
  146SAPE  H10R16057   1.609   4.752   9.803 -0.0149  0.8767  0.8284
  146SAPE  H10S16058   1.717   4.665   9.907 -0.5073 -1.6857 -1.6144
  146SAPE  C21116059   1.803   4.814   9.769  0.6926 -0.0925 -0.5421
  146SAPE  H11R16060   1.857   4.906   9.795  1.5568 -0.4874 -0.8962
  146SAPE  C21216061   1.834   4.754   9.653  0.3702  0.6907 -0.6008
  146SAPE  H12R16062   1.900   4.801   9.578 -0.5135 -2.1932 -3.3992
  146SAPE  C21316063   1.768   4.630   9.600 -0.3444  0.5126  0.4036
  146SAPE  H13R16064   1.660   4.626   9.623 -0.4631  0.2481 -0.1864
  146SAPE  H13S16065   1.806   4.541   9.655 -0.6021  0.0984 -0.0773
  146SAPE  C21416066   1.792   4.601   9.456 -0.0043  0.6853  0.3769
  146SAPE  H14R16067   1.776   4.685   9.388 -2.1223 -0.4454 -0.6488
  146SAPE  C21516068   1.846   4.493   9.401  0.3871 -0.3677 -0.1889
  146SAPE  H15R16069   1.836   4.473   9.293 -0.7018 -0.5253 -0.0686
  146SAPE  C21616070   1.882   4.374   9.480  0.3440  0.9129 -0.3408
  146SAPE  H16R16071   1.802   4.323   9.537 -0.8635  2.4266 -0.6297
  146SAPE  H16S16072   1.957   4.401   9.557  0.6519 -0.1423 -0.2478
  146SAPE  C21716073   1.947   4.270   9.383  0.0045 -0.4957  0.7360
  146SAPE  H17R16074   2.044   4.311   9.349 -1.7784  3.2635 -0.2758
  146SAPE  H17S16075   1.884   4.256   9.293 -1.3361  1.2966  1.3413
  146SAPE  C21816076   1.966   4.126   9.437  0.0497 -0.1341  0.4625
  146SAPE  H18R16077   1.882   4.097   9.503 -0.7842 -0.7879 -0.8406
  146SAPE  H18S16078   2.051   4.118   9.509 -0.8445 -1.7421  1.3767
  146SAPE  C21916079   1.974   4.027   9.325 -0.5958  0.3122  0.0987
  146SAPE  H19R16080   1.880   4.040   9.267 -0.4226 -0.6535 -0.4138
  146SAPE  H19S16081   1.965   3.926   9.371 -2.3654  0.3802 -0.0319
  146SAPE  C22016082   2.104   4.040   9.240 -0.3143 -0.4723 -0.1731
  146SAPE  H20R16083   2.111   4.139   9.192 -2.1430 -0.5750 -0.7469
  146SAPE  H20S16084   2.101   3.965   9.158  0.9868 -2.0561  1.1535
  146SAPE  H20T16085   2.198   4.025   9.297  0.1595 -2.1114 -1.2968
  146SAPE   C3316086   1.520   4.550  10.268  0.1209 -0.1492 -0.5652
  146SAPE   H3X16087   1.625   4.514  10.268  0.3475  0.4916  0.0080
  146SAPE   H3Y16088   1.529   4.656  10.237 -1.1678 -0.0400 -0.6565
  146SAPE   C3416089   1.445   4.476  10.151  0.2414 -0.0867 -0.1014
  146SAPE   H4X16090   1.344   4.521  10.140  0.2898  0.3787  1.2581
  146SAPE   H4Y16091   1.434   4.371  10.184  1.2073  0.9952  4.3049
  146SAPE   C3516092   1.522   4.481  10.026 -0.1178 -0.2459 -0.6907
  146SAPE   H5X16093   1.630   4.474  10.050 -0.4762 -0.3381  1.0386
  146SAPE   H5Y16094   1.518   4.578   9.972  0.7701 -0.0950 -0.5012
  146SAPE   C3616095   1.504   4.365   9.928  0.0548 -0.1652 -0.5154
  146SAPE   H6X16096   1.499   4.272   9.988 -0.1047  1.3761  1.9949
  146SAPE   H6Y16097   1.599   4.357   9.871  0.8821 -0.5729  0.8782
  146SAPE   C3716098   1.374   4.380   9.836 -0.5607 -0.2273 -0.0431
  146SAPE   H7X16099   1.356   4.487   9.814 -2.1931 -0.7965 -1.8309
  146SAPE   H7Y16100   1.290   4.347   9.901 -0.6853  1.5043  0.7231
  146SAPE   C3816101   1.373   4.289   9.712  0.1446 -0.1574 -0.5084
  146SAPE   H8X16102   1.271   4.250   9.695 -0.4582  0.5905  1.2245
  146SAPE   H8Y16103   1.434   4.197   9.725 -2.8704 -2.1742  0.4756
  146SAPE   C3916104   1.407   4.357   9.579  0.5335 -0.1573 -0.4294
  146SAPE   H9X16105   1.473   4.445   9.595 -1.3265  1.3501 -0.6925
  146SAPE   H9Y16106   1.315   4.401   9.535  0.8694  2.0546  0.9287
  146SAPE  C31016107   1.471   4.257   9.483  0.1187 -0.5795  0.5807
  146SAPE  H10X16108   1.400   4.176   9.455 -0.9505 -0.0971  1.8186
  146SAPE  H10Y16109   1.549   4.210   9.545 -1.8608 -1.9578  2.1400
  146SAPE  C31116110   1.513   4.311   9.344 -0.1405 -0.3748  0.7728
  146SAPE  H11X16111   1.569   4.232   9.291 -1.5692 -1.0815  0.2503
  146SAPE  H11Y16112   1.566   4.406   9.365  0.8392 -0.6559 -0.3371
  146SAPE  C31216113   1.388   4.345   9.255  0.1878 -0.4779  0.1685
  146SAPE  H12X16114   1.305   4.387   9.315  0.6844 -0.9043  1.1715
  146SAPE  H12Y16115   1.354   4.246   9.220 -2.2580 -0.0165  1.0545
  146SAPE  C31316116   1.422   4.441   9.140 -0.2333  0.2168  0.1293
  146SAPE  H13X16117   1.516   4.415   9.087  0.7514 -2.3132  2.8408
  146SAPE  H13Y16118   1.450   4.540   9.183 -1.3199  0.4832  0.2495
  146SAPE  C31416119   1.314   4.466   9.038 -0.1598  0.7326 -0.2985
  146SAPE  H14X16120   1.307   4.577   9.033  0.9473  0.8878  1.0715
  146SAPE  H14Y16121   1.217   4.435   9.081  0.5613  0.6598  1.3556
  146SAPE  C31516122   1.328   4.395   8.903 -0.4884 -1.0637 -0.0739
  146SAPE  H15X16123   1.231   4.412   8.852  0.1400 -0.5252 -1.1223
  146SAPE  H15Y16124   1.344   4.286   8.918  0.7925 -0.6918  1.5709
  146SAPE  C31616125   1.442   4.458   8.813 -0.3556 -1.0834  0.6040
  146SAPE  H16X16126   1.539   4.481   8.863  1.0438  1.2430 -2.7810
  146SAPE  H16Y16127   1.397   4.560   8.803 -1.5352 -1.5878  0.6868
  146SAPE  C31716128   1.472   4.400   8.681 -0.2328  0.4655  0.2138
  146SAPE  H17X16129   1.410   4.463   8.614  1.4605  2.7141  0.6440
  146SAPE  H17Y16130   1.447   4.292   8.671 -0.9921  0.7258 -0.8783
  146SAPE  C31816131   1.625   4.419   8.644 -0.2564  0.0964  0.7207
  146SAPE  H18X16132   1.632   4.372   8.543  0.9266 -0.8362  1.2105
  146SAPE  H18Y16133   1.680   4.366   8.725  0.0870  0.1764  0.5443
  146SAPE  H18Z16134   1.650   4.527   8.644  2.0225 -0.3392 -1.1943
  147SAPE     N16135   3.208   4.906   6.076  0.3450  1.1897  0.0282
  147SAPE   HN116136   3.241   5.004   6.087  3.1144  0.7204 -2.7622
  147SAPE   HN216137   3.242   4.883   5.981  0.6282  1.2193  0.1231
  147SAPE   HN316138   3.104   4.899   6.073  0.3588  1.1505 -2.1231
  147SAPE   C1216139   3.271   4.821   6.189 -0.4826  0.2169 -0.7535
  147SAPE  H12A16140   3.375   4.860   6.194 -0.0103 -0.9427 -1.1375
  147SAPE  H12B16141   3.285   4.716   6.156 -0.3506 -1.1210  3.0639
  147SAPE   C1116142   3.194   4.827   6.320  0.5066 -0.0727 -0.2901
  147SAPE  H11A16143   3.206   4.928   6.364  2.6371 -0.5662  0.3603
  147SAPE  H11B16144   3.242   4.762   6.396 -1.9027  0.4960  1.8883
  147SAPE     P16145   3.030   4.628   6.318  0.4137 -0.0114 -0.1667
  147SAPE   O1316146   2.888   4.608   6.285  0.5941  0.0964 -0.6268
  147SAPE   O1416147   3.130   4.550   6.242 -0.4881 -0.6636  0.2545
  147SAPE   O1216148   3.055   4.784   6.304 -0.0445 -0.6722  0.8853
  147SAPE   O1116149   3.056   4.595   6.468 -0.0540 -0.6592  0.0038
  147SAPE    C116150   2.948   4.600   6.564  0.0765  0.0000  0.0336
  147SAPE    HA16151   2.880   4.519   6.529  2.7619 -1.4560 -2.2043
  147SAPE    HB16152   2.987   4.592   6.668  0.3646 -0.7397 -0.1265
  147SAPE    C216153   2.869   4.732   6.575  0.0227  0.6834  0.3680
  147SAPE    HS16154   2.814   4.750   6.480 -1.6519 -2.3426  0.6443
  147SAPE   O2116155   2.956   4.838   6.617  0.4213  0.3940 -0.2031
  147SAPE   C2116156   2.910   4.961   6.595 -0.1981 -0.3055 -0.3771
  147SAPE   O2216157   2.804   4.986   6.540 -0.1277 -0.2570  0.3842
  147SAPE   C2216158   2.987   5.053   6.686 -0.9197  0.0037  0.5168
  147SAPE   H2R16159   3.047   5.009   6.768  0.0016  1.2179  0.5107
  147SAPE   H2S16160   3.055   5.113   6.622  0.4183 -2.0444 -0.0563
  147SAPE    C316161   2.747   4.716   6.674  0.2843  0.2389 -0.1348
  147SAPE    HX16162   2.687   4.635   6.627  1.0142  0.0755 -0.7886
  147SAPE    HY16163   2.677   4.802   6.673 -1.3243 -0.9986 -1.5107
  147SAPE   O3116164   2.784   4.673   6.805 -0.5486  0.0946 -0.1792
  147SAPE   C3116165   2.692   4.589   6.861 -0.0116  0.5446  0.1334
  147SAPE   O3216166   2.570   4.583   6.839 -0.0059  0.3276 -0.2030
  147SAPE   C3216167   2.765   4.525   6.973  0.4837 -0.4605  0.4263
  147SAPE   H2X16168   2.864   4.575   6.976  0.2590  0.1125 -0.9283
  147SAPE   H2Y16169   2.791   4.419   6.950 -1.2595 -0.6562 -0.8688
  147SAPE   C2316170   2.895   5.158   6.750  0.3026  0.3589  0.0663
  147SAPE   H3R16171   2.817   5.096   6.800  1.1790 -4.3256 -3.6196
  147SAPE   H3S16172   2.849   5.216   6.668 -2.4345 -2.4721 -0.6268
  147SAPE   C2416173   2.980   5.243   6.847  0.8549  0.3142 -0.4390
  147SAPE   H4R16174   3.062   5.277   6.779  2.5213 -1.7067  0.4224
  147SAPE   H4S16175   3.025   5.176   6.923 -2.0832 -1.8496 -0.4491
  147SAPE   C2516176   2.904   5.368   6.891  0.2450  0.2900 -1.0274
  147SAPE   H5R16177   2.879   5.432   6.806 -1.2506 -0.1726 -0.9722
  147SAPE   C2616178   2.877   5.401   7.021  0.6073 -0.2463 -0.5096
  147SAPE   H6R16179   2.832   5.501   7.032 -2.9037 -1.7362 -0.1879
  147SAPE   C2716180   2.919   5.335   7.151 -0.2333 -0.7227  0.4157
  147SAPE   H7R16181   2.974   5.407   7.215 -1.5511 -0.8346  1.7088
  147SAPE   H7S16182   2.989   5.250   7.135 -0.1681 -0.5709 -0.1116
  147SAPE   C2816183   2.795   5.294   7.226  0.0512  0.8347 -0.7674
  147SAPE   H8R16184   2.719   5.242   7.166  1.2372  0.9170 -2.4192
  147SAPE   C2916185   2.760   5.334   7.357 -0.7158  1.2575  0.6858
  147SAPE   H9R16186   2.657   5.305   7.382 -0.8400  0.0644 -1.0394
  147SAPE  C21016187   2.835   5.423   7.448 -0.1046 -0.0895 -0.3441
  147SAPE  H10R16188   2.756   5.487   7.493 -1.0149  0.4029 -2.5595
  147SAPE  H10S16189   2.901   5.489   7.388 -0.2595  0.3868  0.0045
  147SAPE  C21116190   2.919   5.350   7.550  0.4477 -0.4056  0.4988
  147SAPE  H11R16191   3.016   5.325   7.506  0.3958 -0.2504  0.2939
  147SAPE  C21216192   2.881   5.304   7.675  0.6674 -0.2568  0.0543
  147SAPE  H12R16193   2.964   5.257   7.729  1.5294  1.4642  0.2828
  147SAPE  C21316194   2.747   5.326   7.750  0.1103  0.5552 -0.2646
  147SAPE  H13R16195   2.676   5.380   7.683 -1.4047  0.4696  1.2219
  147SAPE  H13S16196   2.774   5.383   7.841  1.1265  2.6768 -1.8090
  147SAPE  C21416197   2.690   5.191   7.792  0.3492 -0.2127 -0.2841
  147SAPE  H14R16198   2.719   5.106   7.728 -0.6011 -1.3297  0.7117
  147SAPE  C21516199   2.617   5.169   7.900  0.4262 -0.5412 -0.8486
  147SAPE  H15R16200   2.578   5.067   7.918 -1.5313  0.6027  2.1756
  147SAPE  C21616201   2.565   5.273   7.994 -0.2192 -0.0062 -0.6030
  147SAPE  H16R16202   2.465   5.237   8.024 -0.6691  1.3052 -0.4809
  147SAPE  H16S16203   2.551   5.371   7.943  2.1449 -0.0762 -1.5398
  147SAPE  C21716204   2.655   5.292   8.117 -0.2639 -0.4492 -0.4905
  147SAPE  H17R16205   2.731   5.372   8.101 -0.8194  0.7612  2.2185
  147SAPE  H17S16206   2.717   5.202   8.137  0.9757  0.0731 -1.7997
  147SAPE  C21816207   2.578   5.339   8.244 -0.6662  0.1345  0.2947
  147SAPE  H18R16208   2.486   5.278   8.254 -1.0058  0.8231  1.5636
  147SAPE  H18S16209   2.553   5.447   8.246 -1.7098  0.0038 -2.4622
  147SAPE  C21916210   2.658   5.296   8.375  0.1287 -0.0438 -0.5401
  147SAPE  H19R16211   2.758   5.345   8.378  1.2635 -2.1953 -0.8403
  147SAPE  H19S16212   2.671   5.186   8.368  1.5091  0.1174 -0.7565
  147SAPE  C22016213   2.577   5.329   8.499 -0.1783  0.4762  0.5099
  147SAPE  H20R16214   2.631   5.301   8.592  2.3034 -0.3065 -1.0685
  147SAPE  H20S16215   2.472   5.294   8.497 -0.8456  2.4199 -0.9489
  147SAPE  H20T16216   2.568   5.439   8.507 -1.0865  0.6294 -1.8947
  147SAPE   C3316217   2.704   4.543   7.115  0.4875 -0.3176  0.8819
  147SAPE   H3X16218   2.608   4.488   7.120  0.9682 -1.4944 -1.3616
  147SAPE   H3Y16219   2.680   4.651   7.121 -0.3302 -0.3326 -1.3884
  147SAPE   C3416220   2.809   4.488   7.217  0.2427 -0.1183 -0.4544
  147SAPE   H4X16221   2.908   4.537   7.204  0.1740  0.4530  0.9953
  147SAPE   H4Y16222   2.812   4.381   7.185  0.7566  0.3059 -1.8753
  147SAPE   C3516223   2.754   4.504   7.357 -0.2405 -0.7770 -0.3345
  147SAPE   H5X16224   2.668   4.436   7.375  0.2090 -1.1336  0.5315
  147SAPE   H5Y16225   2.732   4.612   7.369 -1.4822 -1.0193 -0.3320
  147SAPE   C3616226   2.877   4.466   7.451 -0.1005  0.2793  0.0316
  147SAPE   H6X16227   2.959   4.539   7.433 -0.8571  0.7653 -1.6910
  147SAPE   H6Y16228   2.917   4.366   7.425 -0.8240 -0.1048  0.3442
  147SAPE   C3716229   2.854   4.466   7.603  0.5026  0.0192  0.7719
  147SAPE   H7X16230   2.945   4.438   7.660  0.9708  0.1743  0.1121
  147SAPE   H7Y16231   2.779   4.388   7.630 -1.2852  1.9233  1.6248
  147SAPE   C3816232   2.809   4.609   7.647  0.1191 -0.6124 -0.3271
  147SAPE   H8X16233   2.710   4.631   7.601 -0.0151 -1.3691 -0.4130
  147SAPE   H8Y16234   2.878   4.688   7.610 -0.4306 -0.4824 -1.0998
  147SAPE   C3916235   2.794   4.629   7.796 -0.8984  0.0499 -0.5868
  147SAPE   H9X16236   2.890   4.596   7.840 -1.6868 -2.2876 -0.5210
  147SAPE   H9Y16237   2.718   4.556   7.831 -0.5725  0.2836  0.6924
  147SAPE  C31016238   2.749   4.766   7.825 -0.2628  0.2242 -0.2059
  147SAPE  H10X16239   2.684   4.805   7.743  1.1234  0.1310 -1.3948
  147SAPE  H10Y16240   2.839   4.832   7.830  1.6526 -2.3251  1.5035
  147SAPE  C31116241   2.670   4.772   7.959  0.4375  0.2212  0.6028
  147SAPE  H11X16242   2.597   4.687   7.957  1.5403 -0.7464 -0.2002
  147SAPE  H11Y16243   2.626   4.874   7.957 -0.0895  0.0143  1.3201
  147SAPE  C31216244   2.759   4.756   8.086 -0.0027 -0.0910 -0.0060
  147SAPE  H12X16245   2.841   4.831   8.080  1.7735 -2.0269 -1.1344
  147SAPE  H12Y16246   2.811   4.658   8.091  0.4883  0.1989  1.1451
  147SAPE  C31316247   2.683   4.791   8.215  0.3937  0.3588  0.0787
  147SAPE  H13X16248   2.579   4.753   8.224  0.6409  0.0036  1.9230
  147SAPE  H13Y16249   2.662   4.899   8.229 -0.5486  0.3079 -0.8437
  147SAPE  C31416250   2.758   4.746   8.341 -0.4548  0.0643 -0.1852
  147SAPE  H14X16251   2.864   4.778   8.348 -0.8569  1.4381 -0.0520
  147SAPE  H14Y16252   2.753   4.636   8.351  0.7287  0.0028 -0.0810
  147SAPE  C31516253   2.683   4.794   8.463  0.0596  0.1997  0.6238
  147SAPE  H15X16254   2.578   4.758   8.459  0.2246 -0.2057 -0.9909
  147SAPE  H15Y16255   2.676   4.904   8.449  1.2353  0.0645 -1.4456
  147SAPE  C31616256   2.755   4.771   8.600 -0.2104  0.2076  0.2574
  147SAPE  H16X16257   2.766   4.661   8.603 -0.5316  0.1849  0.6976
  147SAPE  H16Y16258   2.708   4.816   8.690 -1.3177  3.6322 -1.8238
  147SAPE  C31716259   2.891   4.849   8.616  0.6501  0.1365 -0.0548
  147SAPE  H17X16260   2.877   4.958   8.599 -2.9309 -0.3985 -1.2525
  147SAPE  H17Y16261   2.956   4.802   8.538  1.4971  3.4645 -1.5241
  147SAPE  C31816262   2.954   4.830   8.749  0.1031  0.1864  0.2285
  147SAPE  H18X16263   2.934   4.725   8.781 -1.6522  0.3428 -0.2604
  147SAPE  H18Y16264   2.906   4.889   8.830 -1.1588 -1.3702  0.6646
  147SAPE  H18Z16265   3.064   4.845   8.753 -0.1310  2.4346 -0.3660
  148SAPE     N16266   2.518   0.579   6.477 -0.0995  0.1683  0.3593
  148SAPE   HN116267   2.455   0.521   6.418 -1.8970  1.9394  0.4332
  148SAPE   HN216268   2.489   0.676   6.453 -0.5137  0.1411  0.7329
  148SAPE   HN316269   2.615   0.565   6.443  0.9340  3.3872  1.6417
  148SAPE   C1216270   2.504   0.546   6.619  0.1080 -0.2015 -0.7138
  148SAPE  H12A16271   2.409   0.592   6.654 -0.0987 -1.5644  0.6219
  148SAPE  H12B16272   2.579   0.593   6.686  1.0073 -0.1576 -1.7423
  148SAPE   C1116273   2.478   0.396   6.645  0.4391 -0.3573 -0.2196
  148SAPE  H11A16274   2.480   0.380   6.755  2.3867  1.1807  0.0230
  148SAPE  H11B16275   2.570   0.347   6.609  0.8477  1.2981 -1.5022
  148SAPE     P16276   2.328   0.197   6.584  0.2170 -0.2697 -0.7105
  148SAPE   O1316277   2.199   0.181   6.524  0.1370 -0.7403  0.3874
  148SAPE   O1416278   2.442   0.135   6.519 -0.5942  0.2784  0.2591
  148SAPE   O1216279   2.354   0.350   6.593 -0.0273 -0.5362  0.7409
  148SAPE   O1116280   2.330   0.154   6.737 -0.0224  0.0861 -0.0295
  148SAPE    C116281   2.258   0.201   6.840 -0.0522 -0.2360 -0.0252
  148SAPE    HA16282   2.326   0.239   6.919 -3.2062  3.3763  1.2873
  148SAPE    HB16283   2.194   0.287   6.808 -1.8988 -2.3593 -2.5262
  148SAPE    C216284   2.174   0.090   6.907  0.6076  0.0015 -1.5520
  148SAPE    HS16285   2.069   0.090   6.871 -0.0048  1.5729  0.1499
  148SAPE   O2116286   2.170   0.093   7.049  1.2827 -0.4914  0.1477
  148SAPE   C2116287   2.094   0.191   7.103 -0.0795 -0.1502  0.2056
  148SAPE   O2216288   2.011   0.255   7.039 -0.0957  0.0423  0.6507
  148SAPE   C2216289   2.136   0.216   7.247  0.3031  0.2113  0.0329
  148SAPE   H2R16290   2.198   0.134   7.288  0.1611  0.2170  0.2665
  148SAPE   H2S16291   2.214   0.296   7.249  0.7081 -0.1974  0.8453
  148SAPE    C316292   2.222  -0.047   6.858  0.0961  0.4261  0.2914
  148SAPE    HX16293   2.332  -0.059   6.872  0.1581  0.2214 -0.3449
  148SAPE    HY16294   2.215  -0.045   6.748  2.3666 -0.4067  0.0766
  148SAPE   O3116295   2.142  -0.149   6.919  0.0595  0.1497 -0.5960
  148SAPE   C3116296   2.201  -0.256   6.967 -0.3847  0.0846 -0.3330
  148SAPE   O3216297   2.311  -0.295   6.924 -0.0381  0.1977 -0.4681
  148SAPE   C3216298   2.100  -0.315   7.065  0.2322  0.4700 -0.0288
  148SAPE   H2X16299   2.109  -0.424   7.048  0.8561  0.7840 -2.0008
  148SAPE   H2Y16300   1.997  -0.277   7.052 -0.4089 -0.7006  1.4022
  148SAPE   C2316301   2.022   0.252   7.345 -0.3482  0.4973 -0.0923
  148SAPE   H3R16302   1.932   0.208   7.297 -0.5600  0.3764  0.4135
  148SAPE   H3S16303   2.010   0.363   7.348  1.0305  0.6592 -0.2509
  148SAPE   C2416304   2.055   0.197   7.485  0.5547 -0.0824 -0.2492
  148SAPE   H4R16305   2.159   0.222   7.515  1.0089 -2.8242  0.7693
  148SAPE   H4S16306   2.067   0.089   7.458  2.5883 -0.0341  0.3063
  148SAPE   C2516307   1.942   0.225   7.585  0.0282  0.7360  0.0573
  148SAPE   H5R16308   1.854   0.276   7.543  1.7926  3.9749 -0.0730
  148SAPE   C2616309   1.943   0.198   7.721 -0.1218 -0.0373  0.0695
  148SAPE   H6R16310   1.861   0.226   7.789  0.6439  0.4796  0.8054
  148SAPE   C2716311   2.068   0.152   7.791 -0.3495 -0.0387 -0.8034
  148SAPE   H7R16312   2.109   0.239   7.846 -0.1906 -1.0129  0.6742
  148SAPE   H7S16313   2.154   0.128   7.724  1.4302 -1.2916  1.7393
  148SAPE   C2816314   2.051   0.038   7.888  0.1340 -0.7180  0.3707
  148SAPE   H8R16315   2.057  -0.052   7.825  1.5694  0.4552 -1.2609
  148SAPE   C2916316   2.019   0.044   8.023  0.2082 -0.6332  0.6786
  148SAPE   H9R16317   2.007  -0.041   8.091  0.5496  0.2366  1.8565
  148SAPE  C21016318   1.992   0.169   8.102 -0.0518 -1.4132  0.2643
  148SAPE  H10R16319   1.948   0.242   8.031  3.6173 -0.3338 -1.1849
  148SAPE  H10S16320   2.086   0.228   8.115 -3.0986  3.8004  1.5776
  148SAPE  C21116321   1.919   0.162   8.228 -0.2026  0.0126 -0.4640
  148SAPE  H11R16322   1.897   0.062   8.267 -0.0930  0.6746  1.3821
  148SAPE  C21216323   1.882   0.263   8.309 -0.6079  0.4119 -0.1453
  148SAPE  H12R16324   1.838   0.238   8.407 -0.0714 -0.8310 -0.2047
  148SAPE  C21316325   1.914   0.412   8.289  0.2529 -0.0684  0.4301
  148SAPE  H13R16326   1.989   0.431   8.210 -1.0403  2.3082 -0.3394
  148SAPE  H13S16327   1.970   0.439   8.380  1.7631 -2.2407  0.2142
  148SAPE  C21416328   1.784   0.488   8.282 -0.3593 -0.5777  0.1223
  148SAPE  H14R16329   1.707   0.461   8.356 -2.8434 -0.6814 -2.3609
  148SAPE  C21516330   1.756   0.596   8.200 -0.4338 -0.2748 -0.1587
  148SAPE  H15R16331   1.649   0.619   8.185 -1.1207 -1.1701  2.7041
  148SAPE  C21616332   1.860   0.660   8.101 -0.0860  0.3365 -1.0268
  148SAPE  H16R16333   1.959   0.660   8.151  0.0593  0.0817 -1.3134
  148SAPE  H16S16334   1.835   0.767   8.090 -0.2143  0.3151 -0.9451
  148SAPE  C21716335   1.877   0.611   7.964 -0.3205 -0.8188 -0.1624
  148SAPE  H17R16336   1.920   0.509   7.970 -0.2424 -0.7562  0.3834
  148SAPE  H17S16337   1.942   0.692   7.926 -1.3277 -0.7996 -1.9858
  148SAPE  C21816338   1.742   0.613   7.883  0.1947  0.2655  0.1885
  148SAPE  H18R16339   1.689   0.709   7.901 -1.9523 -0.1933 -2.8207
  148SAPE  H18S16340   1.689   0.523   7.923 -0.6856  0.3623 -0.7111
  148SAPE  C21916341   1.761   0.594   7.732  0.0594  0.0156  0.0410
  148SAPE  H19R16342   1.659   0.575   7.691  0.9656  1.9762 -3.6159
  148SAPE  H19S16343   1.814   0.498   7.716  1.8980  0.5089  2.6544
  148SAPE  C22016344   1.831   0.698   7.649  0.4517  0.0407 -0.0779
  148SAPE  H20R16345   1.812   0.677   7.541  1.3950  0.0018 -0.2462
  148SAPE  H20S16346   1.941   0.687   7.659  0.2504 -1.5739  0.7130
  148SAPE  H20T16347   1.787   0.797   7.673  0.4052  0.3606 -1.3961
  148SAPE   C3316348   2.144  -0.292   7.215 -0.0665 -0.3281 -0.4760
  148SAPE   H3X16349   2.136  -0.184   7.242 -2.5678 -0.6311  0.2339
  148SAPE   H3Y16350   2.250  -0.326   7.218 -0.1141 -0.6381  3.9393
  148SAPE   C3416351   2.068  -0.364   7.329  0.2066  0.0832  0.5189
  148SAPE   H4X16352   2.073  -0.473   7.312  0.3109  0.2141 -0.3110
  148SAPE   H4Y16353   1.961  -0.337   7.316  0.7279  1.4900 -1.3744
  148SAPE   C3516354   2.117  -0.332   7.468  0.2996  0.1227 -0.8452
  148SAPE   H5X16355   2.113  -0.222   7.482 -0.2485 -0.2302  2.7621
  148SAPE   H5Y16356   2.224  -0.361   7.478  0.1254  0.0560  1.3161
  148SAPE   C3616357   2.036  -0.395   7.586 -0.0076  0.2960  0.0195
  148SAPE   H6X16358   2.061  -0.503   7.587  2.4370  0.6656 -3.6204
  148SAPE   H6Y16359   1.927  -0.376   7.571  0.0716  1.5280  0.8426
  148SAPE   C3716360   2.057  -0.358   7.736 -0.0489  0.0206 -0.3036
  148SAPE   H7X16361   2.034  -0.250   7.746  2.0594  0.2990  3.2196
  148SAPE   H7Y16362   2.165  -0.375   7.756 -0.2063 -0.0012  0.5703
  148SAPE   C3816363   1.967  -0.432   7.835  0.5306 -0.8742 -0.3443
  148SAPE   H8X16364   1.979  -0.537   7.802 -1.4178 -0.6194 -2.1096
  148SAPE   H8Y16365   1.863  -0.407   7.804  0.7012 -0.6555 -0.7525
  148SAPE   C3916366   1.986  -0.388   7.987 -0.0918 -0.6786  0.6426
  148SAPE   H9X16367   1.893  -0.395   8.047 -0.1217 -0.4696  0.6196
  148SAPE   H9Y16368   2.008  -0.280   7.982 -1.3280 -0.4618 -2.6805
  148SAPE  C31016369   2.099  -0.475   8.060  0.2079 -0.2628 -0.0758
  148SAPE  H10X16370   2.183  -0.493   7.989 -2.4461 -1.2043 -3.2272
  148SAPE  H10Y16371   2.051  -0.573   8.082 -1.0304  0.1917 -0.6774
  148SAPE  C31116372   2.155  -0.418   8.186 -0.1741 -0.6012  0.5787
  148SAPE  H11X16373   2.227  -0.492   8.228  2.1193  1.0035 -0.2770
  148SAPE  H11Y16374   2.071  -0.402   8.258 -0.3335 -0.9988  0.4804
  148SAPE  C31216375   2.258  -0.305   8.167 -0.4969 -0.6208  0.2306
  148SAPE  H12X16376   2.215  -0.215   8.117 -2.9060 -1.8386 -0.0465
  148SAPE  H12Y16377   2.345  -0.340   8.109 -1.1387 -1.6163 -0.1527
  148SAPE  C31316378   2.299  -0.260   8.306 -0.8082 -0.4562  0.1481
  148SAPE  H13X16379   2.395  -0.205   8.297 -1.5536  0.9922  0.7508
  148SAPE  H13Y16380   2.305  -0.352   8.369  0.1667 -0.8124 -0.4392
  148SAPE  C31416381   2.201  -0.170   8.368 -0.2382  0.4112 -0.1471
  148SAPE  H14X16382   2.098  -0.211   8.361  0.2897 -1.2591  1.1987
  148SAPE  H14Y16383   2.202  -0.078   8.307  1.6926  0.3888 -0.2183
  148SAPE  C31516384   2.236  -0.124   8.512  0.6703 -0.0849 -0.2018
  148SAPE  H15X16385   2.346  -0.113   8.518  0.7601 -0.0600 -1.6118
  148SAPE  H15Y16386   2.205  -0.211   8.575 -1.2363  1.1431  0.6360
  148SAPE  C31616387   2.161  -0.005   8.571 -1.3369  0.8774 -0.9377
  148SAPE  H16X16388   2.054  -0.035   8.563 -1.0835 -0.3651  0.0938
  148SAPE  H16Y16389   2.183   0.081   8.505  0.3758  0.4568 -0.9483
  148SAPE  C31716390   2.202   0.029   8.719 -0.4427 -0.1857 -0.4985
  148SAPE  H17X16391   2.168   0.129   8.753  0.4678 -0.5786  1.7511
  148SAPE  H17Y16392   2.311   0.049   8.720 -0.2844 -0.9430 -1.3550
  148SAPE  C31816393   2.155  -0.078   8.820 -0.2345 -0.4660  0.2665
  148SAPE  H18X16394   2.194  -0.179   8.793  0.6864 -0.8667  2.8365
  148SAPE  H18Y16395   2.048  -0.102   8.805  0.0409 -0.6024 -1.8299
  148SAPE  H18Z16396   2.176  -0.059   8.927  2.6136 -1.6591  0.0242
  149SAPE     N16397   1.376   2.525   6.052 -0.0109  0.7760  0.1368
  149SAPE   HN116398   1.424   2.438   6.084 -1.3908  0.3167  1.0374
  149SAPE   HN216399   1.275   2.525   6.077 -0.4078 -0.2412 -1.3380
  149SAPE   HN316400   1.379   2.512   5.949  0.6333  3.0009 -0.1905
  149SAPE   C1216401   1.448   2.639   6.103 -0.2148 -0.0175  0.4461
  149SAPE  H12A16402   1.545   2.656   6.052  0.1476  1.8896  1.6739
  149SAPE  H12B16403   1.469   2.606   6.207  1.7155 -1.9557 -0.4869
  149SAPE   C1116404   1.358   2.768   6.120 -0.3255  0.3363  0.8068
  149SAPE  H11A16405   1.353   2.800   6.014  2.7146 -2.2332 -0.2855
  149SAPE  H11B16406   1.418   2.852   6.161 -3.6318  1.9259  2.8239
  149SAPE     P16407   1.241   2.761   6.351  0.1649  0.4826  0.1035
  149SAPE   O1316408   1.100   2.757   6.397 -0.2275  0.7936 -0.9062
  149SAPE   O1416409   1.343   2.666   6.407 -0.2952  0.2206  0.1031
  149SAPE   O1216410   1.239   2.738   6.190 -0.6200  0.1892 -0.2974
  149SAPE   O1116411   1.286   2.912   6.368 -0.0515  0.3111 -0.3825
  149SAPE    C116412   1.412   2.955   6.413 -0.1619 -0.4142 -0.9038
  149SAPE    HA16413   1.488   2.873   6.415  1.2044  0.7848  2.5028
  149SAPE    HB16414   1.456   3.031   6.345  0.8716 -0.3873 -0.2219
  149SAPE    C216415   1.408   3.022   6.554  0.1077 -0.4364  0.3189
  149SAPE    HS16416   1.518   3.039   6.557  0.3292 -1.1789 -1.8597
  149SAPE   O2116417   1.361   2.942   6.656  0.3121 -0.3578  0.3862
  149SAPE   C2116418   1.438   2.852   6.705 -0.0847  0.4780  0.0848
  149SAPE   O2216419   1.546   2.817   6.656  0.0923 -0.4322 -0.3073
  149SAPE   C2216420   1.378   2.786   6.826  0.2244  0.6290 -0.0756
  149SAPE   H2R16421   1.311   2.857   6.880 -1.2028 -1.1408  0.5743
  149SAPE   H2S16422   1.322   2.702   6.781  1.4660  0.3107 -1.0765
  149SAPE    C316423   1.335   3.159   6.551  0.5207 -0.0544 -0.0868
  149SAPE    HX16424   1.228   3.129   6.544  0.3389  0.9967 -4.4968
  149SAPE    HY16425   1.356   3.213   6.456 -1.6846  2.8962  0.9636
  149SAPE   O3116426   1.371   3.244   6.661 -0.0339 -0.7016 -0.0334
  149SAPE   C3116427   1.280   3.344   6.674 -0.8126  0.1042 -0.6488
  149SAPE   O3216428   1.194   3.365   6.591  0.0637 -0.5409  0.2212
  149SAPE   C3216429   1.315   3.428   6.794 -0.2495 -1.0751 -0.4506
  149SAPE   H2X16430   1.260   3.522   6.774  0.2492 -0.5704  0.5035
  149SAPE   H2Y16431   1.422   3.459   6.794 -0.7143  0.6794 -1.8409
  149SAPE   C2316432   1.474   2.736   6.934 -0.7147  0.0265  0.0936
  149SAPE   H3R16433   1.524   2.644   6.897  3.2791  1.2123  1.9440
  149SAPE   H3S16434   1.410   2.707   7.020  1.4326 -0.8791  1.4807
  149SAPE   C2416435   1.578   2.837   6.979  0.2969 -0.5141 -0.5064
  149SAPE   H4R16436   1.524   2.926   7.017  1.7578  0.7987 -1.3887
  149SAPE   H4S16437   1.628   2.892   6.896 -1.1102 -0.0510 -1.0858
  149SAPE   C2516438   1.662   2.764   7.087  0.0304  0.1257  0.2635
  149SAPE   H5R16439   1.749   2.717   7.038 -0.5215  0.1856 -0.7981
  149SAPE   C2616440   1.650   2.784   7.220 -0.2145  0.2461 -0.1299
  149SAPE   H6R16441   1.698   2.717   7.293  0.4247 -0.0039 -0.7588
  149SAPE   C2716442   1.547   2.873   7.290  0.0462  0.6774 -0.3131
  149SAPE   H7R16443   1.544   2.965   7.228 -1.1060  0.9672  0.1393
  149SAPE   H7S16444   1.585   2.910   7.388 -0.1717  2.3161 -0.8303
  149SAPE   C2816445   1.408   2.822   7.287  0.0083  0.2386  0.2867
  149SAPE   H8R16446   1.363   2.818   7.186  0.1570  1.0364  0.1807
  149SAPE   C2916447   1.332   2.771   7.383 -0.1228 -0.1468 -0.4015
  149SAPE   H9R16448   1.239   2.717   7.360 -0.8758  1.4016 -1.2142
  149SAPE  C21016449   1.377   2.764   7.523 -0.2391 -0.7680  0.0328
  149SAPE  H10R16450   1.484   2.733   7.522 -0.4629 -1.5648  0.5003
  149SAPE  H10S16451   1.334   2.671   7.566  0.7400 -1.8053 -1.1471
  149SAPE  C21116452   1.373   2.877   7.615  0.4147 -0.1036  0.4332
  149SAPE  H11R16453   1.344   2.973   7.571  1.9002  0.0572 -0.2688
  149SAPE  C21216454   1.418   2.875   7.741 -0.3183 -0.0314 -0.4850
  149SAPE  H12R16455   1.397   2.964   7.802  1.8238  0.0212  0.2829
  149SAPE  C21316456   1.484   2.754   7.808  0.1277  1.0408 -0.3493
  149SAPE  H13R16457   1.580   2.779   7.857  0.6952  0.2800 -1.0420
  149SAPE  H13S16458   1.493   2.673   7.732 -1.8294  0.8072 -0.3803
  149SAPE  C21416459   1.388   2.701   7.901  0.0909  0.3486  0.3628
  149SAPE  H14R16460   1.314   2.641   7.844  2.9757 -1.8464 -1.3469
  149SAPE  C21516461   1.360   2.709   8.034 -0.0696  0.7577 -0.2129
  149SAPE  H15R16462   1.278   2.654   8.081 -0.8689  2.3208  0.2877
  149SAPE  C21616463   1.436   2.789   8.129  0.9620 -0.0923  0.8565
  149SAPE  H16R16464   1.363   2.859   8.175  1.6340  0.9362  0.3954
  149SAPE  H16S16465   1.515   2.853   8.084  0.5329  0.0586  0.3059
  149SAPE  C21716466   1.497   2.712   8.252 -0.7945  0.4795  0.7066
  149SAPE  H17R16467   1.558   2.631   8.206 -1.9185  0.3127 -0.5682
  149SAPE  H17S16468   1.415   2.663   8.309 -0.7474 -0.7134 -0.2019
  149SAPE  C21816469   1.572   2.809   8.346 -0.5277 -0.0094 -1.0333
  149SAPE  H18R16470   1.515   2.903   8.362 -2.3125 -0.8730 -2.0300
  149SAPE  H18S16471   1.670   2.837   8.303 -2.1274 -0.3685 -5.5352
  149SAPE  C21916472   1.596   2.745   8.481  0.6161 -0.7411 -0.9810
  149SAPE  H19R16473   1.669   2.663   8.459 -1.6411 -3.3482  0.6606
  149SAPE  H19S16474   1.500   2.699   8.511 -0.5764  1.6146 -0.9720
  149SAPE  C22016475   1.653   2.842   8.588  0.6236  0.5960  0.1418
  149SAPE  H20R16476   1.747   2.895   8.559  2.4703 -1.7843  1.3896
  149SAPE  H20S16477   1.689   2.780   8.673  1.5180 -0.8795 -1.2418
  149SAPE  H20T16478   1.581   2.925   8.595 -0.3295  0.0688 -2.2589
  149SAPE   C3316479   1.271   3.349   6.923 -0.0096 -0.9581 -0.0147
  149SAPE   H3X16480   1.309   3.245   6.916 -0.7891 -1.3052  0.7336
  149SAPE   H3Y16481   1.160   3.353   6.919 -0.0669 -1.1075  1.2532
  149SAPE   C3416482   1.316   3.403   7.060 -0.2343  0.1836 -0.4558
  149SAPE   H4X16483   1.255   3.496   7.063 -0.4779  0.0108  0.3403
  149SAPE   H4Y16484   1.421   3.440   7.059 -0.9459  2.4208  0.9823
  149SAPE   C3516485   1.290   3.321   7.184  0.1999  0.1168 -0.5996
  149SAPE   H5X16486   1.342   3.223   7.195  1.2484  0.7518  0.3053
  149SAPE   H5Y16487   1.182   3.295   7.186  0.4816 -1.2711 -1.6189
  149SAPE   C3616488   1.316   3.388   7.319 -1.1262  0.2972 -0.7484
  149SAPE   H6X16489   1.264   3.487   7.320 -1.6506  0.0229 -0.6043
  149SAPE   H6Y16490   1.426   3.393   7.310 -1.2186 -0.4109 -2.6804
  149SAPE   C3716491   1.275   3.306   7.436 -0.0802 -0.4068  0.2871
  149SAPE   H7X16492   1.305   3.199   7.427 -0.0635 -0.3341 -0.6562
  149SAPE   H7Y16493   1.166   3.310   7.456 -0.2140 -0.9904 -0.2843
  149SAPE   C3816494   1.347   3.363   7.558  0.1873 -0.0699  0.3787
  149SAPE   H8X16495   1.333   3.473   7.557  0.9144  0.0680  2.3060
  149SAPE   H8Y16496   1.453   3.333   7.543 -0.1138 -1.7401  1.3984
  149SAPE   C3916497   1.304   3.295   7.696 -0.4497 -0.5748 -0.4270
  149SAPE   H9X16498   1.333   3.188   7.704  0.4248 -0.3248 -0.1148
  149SAPE   H9Y16499   1.195   3.297   7.715 -0.2663 -1.6942  0.9120
  149SAPE  C31016500   1.360   3.367   7.819  0.1228  0.0600  0.4573
  149SAPE  H10X16501   1.312   3.467   7.821 -1.3513 -0.6373  1.3178
  149SAPE  H10Y16502   1.471   3.374   7.817  0.1966 -0.3644  1.8024
  149SAPE  C31116503   1.330   3.306   7.961  0.8773  0.0507 -0.2107
  149SAPE  H11X16504   1.381   3.207   7.951 -1.8256 -1.5047  0.3172
  149SAPE  H11Y16505   1.221   3.294   7.972  0.9841 -0.4783  0.3229
  149SAPE  C31216506   1.383   3.383   8.083  0.2154 -0.3317  0.8215
  149SAPE  H12X16507   1.332   3.481   8.086 -1.2234 -0.9405 -1.3743
  149SAPE  H12Y16508   1.492   3.397   8.069  0.3954 -1.2344  1.2249
  149SAPE  C31316509   1.347   3.313   8.222 -0.1796  0.6217  0.1898
  149SAPE  H13X16510   1.238   3.325   8.237  0.0476  2.0648  0.8773
  149SAPE  H13Y16511   1.395   3.379   8.297 -0.2775  1.0340 -0.1091
  149SAPE  C31416512   1.394   3.163   8.237  0.5695 -0.3607 -0.0697
  149SAPE  H14X16513   1.505   3.161   8.239  0.5837 -2.6736 -0.3083
  149SAPE  H14Y16514   1.359   3.103   8.150 -3.5722 -0.0054  1.1479
  149SAPE  C31516515   1.324   3.103   8.359 -0.2921 -0.4789 -0.0153
  149SAPE  H15X16516   1.316   2.993   8.352 -1.8530 -0.3474 -0.8348
  149SAPE  H15Y16517   1.221   3.145   8.353  1.4267  4.2680 -0.4841
  149SAPE  C31616518   1.391   3.151   8.481  0.1587  0.0274 -0.2680
  149SAPE  H16X16519   1.358   3.257   8.488 -1.8645 -0.5549 -0.3870
  149SAPE  H16Y16520   1.501   3.150   8.465  0.2534 -2.8228  0.1279
  149SAPE  C31716521   1.343   3.092   8.617  0.2804  0.4100 -0.2390
  149SAPE  H17X16522   1.343   2.981   8.604  3.2393  0.1408  1.1545
  149SAPE  H17Y16523   1.243   3.132   8.642  0.4113  0.2980  0.4927
  149SAPE  C31816524   1.436   3.125   8.732 -0.0344  0.2940 -0.7999
  149SAPE  H18X16525   1.542   3.114   8.701 -0.1327  1.1065 -1.4613
  149SAPE  H18Y16526   1.415   3.068   8.825  0.0357  0.6704 -0.5519
  149SAPE  H18Z16527   1.426   3.234   8.746 -0.3404  0.3179 -1.1925
  150SAPE     N16528   0.647   3.079   6.444  0.0044 -0.4246  0.2095
  150SAPE   HN116529   0.701   3.025   6.373  0.9472  2.0854 -1.0855
  150SAPE   HN216530   0.668   3.178   6.424 -1.2731 -0.2448 -0.4089
  150SAPE   HN316531   0.679   3.052   6.539  0.2752 -0.5198  0.0905
  150SAPE   C1216532   0.501   3.042   6.436  0.2453 -0.1561 -0.3426
  150SAPE  H12A16533   0.454   3.062   6.536  3.0424  1.5329  0.7481
  150SAPE  H12B16534   0.494   2.933   6.417 -2.0304  0.2219 -2.1462
  150SAPE   C1116535   0.432   3.122   6.325  0.0795 -0.4885  1.1086
  150SAPE  H11A16536   0.343   3.068   6.286 -1.7115  1.5388  2.1200
  150SAPE  H11B16537   0.497   3.124   6.235 -0.3547 -3.9963  0.5677
  150SAPE     P16538   0.254   3.292   6.442 -0.2355 -0.4229  0.1051
  150SAPE   O1316539   0.135   3.300   6.346 -0.0722 -0.2596 -0.3001
  150SAPE   O1416540   0.246   3.192   6.549  0.0058 -0.4728  0.0792
  150SAPE   O1216541   0.390   3.256   6.363  0.5711  0.1604 -0.6722
  150SAPE   O1116542   0.282   3.433   6.501  0.1448 -0.7484 -0.3954
  150SAPE    C116543   0.411   3.484   6.530 -0.0309 -0.2050 -0.4333
  150SAPE    HA16544   0.479   3.472   6.443 -0.0779 -2.0530 -0.2433
  150SAPE    HB16545   0.401   3.594   6.539  0.1036 -0.1453 -0.9594
  150SAPE    C216546   0.480   3.418   6.657 -0.2689 -0.3593 -0.6543
  150SAPE    HS16547   0.502   3.315   6.624 -2.2941 -0.9332 -0.3332
  150SAPE   O2116548   0.391   3.425   6.767  0.2713  0.1758 -0.6577
  150SAPE   C2116549   0.377   3.317   6.841 -0.5037  0.6969  0.1747
  150SAPE   O2216550   0.442   3.211   6.842 -0.3273 -0.0179 -0.7715
  150SAPE   C2216551   0.263   3.342   6.944 -0.2592  0.2325 -0.1278
  150SAPE   H2R16552   0.189   3.412   6.899  0.3149  0.1508 -1.2461
  150SAPE   H2S16553   0.213   3.244   6.960  1.2201 -0.8133 -1.5731
  150SAPE    C316554   0.606   3.497   6.697 -0.7129 -0.3112 -0.2087
  150SAPE    HX16555   0.576   3.599   6.727  0.2694 -0.5294  1.6427
  150SAPE    HY16556   0.666   3.494   6.603  1.0309  2.1179  0.7430
  150SAPE   O3116557   0.682   3.423   6.795  0.2741 -0.4377 -0.1757
  150SAPE   C3116558   0.763   3.488   6.864  1.0130 -0.4168  0.5497
  150SAPE   O3216559   0.798   3.603   6.842 -0.1545  0.2083  0.7341
  150SAPE   C3216560   0.782   3.417   6.998  0.1938 -0.0287 -0.8884
  150SAPE   H2X16561   0.861   3.338   6.993  1.3030  1.0473 -0.9186
  150SAPE   H2Y16562   0.680   3.386   7.030  0.1785  2.3095  1.6967
  150SAPE   C2316563   0.323   3.403   7.075 -0.5299  0.7808  0.6202
  150SAPE   H3R16564   0.362   3.506   7.059  0.9240  0.3330  1.1536
  150SAPE   H3S16565   0.414   3.342   7.094  1.3871  3.9679  2.5273
  150SAPE   C2416566   0.219   3.404   7.189  0.4907  0.6740  0.3426
  150SAPE   H4R16567   0.196   3.300   7.221 -0.2266  0.7089 -0.0257
  150SAPE   H4S16568   0.129   3.444   7.137 -0.1086 -1.2469 -0.1968
  150SAPE   C2516569   0.264   3.493   7.299 -0.9721 -0.1069  0.4795
  150SAPE   H5R16570   0.286   3.595   7.264  1.9293 -0.3163  1.4592
  150SAPE   C2616571   0.281   3.463   7.427 -0.9721 -0.0006 -0.2224
  150SAPE   H6R16572   0.326   3.535   7.498 -1.8868 -0.3918  0.7818
  150SAPE   C2716573   0.270   3.327   7.497 -0.9302 -0.0190  0.2136
  150SAPE   H7R16574   0.236   3.248   7.426  1.4101 -2.3150  1.4584
  150SAPE   H7S16575   0.201   3.339   7.583 -1.9039 -2.0553 -0.2239
  150SAPE   C2816576   0.407   3.275   7.532 -0.2796 -0.9450 -0.1357
  150SAPE   H8R16577   0.459   3.257   7.436 -1.0453  0.4669 -0.8446
  150SAPE   C2916578   0.467   3.261   7.651  0.2921 -0.2645 -0.3008
  150SAPE   H9R16579   0.566   3.212   7.649  0.3872 -0.0802 -0.2467
  150SAPE  C21016580   0.416   3.290   7.787  0.0367  0.0454 -0.0982
  150SAPE  H10R16581   0.358   3.206   7.830 -1.0718  0.3166 -1.0247
  150SAPE  H10S16582   0.345   3.375   7.784 -2.7461 -2.1378  0.0817
  150SAPE  C21116583   0.517   3.327   7.892 -1.1148  0.4897  0.1377
  150SAPE  H11R16584   0.614   3.370   7.861  0.0492 -0.9307  1.6009
  150SAPE  C21216585   0.505   3.324   8.027 -0.9579  0.0043 -0.5083
  150SAPE  H12R16586   0.590   3.359   8.088 -1.1867  0.9233 -0.7104
  150SAPE  C21316587   0.381   3.279   8.099 -0.6706 -0.7212 -0.0079
  150SAPE  H13R16588   0.300   3.261   8.024 -2.0080  0.2393  1.1537
  150SAPE  H13S16589   0.348   3.353   8.174  1.7765 -0.6382  1.0575
  150SAPE  C21416590   0.421   3.146   8.153 -0.8743 -0.7767 -0.3857
  150SAPE  H14R16591   0.523   3.106   8.158 -0.6456 -0.2851 -0.9717
  150SAPE  C21516592   0.332   3.070   8.214 -0.0535  0.2116 -0.1498
  150SAPE  H15R16593   0.372   2.975   8.252  1.5938  1.2441  0.7935
  150SAPE  C21616594   0.187   3.087   8.233  0.3449  0.3979 -0.0398
  150SAPE  H16R16595   0.143   2.994   8.192  1.0792  0.5535 -1.2273
  150SAPE  H16S16596   0.143   3.173   8.177  0.6952  1.4049  1.1657
  150SAPE  C21716597   0.159   3.089   8.384 -0.9422  0.3813 -0.4406
  150SAPE  H17R16598   0.209   3.007   8.440  1.9580  2.1040 -0.3716
  150SAPE  H17S16599   0.049   3.071   8.395 -1.1280  1.9834  0.5362
  150SAPE  C21816600   0.202   3.221   8.445 -0.1231  0.0016  0.2188
  150SAPE  H18R16601   0.183   3.306   8.376 -0.5285  0.4356  0.8564
  150SAPE  H18S16602   0.312   3.213   8.460  0.0843  0.3424 -0.9954
  150SAPE  C21916603   0.140   3.249   8.583  0.2037 -0.3654 -0.0937
  150SAPE  H19R16604   0.030   3.243   8.570  0.2195 -0.5696 -0.1361
  150SAPE  H19S16605   0.179   3.350   8.608 -3.1396  0.5243  2.2234
  150SAPE  C22016606   0.196   3.151   8.688  0.7614  0.3589  0.1462
  150SAPE  H20R16607   0.205   3.048   8.647 -1.3616  0.6003 -1.0709
  150SAPE  H20S16608   0.125   3.148   8.774  1.5760  1.9710  0.9238
  150SAPE  H20T16609   0.292   3.190   8.728  0.4449  1.4073 -0.0769
  150SAPE   C3316610   0.829   3.515   7.112 -0.2836 -0.0854 -0.7728
  150SAPE   H3X16611   0.776   3.610   7.092 -0.5626 -0.1171 -0.2031
  150SAPE   H3Y16612   0.938   3.531   7.097 -0.2593 -0.2814 -0.8133
  150SAPE   C3416613   0.813   3.461   7.257  0.2894 -0.1252 -0.5666
  150SAPE   H4X16614   0.884   3.379   7.279  1.2066  0.7287 -0.2622
  150SAPE   H4Y16615   0.712   3.417   7.266 -0.1100  0.7593 -0.6106
  150SAPE   C3516616   0.836   3.574   7.356  0.3534  0.1316  0.0050
  150SAPE   H5X16617   0.770   3.660   7.333 -0.6399 -0.8079 -0.7509
  150SAPE   H5Y16618   0.940   3.611   7.345  0.8606 -1.6698 -1.9437
  150SAPE   C3616619   0.794   3.524   7.493  0.5738 -0.0893 -0.0880
  150SAPE   H6X16620   0.684   3.509   7.492  0.8259 -2.7186 -2.3705
  150SAPE   H6Y16621   0.819   3.606   7.564  0.7876  1.0335 -1.4089
  150SAPE   C3716622   0.875   3.403   7.539  0.2167  0.7412  0.1803
  150SAPE   H7X16623   0.982   3.428   7.521  0.4115  1.7136  2.2792
  150SAPE   H7Y16624   0.847   3.310   7.486 -0.8204  0.6731  0.8170
  150SAPE   C3816625   0.865   3.372   7.692 -0.2446  0.0526 -0.0802
  150SAPE   H8X16626   0.942   3.294   7.712  1.1969  1.6300  0.8267
  150SAPE   H8Y16627   0.760   3.353   7.724 -0.8547  0.7768 -1.5385
  150SAPE   C3916628   0.912   3.481   7.776 -0.0529 -0.8575  0.4745
  150SAPE   H9X16629   0.848   3.573   7.772 -1.6224 -1.9681 -2.1000
  150SAPE   H9Y16630   1.012   3.518   7.744  0.7172 -0.9573  2.6248
  150SAPE  C31016631   0.935   3.449   7.930  0.4740  0.5385  0.2097
  150SAPE  H10X16632   0.975   3.348   7.952  0.3812  0.3130 -0.6240
  150SAPE  H10Y16633   0.839   3.457   7.984  0.2435 -1.6476  0.1762
  150SAPE  C31116634   1.036   3.544   7.997 -0.4149  0.4783 -0.9336
  150SAPE  H11X16635   1.016   3.647   7.961 -0.3225  0.9015  0.1664
  150SAPE  H11Y16636   1.144   3.530   7.974  0.1544  1.4984  0.8918
  150SAPE  C31216637   1.023   3.556   8.155  0.5855  0.1385  0.6082
  150SAPE  H12X16638   1.126   3.579   8.189  0.1258  1.8471  0.9517
  150SAPE  H12Y16639   1.010   3.450   8.188  2.5572 -0.3996 -0.2161
  150SAPE  C31316640   0.923   3.657   8.212  0.9279 -0.5658 -0.2921
  150SAPE  H13X16641   0.909   3.747   8.147  0.5099 -0.6981 -0.3905
  150SAPE  H13Y16642   0.956   3.675   8.316  0.0780  0.7026 -0.2121
  150SAPE  C31416643   0.782   3.592   8.219 -0.0940  0.3010  0.5587
  150SAPE  H14X16644   0.790   3.503   8.284 -1.7246  1.0389  1.8485
  150SAPE  H14Y16645   0.740   3.558   8.123  0.0192  0.7294  0.3551
  150SAPE  C31516646   0.667   3.682   8.285  0.1875 -0.3734 -0.5191
  150SAPE  H15X16647   0.626   3.765   8.222  0.4167  0.7969  0.8284
  150SAPE  H15Y16648   0.719   3.734   8.368 -1.3467 -0.6272  0.6433
  150SAPE  C31616649   0.549   3.602   8.340  0.8588  0.3365 -0.3880
  150SAPE  H16X16650   0.579   3.505   8.386 -1.6768 -0.8247 -0.9664
  150SAPE  H16Y16651   0.478   3.577   8.257 -1.5470  0.6748  1.4729
  150SAPE  C31716652   0.454   3.672   8.443 -0.2500  0.1908 -0.1989
  150SAPE  H17X16653   0.438   3.778   8.412  1.3202  0.5393  0.0476
  150SAPE  H17Y16654   0.520   3.675   8.533  0.4922  0.6817 -0.7398
  150SAPE  C31816655   0.315   3.603   8.444  0.0605 -0.1255  0.3343
  150SAPE  H18X16656   0.242   3.649   8.513 -0.6527 -0.6213 -0.0762
  150SAPE  H18Y16657   0.325   3.495   8.468  1.3792 -0.2641 -0.6903
  150SAPE  H18Z16658   0.278   3.605   8.339 -0.5305  0.1711  0.5480
  151SAPE     N16659   4.105   2.611   6.332 -0.1361 -0.4401  0.1382
  151SAPE   HN116660   4.126   2.696   6.276  1.3449  0.3016  1.7568
  151SAPE   HN216661   4.025   2.631   6.396  0.6515  1.7050  0.5093
  151SAPE   HN316662   4.197   2.603   6.379  1.9798 -0.5327 -3.6165
  151SAPE   C1216663   4.068   2.487   6.253  0.1851 -0.1165  0.7896
  151SAPE  H12A16664   4.036   2.410   6.327 -2.0424 -0.7883 -0.7887
  151SAPE  H12B16665   4.160   2.443   6.208  0.4211 -0.8831  1.9653
  151SAPE   C1116666   3.955   2.531   6.164 -0.3491 -0.0807  0.4768
  151SAPE  H11A16667   3.928   2.440   6.107 -2.1612 -0.0869  1.2788
  151SAPE  H11B16668   3.992   2.616   6.102 -0.3445  1.1880  2.1404
  151SAPE     P16669   3.722   2.645   6.164  0.2792 -0.0792 -0.0626
  151SAPE   O1316670   3.768   2.700   6.036 -0.2909 -0.5552 -0.4005
  151SAPE   O1416671   3.614   2.547   6.161 -0.0086 -0.2507 -0.0162
  151SAPE   O1216672   3.848   2.588   6.242  0.3263 -0.0240 -0.5944
  151SAPE   O1116673   3.685   2.763   6.253 -0.3622 -0.0595 -0.0095
  151SAPE    C116674   3.742   2.796   6.382  0.1100 -0.5361  0.1663
  151SAPE    HA16675   3.852   2.780   6.388  0.3348  1.0151  0.6975
  151SAPE    HB16676   3.718   2.901   6.408 -0.4319 -0.9708  1.5369
  151SAPE    C216677   3.674   2.727   6.507 -0.5796  0.8545  0.4308
  151SAPE    HS16678   3.723   2.758   6.601  1.1274 -0.7616  0.1334
  151SAPE   O2116679   3.670   2.582   6.502 -0.9767  0.1320  0.2431
  151SAPE   C2116680   3.786   2.521   6.527  0.1112 -0.7366  0.3421
  151SAPE   O2216681   3.897   2.574   6.535  0.4538  0.3423  0.5756
  151SAPE   C2216682   3.758   2.368   6.524 -0.8009  0.4113  0.1123
  151SAPE   H2R16683   3.650   2.348   6.536 -0.7752 -0.3502 -0.7774
  151SAPE   H2S16684   3.787   2.331   6.423  1.5998  1.8047  0.2203
  151SAPE    C316685   3.527   2.767   6.526 -0.7594 -0.6095 -1.2078
  151SAPE    HX16686   3.486   2.696   6.601  2.4616 -2.9655 -1.4489
  151SAPE    HY16687   3.478   2.751   6.428  0.4190 -0.5144 -1.8327
  151SAPE   O3116688   3.518   2.904   6.562 -0.4830 -0.3055 -0.0125
  151SAPE   C3116689   3.397   2.956   6.589  0.1153  0.6456 -1.0503
  151SAPE   O3216690   3.291   2.891   6.584 -0.0051 -0.2490 -0.0625
  151SAPE   C3216691   3.413   3.093   6.653  0.2608 -0.0348 -0.4116
  151SAPE   H2X16692   3.311   3.126   6.682 -0.0020  1.1765 -2.5137
  151SAPE   H2Y16693   3.448   3.163   6.574  3.6715  0.1778  1.0821
  151SAPE   C2316694   3.847   2.298   6.637  0.5846  0.1227  0.0034
  151SAPE   H3R16695   3.955   2.322   6.631  0.7457 -0.7001 -0.5637
  151SAPE   H3S16696   3.852   2.192   6.605 -0.7441  0.1955 -0.5209
  151SAPE   C2416697   3.819   2.327   6.783 -0.1790  0.2454  0.5142
  151SAPE   H4R16698   3.808   2.437   6.801 -0.6008  0.3104 -0.0983
  151SAPE   H4S16699   3.906   2.292   6.841 -0.4750  1.2011  1.5684
  151SAPE   C2516700   3.691   2.261   6.832 -0.0958  0.5652  1.1824
  151SAPE   H5R16701   3.606   2.307   6.780  2.5036  1.6039 -2.5679
  151SAPE   C2616702   3.674   2.151   6.902 -0.5842 -0.2633 -0.1099
  151SAPE   H6R16703   3.583   2.104   6.944  0.9582 -4.7378 -1.2577
  151SAPE   C2716704   3.794   2.064   6.958  0.0733  0.2166 -0.4146
  151SAPE   H7R16705   3.847   2.107   7.045  1.4279 -3.9250  1.0488
  151SAPE   H7S16706   3.880   2.064   6.888  0.3590  1.9388 -0.1019
  151SAPE   C2816707   3.765   1.916   6.976 -0.2723  0.0273  0.4353
  151SAPE   H8R16708   3.721   1.860   6.892  0.1159  0.6338 -0.1847
  151SAPE   C2916709   3.786   1.845   7.088  0.2389  0.0475  0.6016
  151SAPE   H9R16710   3.761   1.739   7.075 -2.0671  0.8209 -2.2530
  151SAPE  C21016711   3.842   1.889   7.225  0.2025  0.5521 -0.1452
  151SAPE  H10R16712   3.780   1.852   7.310 -0.8417  2.5215  0.0125
  151SAPE  H10S16713   3.841   2.000   7.228 -0.1356  0.5267  0.9226
  151SAPE  C21116714   3.987   1.867   7.234  0.2069 -0.5032 -0.3607
  151SAPE  H11R16715   4.045   1.922   7.158  0.7468  0.9939  1.0659
  151SAPE  C21216716   4.048   1.799   7.335  0.1125 -0.1746 -0.0513
  151SAPE  H12R16717   4.157   1.791   7.325  0.1412 -0.0595  0.1724
  151SAPE  C21316718   3.993   1.728   7.455 -0.1513 -0.1994  0.0306
  151SAPE  H13R16719   4.064   1.644   7.474  0.6521  0.9474  2.6051
  151SAPE  H13S16720   3.892   1.690   7.430  0.2791  0.6421 -3.6826
  151SAPE  C21416721   3.998   1.801   7.583  0.2250  0.2767 -0.4788
  151SAPE  H14R16722   3.959   1.903   7.588  0.3159  0.2658  0.6115
  151SAPE  C21516723   4.050   1.763   7.707  0.1053 -0.0951 -0.0556
  151SAPE  H15R16724   4.046   1.837   7.788 -0.9032  0.2771 -0.4348
  151SAPE  C21616725   4.109   1.631   7.744  0.2985 -0.0907  0.0576
  151SAPE  H16R16726   4.218   1.647   7.760  0.4381  0.2726 -1.1909
  151SAPE  H16S16727   4.090   1.557   7.663  0.4310 -0.2024  0.1270
  151SAPE  C21716728   4.047   1.569   7.869  0.0144  0.2581 -0.5796
  151SAPE  H17R16729   3.953   1.518   7.839  0.6744 -0.5276 -1.3754
  151SAPE  H17S16730   4.032   1.647   7.946 -3.8142 -1.4593  0.6165
  151SAPE  C21816731   4.146   1.462   7.923 -0.0144  0.0603 -0.3536
  151SAPE  H18R16732   4.245   1.503   7.951 -0.4224 -0.3187  1.8023
  151SAPE  H18S16733   4.165   1.383   7.846 -0.0702 -0.9469  0.6453
  151SAPE  C21916734   4.087   1.380   8.036 -0.1003  0.1451  0.3095
  151SAPE  H19R16735   3.991   1.337   8.000  0.2633 -0.1964 -0.2767
  151SAPE  H19S16736   4.070   1.443   8.126 -0.4810  0.3177  0.1205
  151SAPE  C22016737   4.186   1.263   8.072  0.3289 -0.5288 -0.1799
  151SAPE  H20R16738   4.207   1.194   7.988 -0.0828 -0.7234 -0.1272
  151SAPE  H20S16739   4.282   1.305   8.109 -0.2103  0.3117  0.3002
  151SAPE  H20T16740   4.138   1.214   8.160 -2.5499  1.0257 -0.7372
  151SAPE   C3316741   3.525   3.105   6.764 -0.0944  0.3945 -0.3998
  151SAPE   H3X16742   3.502   3.208   6.799 -0.0176  0.8768 -1.7134
  151SAPE   H3Y16743   3.630   3.112   6.728  0.0230  0.9518  0.0401
  151SAPE   C3416744   3.503   2.995   6.873 -0.2078  0.8097 -0.3993
  151SAPE   H4X16745   3.547   2.903   6.828 -0.4036  0.2559  0.5262
  151SAPE   H4Y16746   3.399   2.985   6.912  0.5565  1.2203  1.8433
  151SAPE   C3516747   3.577   3.025   7.011  0.1101 -0.1787 -0.1123
  151SAPE   H5X16748   3.538   3.127   7.034 -1.9152 -0.0836 -3.4415
  151SAPE   H5Y16749   3.686   3.045   6.998 -0.0021  0.2495 -0.3946
  151SAPE   C3616750   3.556   2.904   7.110  0.0291  0.6424 -0.2029
  151SAPE   H6X16751   3.642   2.836   7.096 -0.9507 -0.4365 -1.1606
  151SAPE   H6Y16752   3.456   2.865   7.082 -0.4832  2.1886 -0.6748
  151SAPE   C3716753   3.565   2.952   7.253 -0.2902 -0.4931 -0.7969
  151SAPE   H7X16754   3.511   3.049   7.240  0.6906  0.2763  0.5633
  151SAPE   H7Y16755   3.671   2.963   7.284 -0.7587 -0.7876  0.9604
  151SAPE   C3816756   3.492   2.864   7.347 -0.0085  1.1222  0.4127
  151SAPE   H8X16757   3.560   2.777   7.359  0.9807  1.5294 -1.7728
  151SAPE   H8Y16758   3.396   2.825   7.307 -0.7912  2.6444  0.7262
  151SAPE   C3916759   3.485   2.927   7.483 -0.2034 -0.3097 -0.1515
  151SAPE   H9X16760   3.590   2.945   7.516 -0.8320  1.1957  1.2017
  151SAPE   H9Y16761   3.438   2.851   7.550 -0.2919 -1.4363 -1.4595
  151SAPE  C31016762   3.421   3.069   7.483 -0.7918 -0.1663 -0.4867
  151SAPE  H10X16763   3.316   3.065   7.446 -1.6787 -1.2545  1.9640
  151SAPE  H10Y16764   3.479   3.148   7.430  2.5297 -2.7156 -0.9899
  151SAPE  C31116765   3.387   3.146   7.621 -1.2866  0.2551  0.0073
  151SAPE  H11X16766   3.346   3.065   7.685 -0.9459 -0.7572 -1.0151
  151SAPE  H11Y16767   3.308   3.213   7.581  0.8525  0.4443 -4.6048
  151SAPE  C31216768   3.518   3.207   7.686  0.0540 -0.6894 -0.3302
  151SAPE  H12X16769   3.567   3.285   7.624  0.5219 -1.1592 -0.5560
  151SAPE  H12Y16770   3.596   3.131   7.708 -1.5503 -2.9321 -1.9551
  151SAPE  C31316771   3.487   3.280   7.820 -0.1002 -0.9672  0.1899
  151SAPE  H13X16772   3.459   3.201   7.894  0.7341 -2.2571 -0.8155
  151SAPE  H13Y16773   3.416   3.365   7.817  2.1965  1.0941  1.0368
  151SAPE  C31416774   3.622   3.338   7.884  0.2853 -0.4140  1.2725
  151SAPE  H14X16775   3.670   3.419   7.825  2.2882 -0.3333  2.9151
  151SAPE  H14Y16776   3.703   3.263   7.891  0.3922 -0.4657 -0.2355
  151SAPE  C31516777   3.600   3.401   8.030  0.4885 -0.4510 -0.2371
  151SAPE  H15X16778   3.534   3.349   8.102 -1.0106  1.3307 -0.2606
  151SAPE  H15Y16779   3.534   3.488   8.011  0.3614 -0.4587  0.1683
  151SAPE  C31616780   3.728   3.445   8.091  0.2892  1.1511  0.5967
  151SAPE  H16X16781   3.804   3.364   8.084  2.4708  3.2035 -0.9169
  151SAPE  H16Y16782   3.702   3.460   8.198  0.1350 -1.1559  0.9377
  151SAPE  C31716783   3.784   3.571   8.034  0.0160 -0.4734  0.7450
  151SAPE  H17X16784   3.702   3.644   8.021 -0.0781 -0.4382  1.4976
  151SAPE  H17Y16785   3.833   3.563   7.934  0.9515 -1.4319  1.2592
  151SAPE  C31816786   3.895   3.619   8.131 -0.1371 -0.4160 -0.2365
  151SAPE  H18X16787   3.849   3.640   8.230  1.6127 -1.0427  0.7628
  151SAPE  H18Y16788   3.947   3.710   8.095 -0.0878 -0.2499  0.2527
  151SAPE  H18Z16789   3.980   3.548   8.143  0.2684  0.1245  0.1395
  152SAPE     N16790   0.415   4.948   6.495  0.3284 -0.6488  0.2048
  152SAPE   HN116791   0.387   4.890   6.414 -0.3577 -0.3280  0.2047
  152SAPE   HN216792   0.445   5.034   6.444 -0.0642 -0.3303  0.5038
  152SAPE   HN316793   0.498   4.906   6.541  1.1542 -0.0991 -0.7332
  152SAPE   C1216794   0.301   4.963   6.589  0.0125 -0.6921  0.1627
  152SAPE  H12A16795   0.341   4.988   6.690 -0.0722  0.7583 -0.1498
  152SAPE  H12B16796   0.241   4.871   6.574 -2.5424  1.1009 -1.2023
  152SAPE   C1116797   0.210   5.081   6.545  0.2145 -0.4833 -0.5009
  152SAPE  H11A16798   0.253   5.183   6.552 -0.3475 -0.2579 -0.2604
  152SAPE  H11B16799   0.120   5.092   6.609  0.7042  0.2516  0.0765
  152SAPE     P16800   0.069   4.983   6.343 -0.1340  0.0161 -0.0239
  152SAPE   O1316801   0.054   5.007   6.199  0.8798  0.1743 -0.0200
  152SAPE   O1416802   0.075   4.841   6.383  0.0575  0.7152 -0.5112
  152SAPE   O1216803   0.183   5.073   6.405 -0.0934 -0.2615 -0.5459
  152SAPE   O1116804  -0.054   5.043   6.411 -0.2747  0.0953 -0.1889
  152SAPE    C116805  -0.185   4.979   6.418  0.5918 -0.2935 -0.8244
  152SAPE    HA16806  -0.260   5.018   6.346 -0.5127 -2.9297 -1.2293
  152SAPE    HB16807  -0.178   4.872   6.388 -2.1434 -0.1771 -2.1696
  152SAPE    C216808  -0.251   4.956   6.563 -0.5073  0.1141 -0.5233
  152SAPE    HS16809  -0.295   5.051   6.599  2.4448  0.4356  2.6740
  152SAPE   O2116810  -0.147   4.923   6.658 -0.5656  0.4078 -0.3692
  152SAPE   C2116811  -0.095   4.801   6.660 -0.3430  1.0386 -0.0068
  152SAPE   O2216812  -0.132   4.708   6.591  0.5908 -0.3569  0.2479
  152SAPE   C2216813   0.021   4.789   6.762 -0.1458  0.5755 -0.3771
  152SAPE   H2R16814   0.102   4.855   6.725 -1.0489  1.9792  0.0640
  152SAPE   H2S16815  -0.011   4.825   6.862  1.6076  0.4545  0.2642
  152SAPE    C316816  -0.373   4.855   6.557  0.1484  0.5857 -0.3544
  152SAPE    HX16817  -0.345   4.765   6.498  0.7507  0.4210  0.1724
  152SAPE    HY16818  -0.454   4.902   6.497 -1.8441 -0.1197  1.6735
  152SAPE   O3116819  -0.419   4.821   6.686 -0.4750 -0.2184 -0.5033
  152SAPE   C3116820  -0.480   4.917   6.762 -0.3155  0.1479  0.2990
  152SAPE   O3216821  -0.515   5.024   6.715 -0.2036 -0.1889  0.1863
  152SAPE   C3216822  -0.501   4.858   6.908  0.7288 -0.3134  0.5941
  152SAPE   H2X16823  -0.402   4.857   6.959  1.2565 -2.5730 -0.3272
  152SAPE   H2Y16824  -0.538   4.753   6.907  0.0565 -0.0846  1.0163
  152SAPE   C2316825   0.083   4.645   6.781  0.1293 -0.0069 -0.1751
  152SAPE   H3R16826   0.106   4.602   6.681  0.0791 -0.0409 -0.1723
  152SAPE   H3S16827  -0.006   4.584   6.810 -1.6852  1.1217 -2.9299
  152SAPE   C2416828   0.202   4.634   6.875  0.2684 -0.2330  0.6242
  152SAPE   H4R16829   0.161   4.682   6.966  1.3006 -2.7909  2.5263
  152SAPE   H4S16830   0.279   4.709   6.845 -1.8907  1.5244 -0.9795
  152SAPE   C2516831   0.259   4.495   6.908  0.6106  0.1332 -0.5828
  152SAPE   H5R16832   0.266   4.423   6.825  3.2524  0.0926 -0.4029
  152SAPE   C2616833   0.302   4.467   7.035 -0.1684 -0.1606 -0.5773
  152SAPE   H6R16834   0.348   4.370   7.059  1.6998  0.8244 -0.0131
  152SAPE   C2716835   0.301   4.562   7.154  0.7230 -0.0876  0.2028
  152SAPE   H7R16836   0.288   4.667   7.122 -0.6709  0.1964  1.5415
  152SAPE   H7S16837   0.401   4.550   7.201 -0.0303 -2.2560  1.4348
  152SAPE   C2816838   0.188   4.546   7.255 -0.5258  0.4511 -0.2219
  152SAPE   H8R16839   0.088   4.563   7.213  0.6891  2.2597 -2.6226
  152SAPE   C2916840   0.212   4.509   7.390  0.0467  0.3664  0.4568
  152SAPE   H9R16841   0.117   4.517   7.446 -0.1497  2.4773 -0.0894
  152SAPE  C21016842   0.348   4.481   7.455  0.4584 -0.2409  0.2016
  152SAPE  H10R16843   0.338   4.478   7.566  1.1687  0.1805  0.2809
  152SAPE  H10S16844   0.421   4.561   7.431  2.5096 -2.0759  0.0491
  152SAPE  C21116845   0.406   4.341   7.426  0.0016 -0.0150 -0.8405
  152SAPE  H11R16846   0.394   4.318   7.319  0.4423  0.3733 -0.9787
  152SAPE  C21216847   0.473   4.255   7.509 -0.0560  0.5556 -0.3266
  152SAPE  H12R16848   0.501   4.162   7.457  0.8053  0.8206 -0.3435
  152SAPE  C21316849   0.504   4.268   7.659  0.5686  0.1057  0.6804
  152SAPE  H13R16850   0.431   4.202   7.710 -0.3481  0.8191  0.3159
  152SAPE  H13S16851   0.480   4.373   7.687  3.5487  1.3034 -0.8063
  152SAPE  C21416852   0.643   4.229   7.690 -0.4045 -0.1980 -0.7397
  152SAPE  H14R16853   0.696   4.151   7.633  1.1573 -0.2081  0.6506
  152SAPE  C21516854   0.716   4.280   7.787 -0.4263  0.2088 -0.7261
  152SAPE  H15R16855   0.823   4.252   7.788 -0.6288 -0.6265  1.2679
  152SAPE  C21616856   0.671   4.364   7.904 -0.3327  0.3840  0.2359
  152SAPE  H16R16857   0.561   4.380   7.910 -0.4615 -0.9489  4.0999
  152SAPE  H16S16858   0.703   4.466   7.876 -1.0347  1.7781  4.0279
  152SAPE  C21716859   0.739   4.323   8.031 -0.4955  0.0805 -0.2815
  152SAPE  H17R16860   0.702   4.398   8.104 -0.7427 -0.6155  0.3190
  152SAPE  H17S16861   0.848   4.337   8.016 -0.5502 -1.2123 -2.2535
  152SAPE  C21816862   0.707   4.185   8.092  0.6991 -0.4786 -0.1364
  152SAPE  H18R16863   0.726   4.105   8.018 -1.5086 -0.5703 -0.6621
  152SAPE  H18S16864   0.600   4.176   8.120  0.5659  1.5304  0.1840
  152SAPE  C21916865   0.803   4.150   8.210  0.5431  0.2122 -0.4101
  152SAPE  H19R16866   0.799   4.216   8.300  2.4314  0.8090 -0.6977
  152SAPE  H19S16867   0.907   4.163   8.173  0.8604  2.1102  0.9392
  152SAPE  C22016868   0.779   4.009   8.250 -0.4856 -0.0722 -0.0715
  152SAPE  H20R16869   0.774   3.937   8.166  0.1839  0.7475 -0.8226
  152SAPE  H20S16870   0.691   4.004   8.318  1.4040  2.2529  2.8258
  152SAPE  H20T16871   0.864   3.974   8.312  0.3053  1.2763 -0.3659
  152SAPE   C3316872  -0.603   4.951   6.977 -0.1468  0.0717 -0.2508
  152SAPE   H3X16873  -0.709   4.923   6.955 -1.3384  2.3001  2.0268
  152SAPE   H3Y16874  -0.588   5.058   6.953 -0.8848  0.7963  2.2231
  152SAPE   C3416875  -0.586   4.959   7.129  0.8992 -0.2450 -0.0931
  152SAPE   H4X16876  -0.674   5.012   7.171  1.8856  1.1344  0.3239
  152SAPE   H4Y16877  -0.488   5.008   7.150 -0.1688  1.9489  0.0817
  152SAPE   C3516878  -0.569   4.818   7.185  0.4509 -0.3764  0.2089
  152SAPE   H5X16879  -0.475   4.769   7.152  0.4795 -1.0113  1.1829
  152SAPE   H5Y16880  -0.645   4.749   7.144 -2.8405  0.0214  4.9175
  152SAPE   C3616881  -0.583   4.788   7.338 -0.0970  0.0338 -0.5668
  152SAPE   H6X16882  -0.534   4.691   7.360 -2.0895 -0.4360  2.6049
  152SAPE   H6Y16883  -0.690   4.780   7.367 -0.6487  1.4864 -2.0483
  152SAPE   C3716884  -0.530   4.887   7.437 -0.1044  0.7134  0.0138
  152SAPE   H7X16885  -0.532   4.987   7.388  0.7561  0.9445  0.4343
  152SAPE   H7Y16886  -0.426   4.861   7.467 -0.4706 -1.2862 -0.3117
  152SAPE   C3816887  -0.602   4.887   7.572 -0.2548  0.0579 -0.0781
  152SAPE   H8X16888  -0.608   4.781   7.605  0.7431 -0.5280 -1.6843
  152SAPE   H8Y16889  -0.707   4.917   7.555  0.0450  0.3701 -1.5257
  152SAPE   C3916890  -0.544   4.980   7.677  0.1879  0.0127  0.3629
  152SAPE   H9X16891  -0.592   5.080   7.676  0.6547  0.2414 -0.6272
  152SAPE   H9Y16892  -0.433   4.992   7.681  0.0577  0.9957  1.3548
  152SAPE  C31016893  -0.576   4.922   7.818  0.4919 -0.3999 -0.7673
  152SAPE  H10X16894  -0.528   4.988   7.894  0.5497 -0.9801 -0.2909
  152SAPE  H10Y16895  -0.534   4.820   7.828  0.3215 -0.4407 -0.4653
  152SAPE  C31116896  -0.730   4.923   7.849 -0.0086  0.3049 -0.0883
  152SAPE  H11X16897  -0.775   4.858   7.770  1.1814 -1.5043  0.6563
  152SAPE  H11Y16898  -0.763   5.027   7.827  1.5763  0.4655 -2.0255
  152SAPE  C31216899  -0.765   4.892   7.993 -0.1473 -0.4785  0.0039
  152SAPE  H12X16900  -0.875   4.912   7.996  0.1365  1.2775  3.0181
  152SAPE  H12Y16901  -0.721   4.965   8.065  1.1133  0.9322 -2.1068
  152SAPE  C31316902  -0.736   4.747   8.036  0.0596  0.2604  0.9321
  152SAPE  H13X16903  -0.643   4.706   7.992 -1.0666  0.1038 -1.4554
  152SAPE  H13Y16904  -0.820   4.681   8.005  1.0039 -1.7258  2.3574
  152SAPE  C31416905  -0.727   4.731   8.190  0.5561  0.7126  0.4579
  152SAPE  H14X16906  -0.752   4.825   8.243 -0.1780  1.0878 -0.5267
  152SAPE  H14Y16907  -0.620   4.711   8.214  1.0004  0.2768 -1.6622
  152SAPE  C31516908  -0.812   4.610   8.236  0.0621  0.0326  0.5350
  152SAPE  H15X16909  -0.744   4.527   8.205  2.2994  2.6673 -2.1923
  152SAPE  H15Y16910  -0.911   4.610   8.188 -1.8260 -1.6060  4.0035
  152SAPE  C31616911  -0.831   4.587   8.390 -0.0827 -0.0251 -0.2589
  152SAPE  H16X16912  -0.887   4.491   8.390  0.6122 -0.4380 -1.4818
  152SAPE  H16Y16913  -0.894   4.668   8.434  1.2452  0.5090  0.7336
  152SAPE  C31716914  -0.704   4.579   8.475 -0.8901  0.4120  0.3024
  152SAPE  H17X16915  -0.655   4.678   8.482 -1.9389  1.0013 -0.3077
  152SAPE  H17Y16916  -0.633   4.513   8.422 -0.7726  2.0594 -1.6900
  152SAPE  C31816917  -0.731   4.536   8.621 -0.1119 -0.0365  0.0903
  152SAPE  H18X16918  -0.634   4.512   8.671  0.4352 -0.1759 -1.0042
  152SAPE  H18Y16919  -0.787   4.441   8.628 -0.7936  0.4762  2.2470
  152SAPE  H18Z16920  -0.795   4.612   8.670 -0.0975  1.6846 -2.3390
  153SAPE     N16921   4.944   0.650   6.415  0.0826 -0.1284  0.2290
  153SAPE   HN116922   5.046   0.637   6.399 -0.1027  0.1048 -1.3251
  153SAPE   HN216923   4.929   0.668   6.516  2.2183  1.3655  0.3449
  153SAPE   HN316924   4.889   0.567   6.385 -0.0157  0.3586 -1.0028
  153SAPE   C1216925   4.889   0.774   6.349 -0.3657 -0.5878 -0.2824
  153SAPE  H12A16926   4.778   0.768   6.341 -0.8988  1.9977  2.9003
  153SAPE  H12B16927   4.936   0.795   6.251  0.8252  1.5977  0.7004
  153SAPE   C1116928   4.908   0.907   6.435  0.8954  0.5817 -0.0096
  153SAPE  H11A16929   4.872   0.885   6.538  3.1488 -0.5508  0.6121
  153SAPE  H11B16930   4.841   0.988   6.400  1.0977  0.7278 -0.0612
  153SAPE     P16931   5.099   1.035   6.329 -0.0049  0.0974  0.2248
  153SAPE   O1316932   5.228   0.978   6.273  0.3371  0.2471  0.2086
  153SAPE   O1416933   4.990   1.060   6.226  0.4642 -0.1511 -0.7475
  153SAPE   O1216934   5.047   0.933   6.440  0.5729 -0.4821 -0.3779
  153SAPE   O1116935   5.132   1.172   6.405 -0.2035  0.2213  0.9164
  153SAPE    C116936   5.039   1.239   6.491  0.1566  0.1965  0.2271
  153SAPE    HA16937   5.023   1.343   6.456 -1.5911  0.4158  1.5511
  153SAPE    HB16938   4.936   1.201   6.477  0.8275 -1.2730 -1.0038
  153SAPE    C216939   5.078   1.235   6.645 -0.6638  0.0534  0.6956
  153SAPE    HS16940   5.058   1.133   6.682  2.7227 -0.7433  0.6060
  153SAPE   O2116941   5.007   1.337   6.710 -0.6338 -1.0335 -0.3031
  153SAPE   C2116942   4.882   1.303   6.744  0.4698 -0.3564  0.1610
  153SAPE   O2216943   4.836   1.192   6.735  0.1847  0.0700  0.6779
  153SAPE   C2216944   4.813   1.435   6.794  0.1886 -0.3431 -0.2161
  153SAPE   H2R16945   4.869   1.468   6.885 -3.2921  2.0227  1.3033
  153SAPE   H2S16946   4.821   1.522   6.725 -4.1959  0.9014  0.5406
  153SAPE    C316947   5.226   1.267   6.651  0.1924 -0.2247  0.7624
  153SAPE    HX16948   5.250   1.359   6.593 -0.6924 -0.1145  0.5510
  153SAPE    HY16949   5.280   1.194   6.588  0.4763 -0.2179  0.9959
  153SAPE   O3116950   5.279   1.277   6.784  0.6795 -0.2764  0.5617
  153SAPE   C3116951   5.310   1.163   6.839 -0.6051 -0.6186 -0.4501
  153SAPE   O3216952   5.291   1.055   6.786 -0.0525  0.2669 -0.0852
  153SAPE   C3216953   5.355   1.178   6.984  0.4906  0.3091 -0.0574
  153SAPE   H2X16954   5.421   1.268   6.989  0.6995  0.2725 -1.5726
  153SAPE   H2Y16955   5.408   1.083   7.006 -0.2254 -0.3817 -1.2167
  153SAPE   C2316956   4.662   1.424   6.842  0.5561  0.1950  0.0463
  153SAPE   H3R16957   4.621   1.351   6.769 -0.3505  0.0623  0.6665
  153SAPE   H3S16958   4.598   1.511   6.817  1.5151  0.6944 -0.7235
  153SAPE   C2416959   4.644   1.381   6.989 -0.0598 -0.4432  0.2296
  153SAPE   H4R16960   4.544   1.413   7.026 -0.2622  0.0374 -0.6940
  153SAPE   H4S16961   4.718   1.440   7.047 -0.1029  2.4958 -2.3849
  153SAPE   C2516962   4.663   1.235   6.997  0.1291 -0.0381 -0.2208
  153SAPE   H5R16963   4.694   1.170   6.914 -1.7175 -0.2343 -0.8200
  153SAPE   C2616964   4.613   1.160   7.100 -0.5583 -0.0170  0.3676
  153SAPE   H6R16965   4.618   1.050   7.098 -4.1916 -0.3185  0.6795
  153SAPE   C2716966   4.543   1.212   7.224  0.3799 -0.1034 -0.7800
  153SAPE   H7R16967   4.588   1.310   7.250 -0.6922 -0.0187  0.8393
  153SAPE   H7S16968   4.556   1.153   7.317  0.0685  2.4599  0.9772
  153SAPE   C2816969   4.392   1.239   7.199  0.2680  0.5660 -0.0197
  153SAPE   H8R16970   4.367   1.276   7.099  0.7298 -2.3223 -1.3073
  153SAPE   C2916971   4.299   1.230   7.295 -0.1252 -0.4316 -0.5609
  153SAPE   H9R16972   4.195   1.260   7.277  0.1239  0.4229 -0.6042
  153SAPE  C21016973   4.318   1.187   7.440  0.4190 -0.1932  0.1168
  153SAPE  H10R16974   4.260   1.245   7.515  1.4435 -3.9860  4.2598
  153SAPE  H10S16975   4.421   1.208   7.475 -0.0009  0.2330  1.1165
  153SAPE  C21116976   4.295   1.040   7.453 -0.2869  1.2542 -0.4619
  153SAPE  H11R16977   4.273   0.985   7.360  1.0130 -0.3083  0.1102
  153SAPE  C21216978   4.315   0.969   7.574 -0.0369 -0.6691  0.2580
  153SAPE  H12R16979   4.296   0.861   7.561  0.0560 -0.4346 -2.6353
  153SAPE  C21316980   4.351   1.021   7.711 -0.3341  0.1697 -0.1472
  153SAPE  H13R16981   4.321   1.128   7.717 -0.9378  0.0872 -1.3611
  153SAPE  H13S16982   4.461   1.034   7.724 -0.2577  0.4684 -0.9762
  153SAPE  C21416983   4.287   0.954   7.832 -0.2447  0.4544  0.4197
  153SAPE  H14R16984   4.185   0.918   7.815  0.2938 -0.7751 -0.3805
  153SAPE  C21516985   4.346   0.921   7.947  0.3264 -0.0643 -0.0432
  153SAPE  H15R16986   4.294   0.854   8.017  1.1607 -2.2313 -1.3870
  153SAPE  C21616987   4.493   0.945   7.992  0.3003 -0.9352  0.7994
  153SAPE  H16R16988   4.539   1.007   7.912 -1.1641 -1.1780 -0.2818
  153SAPE  H16S16989   4.553   0.853   8.000 -1.1351 -2.0534 -0.5700
  153SAPE  C21716990   4.484   1.033   8.116  0.4291  0.0109 -0.1823
  153SAPE  H17R16991   4.438   0.982   8.203 -0.7796  0.9492 -0.2288
  153SAPE  H17S16992   4.403   1.109   8.111  0.3699  0.1489  1.8734
  153SAPE  C21816993   4.622   1.081   8.156 -0.1961 -0.4156 -0.5191
  153SAPE  H18R16994   4.675   1.113   8.063 -0.1261 -1.5855 -0.8959
  153SAPE  H18S16995   4.682   0.998   8.200  1.7728  2.1166  1.9554
  153SAPE  C21916996   4.629   1.189   8.268  0.4698  0.0193  0.7496
  153SAPE  H19R16997   4.602   1.288   8.226 -0.9905  0.5536  2.8119
  153SAPE  H19S16998   4.729   1.214   8.308  1.1667 -0.2947 -0.7097
  153SAPE  C22016999   4.530   1.168   8.390  0.2589 -0.2662  0.5090
  153SAPE  H20R17000   4.566   1.082   8.451 -1.4102 -1.1673  0.2872
  153SAPE  H20S17001   4.425   1.163   8.355  0.5820  1.6569 -0.8576
  153SAPE  H20T17002   4.528   1.259   8.454  1.9903 -0.9832  1.6658
  153SAPE   C3317003   5.236   1.198   7.086  0.5474 -0.7938  0.1580
  153SAPE   H3X17004   5.151   1.128   7.073  0.6835 -0.7851 -0.8734
  153SAPE   H3Y17005   5.205   1.299   7.051  0.1119 -1.1519 -0.5129
  153SAPE   C3417006   5.284   1.215   7.231  0.6615  0.2790 -0.6525
  153SAPE   H4X17007   5.203   1.237   7.304  0.6225 -1.2091 -0.2247
  153SAPE   H4Y17008   5.363   1.293   7.241  0.5601  0.0964  2.7730
  153SAPE   C3517009   5.343   1.082   7.285 -0.3758  0.1297 -0.2358
  153SAPE   H5X17010   5.434   1.058   7.226 -1.0568 -0.8829 -0.8955
  153SAPE   H5Y17011   5.264   1.004   7.280 -0.0843 -0.3040  1.3107
  153SAPE   C3617012   5.384   1.107   7.431  0.1577  0.2177 -0.6872
  153SAPE   H6X17013   5.289   1.124   7.486 -0.5446 -2.3387 -0.9664
  153SAPE   H6Y17014   5.453   1.193   7.443  0.5586  0.0606 -1.7452
  153SAPE   C3717015   5.459   0.991   7.478 -0.2602 -0.1926  0.1537
  153SAPE   H7X17016   5.559   0.983   7.431  0.1146 -0.7959  1.0212
  153SAPE   H7Y17017   5.409   0.892   7.474  2.2456 -1.5081 -2.0050
  153SAPE   C3817018   5.495   1.012   7.628 -0.1477  0.1401 -0.2533
  153SAPE   H8X17019   5.399   0.999   7.682  0.0816  0.5774  0.2803
  153SAPE   H8Y17020   5.532   1.112   7.661  0.4725 -0.8021  2.1167
  153SAPE   C3917021   5.594   0.896   7.672  0.9091 -0.2031 -0.1171
  153SAPE   H9X17022   5.677   0.884   7.600  1.1433  0.2966  0.0625
  153SAPE   H9Y17023   5.540   0.799   7.682 -1.3152  1.0821  1.3554
  153SAPE  C31017024   5.665   0.937   7.805  0.0237 -0.2167  0.8028
  153SAPE  H10X17025   5.716   1.032   7.777 -0.8501 -0.4208 -1.7935
  153SAPE  H10Y17026   5.746   0.870   7.840 -0.1387 -0.1541  1.3001
  153SAPE  C31117027   5.565   0.958   7.921  0.5086 -0.2247 -0.3601
  153SAPE  H11X17028   5.504   1.041   7.878  2.2434  0.7369 -1.1004
  153SAPE  H11Y17029   5.604   1.000   8.016  0.3678 -0.6296 -0.1194
  153SAPE  C31217030   5.471   0.838   7.955  0.5792 -0.8546  0.1136
  153SAPE  H12X17031   5.452   0.768   7.871 -0.7192 -0.9732  0.4808
  153SAPE  H12Y17032   5.372   0.879   7.983 -0.2020 -2.8217  0.4082
  153SAPE  C31317033   5.514   0.762   8.078  0.2959 -0.7321  0.1272
  153SAPE  H13X17034   5.623   0.764   8.096  0.0953  1.0484  1.3255
  153SAPE  H13Y17035   5.487   0.654   8.070 -0.2334 -0.6067  0.1559
  153SAPE  C31417036   5.467   0.822   8.209 -0.1827 -0.0914  0.1949
  153SAPE  H14X17037   5.368   0.872   8.201  0.4294  1.0990 -0.3405
  153SAPE  H14Y17038   5.547   0.894   8.239  0.3733 -0.0356 -1.3559
  153SAPE  C31517039   5.458   0.703   8.311  0.4032 -0.1780 -0.0900
  153SAPE  H15X17040   5.564   0.676   8.326  0.6927  1.3787  0.9546
  153SAPE  H15Y17041   5.413   0.618   8.256 -1.0854 -0.7759  1.9290
  153SAPE  C31617042   5.379   0.746   8.440  0.3251 -0.2083  0.8051
  153SAPE  H16X17043   5.278   0.789   8.428  0.5545 -0.1198 -1.1062
  153SAPE  H16Y17044   5.442   0.827   8.484  0.2187 -0.1327  0.8179
  153SAPE  C31717045   5.379   0.628   8.533 -0.5078  0.0704  0.6264
  153SAPE  H17X17046   5.486   0.598   8.543 -0.0040  0.7807 -1.9280
  153SAPE  H17Y17047   5.330   0.539   8.489 -0.7394  0.0913  0.8414
  153SAPE  C31817048   5.331   0.662   8.670  0.0960  0.2548 -0.6310
  153SAPE  H18X17049   5.372   0.751   8.721 -1.4822  0.2658  0.7179
  153SAPE  H18Y17050   5.351   0.578   8.741 -0.3014 -0.7315 -1.6624
  153SAPE  H18Z17051   5.220   0.660   8.668  0.1027 -1.3380 -2.4920
  154SAPE     N17052   0.003   4.590   6.384  0.3332 -0.2575  0.1122
  154SAPE   HN117053  -0.050   4.553   6.465 -1.1107 -0.6078 -0.9613
  154SAPE   HN217054   0.030   4.690   6.393 -2.7075  0.6736 -0.0651
  154SAPE   HN317055  -0.067   4.590   6.307  1.5702  2.3663 -1.1593
  154SAPE   C1217056   0.123   4.510   6.347 -0.8810 -0.2645  0.3468
  154SAPE  H12A17057   0.098   4.404   6.372  0.0857 -0.9256 -1.3045
  154SAPE  H12B17058   0.199   4.547   6.420 -0.7558  1.9673 -0.8397
  154SAPE   C1117059   0.169   4.535   6.198  0.5641 -0.7055  0.0842
  154SAPE  H11A17060   0.081   4.526   6.130  0.7630  0.7733 -0.4228
  154SAPE  H11B17061   0.235   4.449   6.176  0.1854 -0.7902 -0.7770
  154SAPE     P17062   0.380   4.693   6.190 -0.3199  0.3319  0.0109
  154SAPE   O1317063   0.437   4.691   6.056  0.6726  0.1301  0.7373
  154SAPE   O1417064   0.401   4.820   6.266 -0.5412 -0.3161  0.9329
  154SAPE   O1217065   0.222   4.668   6.174  0.1454 -0.3105  0.3161
  154SAPE   O1117066   0.437   4.578   6.275  0.2199  0.2098 -0.3423
  154SAPE    C117067   0.562   4.584   6.341  0.0182  0.1442 -0.0402
  154SAPE    HA17068   0.645   4.539   6.282  1.9410  2.9440  0.3111
  154SAPE    HB17069   0.594   4.687   6.367  0.8624 -0.8404  3.3573
  154SAPE    C217070   0.543   4.506   6.473  0.3397 -0.3196  0.0784
  154SAPE    HS17071   0.445   4.519   6.524  1.7306 -3.1978  3.9794
  154SAPE   O2117072   0.642   4.548   6.572 -0.0085 -0.7501 -0.8014
  154SAPE   C2117073   0.619   4.653   6.650 -0.7685 -0.4335 -0.2707
  154SAPE   O2217074   0.532   4.741   6.643 -0.4675  0.1912 -0.3547
  154SAPE   C2217075   0.725   4.642   6.764  0.2941 -0.4777 -0.0933
  154SAPE   H2R17076   0.774   4.543   6.752  0.5863 -0.3010 -0.3680
  154SAPE   H2S17077   0.798   4.725   6.750  0.2396 -0.5415 -0.7859
  154SAPE    C317078   0.536   4.354   6.447 -0.2980 -0.1995  0.2713
  154SAPE    HX17079   0.638   4.322   6.418  0.0992 -0.5641  1.9636
  154SAPE    HY17080   0.472   4.333   6.359 -0.2765 -3.8867  0.9901
  154SAPE   O3117081   0.489   4.284   6.565 -0.8607  0.2769 -0.0082
  154SAPE   C3117082   0.522   4.157   6.563  0.6443  0.7116 -0.4404
  154SAPE   O3217083   0.564   4.095   6.465 -0.4458 -0.8660 -0.0929
  154SAPE   C3217084   0.527   4.101   6.713  0.1000 -0.3057  0.4293
  154SAPE   H2X17085   0.453   4.158   6.773  0.9668 -0.6679  1.8919
  154SAPE   H2Y17086   0.631   4.130   6.741  0.1723  1.5156 -1.4651
  154SAPE   C2317087   0.673   4.677   6.903  0.0480  0.8084  0.7842
  154SAPE   H3R17088   0.593   4.604   6.927 -1.1800  2.5407  2.3030
  154SAPE   H3S17089   0.628   4.779   6.903 -2.1358 -0.0757  2.0264
  154SAPE   C2417090   0.783   4.659   7.004 -0.2126  0.3090 -0.2038
  154SAPE   H4R17091   0.879   4.708   6.975  0.1716  0.6776  1.5696
  154SAPE   H4S17092   0.814   4.552   7.010  1.7546  0.8740  0.5068
  154SAPE   C2517093   0.730   4.724   7.130  0.0941  0.2636 -0.0074
  154SAPE   H5R17094   0.661   4.803   7.097 -0.3032 -0.8251 -1.9954
  154SAPE   C2617095   0.751   4.699   7.261  0.2194  0.6419 -0.0587
  154SAPE   H6R17096   0.698   4.766   7.329 -1.4641 -0.5958 -0.0913
  154SAPE   C2717097   0.824   4.586   7.320  0.2482  0.3768 -0.1797
  154SAPE   H7R17098   0.921   4.626   7.356  1.2787 -0.9157 -1.3791
  154SAPE   H7S17099   0.852   4.507   7.247  1.1443  0.2238  0.3209
  154SAPE   C2817100   0.760   4.517   7.440 -0.2820 -0.0287 -0.1209
  154SAPE   H8R17101   0.723   4.415   7.420 -0.5774  0.1227 -0.3624
  154SAPE   C2917102   0.763   4.566   7.564  0.6994 -0.0362  0.0988
  154SAPE   H9R17103   0.723   4.501   7.643  2.6339 -0.8154  0.4871
  154SAPE  C21017104   0.831   4.699   7.603  0.1829  0.1482  0.0225
  154SAPE  H10R17105   0.792   4.783   7.543  0.8383  0.9249  0.6705
  154SAPE  H10S17106   0.937   4.701   7.570 -0.0013 -0.6335 -0.6689
  154SAPE  C21117107   0.820   4.743   7.751 -0.0240  0.0636 -0.0238
  154SAPE  H11R17108   0.735   4.812   7.767 -1.0073 -1.1283  0.0835
  154SAPE  C21217109   0.887   4.698   7.859  0.2075 -0.4379 -0.7491
  154SAPE  H12R17110   0.882   4.748   7.957 -0.0164 -2.0787  0.1173
  154SAPE  C21317111   0.994   4.594   7.848  0.4151 -1.2446 -0.0349
  154SAPE  H13R17112   1.034   4.590   7.745  0.6755  0.7808 -0.0483
  154SAPE  H13S17113   0.951   4.494   7.871 -1.5094 -0.9567 -2.0828
  154SAPE  C21417114   1.113   4.623   7.943  0.5416 -1.1424  0.0998
  154SAPE  H14R17115   1.154   4.724   7.930 -1.0248 -0.6907 -1.8822
  154SAPE  C21517116   1.177   4.535   8.024 -0.1373  0.6599  0.0339
  154SAPE  H15R17117   1.257   4.561   8.095 -0.8834  0.4758  0.9554
  154SAPE  C21617118   1.160   4.389   8.051  0.1829  0.9606 -0.3304
  154SAPE  H16R17119   1.260   4.348   8.023 -0.1912  0.9939 -1.7789
  154SAPE  H16S17120   1.098   4.342   7.972 -1.1205  0.4744  0.9461
  154SAPE  C21717121   1.119   4.349   8.190  0.8793  0.1322 -0.7111
  154SAPE  H17R17122   1.098   4.240   8.188 -0.7975  0.3904  0.7189
  154SAPE  H17S17123   1.030   4.407   8.222  0.5833 -0.2138 -0.9009
  154SAPE  C21817124   1.217   4.358   8.306  0.0209 -0.2366 -0.2516
  154SAPE  H18R17125   1.232   4.466   8.328 -1.2601 -0.4404  1.8657
  154SAPE  H18S17126   1.315   4.321   8.268 -0.3805 -0.0575 -1.4779
  154SAPE  C21917127   1.176   4.285   8.436  0.3097  0.3725 -0.5943
  154SAPE  H19R17128   1.274   4.276   8.489  0.1321  1.3809 -0.0757
  154SAPE  H19S17129   1.139   4.185   8.405 -1.0669  1.1814 -1.6495
  154SAPE  C22017130   1.061   4.352   8.516 -0.2763 -0.9704 -0.2497
  154SAPE  H20R17131   1.015   4.288   8.593  1.8503 -0.0143  1.9218
  154SAPE  H20S17132   0.978   4.383   8.448 -0.6206 -0.6404  0.3151
  154SAPE  H20T17133   1.093   4.445   8.568  1.5841 -2.2948  1.0657
  154SAPE   C3317134   0.495   3.952   6.732  0.6374  0.3256  0.4454
  154SAPE   H3X17135   0.556   3.894   6.659  0.7538 -1.1391  1.6388
  154SAPE   H3Y17136   0.389   3.923   6.717  0.3531  0.4537  2.0604
  154SAPE   C3417137   0.540   3.916   6.871  0.0916  0.9845  0.0505
  154SAPE   H4X17138   0.647   3.944   6.881 -0.0138  2.0031 -1.3683
  154SAPE   H4Y17139   0.536   3.806   6.886 -1.4756  1.1581  1.2584
  154SAPE   C3517140   0.451   3.969   6.979  0.4978  0.3098 -0.1130
  154SAPE   H5X17141   0.341   3.960   6.971  0.4816 -0.4044  0.7423
  154SAPE   H5Y17142   0.480   4.076   6.993 -0.9575  0.6030  0.8478
  154SAPE   C3617143   0.500   3.904   7.107 -0.2356  0.0937  0.1801
  154SAPE   H6X17144   0.606   3.936   7.112 -1.0349  2.9926  0.1491
  154SAPE   H6Y17145   0.490   3.795   7.086 -3.1829  0.4843 -0.9401
  154SAPE   C3717146   0.408   3.930   7.228 -0.7153  0.1973  0.7216
  154SAPE   H7X17147   0.314   3.873   7.214 -1.3553  0.8814  2.0603
  154SAPE   H7Y17148   0.384   4.038   7.239 -0.0583  0.5008 -0.5725
  154SAPE   C3817149   0.463   3.886   7.368  0.0391  0.4369  0.4587
  154SAPE   H8X17150   0.552   3.947   7.393 -0.0221  0.3211  0.9619
  154SAPE   H8Y17151   0.490   3.778   7.362 -1.1052  0.1641 -0.0625
  154SAPE   C3917152   0.360   3.915   7.471  0.7727 -0.8404  0.6801
  154SAPE   H9X17153   0.277   3.842   7.457  0.0398  0.2309 -0.8824
  154SAPE   H9Y17154   0.307   4.010   7.449 -4.0824 -3.5102 -0.8711
  154SAPE  C31017155   0.415   3.903   7.612  0.1808  0.3067 -0.0136
  154SAPE  H10X17156   0.393   3.994   7.670 -1.0738  0.5403 -0.8174
  154SAPE  H10Y17157   0.525   3.888   7.616  0.0686 -0.3309  1.0940
  154SAPE  C31117158   0.347   3.787   7.694  0.5103  0.1897  0.0460
  154SAPE  H11X17159   0.381   3.690   7.652  2.8334  0.4888  1.0538
  154SAPE  H11Y17160   0.237   3.797   7.691  0.2386 -2.4145 -0.5911
  154SAPE  C31217161   0.409   3.791   7.830 -0.1124 -0.0504 -0.0640
  154SAPE  H12X17162   0.519   3.779   7.817 -0.2302 -2.5979  0.7198
  154SAPE  H12Y17163   0.386   3.691   7.873  1.1675  0.4346  1.9152
  154SAPE  C31317164   0.359   3.904   7.924 -0.9636 -0.3233  0.3086
  154SAPE  H13X17165   0.250   3.923   7.917 -1.0638 -1.2676 -1.2877
  154SAPE  H13Y17166   0.403   4.005   7.906  0.8984 -0.8411  1.6805
  154SAPE  C31417167   0.406   3.878   8.066  0.5564  1.2050  0.3748
  154SAPE  H14X17168   0.517   3.878   8.068  0.7512  5.3350 -1.0768
  154SAPE  H14Y17169   0.365   3.778   8.090 -2.1580  1.5358 -2.2663
  154SAPE  C31517170   0.369   3.997   8.154  0.8140 -0.4676  0.4150
  154SAPE  H15X17171   0.358   4.094   8.100  2.6344 -1.1128 -1.2261
  154SAPE  H15Y17172   0.454   4.008   8.223  0.5674 -2.0433  1.0095
  154SAPE  C31617173   0.236   3.985   8.225 -0.6652 -1.1428 -0.5149
  154SAPE  H16X17174   0.233   4.057   8.310  2.6853 -1.4727  0.0101
  154SAPE  H16Y17175   0.228   3.885   8.274  0.8033 -1.4143 -0.8027
  154SAPE  C31717176   0.112   4.028   8.145 -0.5081  0.3051 -0.3499
  154SAPE  H17X17177   0.085   3.938   8.085  1.3466 -0.9239  0.5662
  154SAPE  H17Y17178   0.132   4.108   8.071  0.3502  0.9350  0.5393
  154SAPE  C31817179  -0.012   4.059   8.235  0.0930  0.3712 -0.4713
  154SAPE  H18X17180   0.019   4.127   8.318  0.0467  0.0365 -0.1789
  154SAPE  H18Y17181  -0.058   3.972   8.285 -0.2565  0.3298 -0.8556
  154SAPE  H18Z17182  -0.091   4.107   8.173 -1.3594 -2.5258 -0.9906
  155SAPE     N17183   6.146   2.643   6.421 -0.3641 -0.4539  0.0686
  155SAPE   HN117184   6.069   2.713   6.415  1.1430  1.1509 -2.1815
  155SAPE   HN217185   6.103   2.548   6.425  0.6925 -1.0135 -1.2595
  155SAPE   HN317186   6.192   2.659   6.513  2.2465 -1.4090 -0.9841
  155SAPE   C1217187   6.235   2.681   6.301  0.0659  0.2637  0.1174
  155SAPE  H12A17188   6.225   2.790   6.283  1.2050  0.3777  0.0856
  155SAPE  H12B17189   6.190   2.616   6.223 -0.4646 -0.3193  0.8960
  155SAPE   C1117190   6.379   2.633   6.329 -0.0820  0.1822 -0.3792
  155SAPE  H11A17191   6.414   2.709   6.401 -1.4051  1.1101 -0.6829
  155SAPE  H11B17192   6.453   2.645   6.247  1.8660  1.2773  1.4486
  155SAPE     P17193   6.496   2.436   6.460 -0.0878 -0.1296  0.1507
  155SAPE   O1317194   6.453   2.302   6.505  0.2242 -0.0264  0.3504
  155SAPE   O1417195   6.619   2.436   6.378 -0.4240  0.1950  0.0557
  155SAPE   O1217196   6.370   2.502   6.387 -0.1637 -0.0863  0.4262
  155SAPE   O1117197   6.517   2.522   6.586 -0.0224  0.3053 -0.2083
  155SAPE    C117198   6.405   2.529   6.678  0.1885  0.1747 -0.4080
  155SAPE    HA17199   6.323   2.584   6.627  0.6624  1.8666  0.5724
  155SAPE    HB17200   6.357   2.431   6.699  2.0975 -0.9125 -0.8760
  155SAPE    C217201   6.453   2.600   6.810  0.2040  0.5677 -1.1659
  155SAPE    HS17202   6.493   2.700   6.783  1.8470 -0.1289 -1.4577
  155SAPE   O2117203   6.552   2.507   6.878  0.3170 -0.3198 -0.1850
  155SAPE   C2117204   6.658   2.568   6.929  0.8080  0.4666 -0.4086
  155SAPE   O2217205   6.684   2.686   6.916 -0.4476  0.1517 -0.0053
  155SAPE   C2217206   6.735   2.464   7.006 -0.2118 -0.2334  0.6538
  155SAPE   H2R17207   6.671   2.386   7.053  1.0273 -1.8955 -0.2981
  155SAPE   H2S17208   6.793   2.401   6.935 -0.0651  1.2736 -0.6227
  155SAPE    C317209   6.337   2.626   6.906  0.0610  0.1203 -1.6005
  155SAPE    HX17210   6.308   2.525   6.942  0.7231 -0.2713 -2.1364
  155SAPE    HY17211   6.258   2.673   6.843  0.1546  1.4117 -0.7910
  155SAPE   O3117212   6.361   2.698   7.030 -0.5786 -0.3681  0.0986
  155SAPE   C3117213   6.343   2.830   7.023 -0.2447 -0.0610 -0.4701
  155SAPE   O3217214   6.301   2.885   6.921 -0.2270 -0.0641 -0.2220
  155SAPE   C3217215   6.355   2.891   7.162  0.4827  0.1048 -0.8422
  155SAPE   H2X17216   6.463   2.892   7.190  0.8872  1.7041 -2.3275
  155SAPE   H2Y17217   6.304   2.825   7.236  0.6972  0.2017 -0.6055
  155SAPE   C2317218   6.837   2.515   7.104  0.2776  0.5150 -0.0168
  155SAPE   H3R17219   6.776   2.569   7.179 -0.6019 -0.4246 -0.0294
  155SAPE   H3S17220   6.903   2.587   7.051 -1.7139  2.0584 -0.5240
  155SAPE   C2417221   6.930   2.415   7.181  1.2318 -0.2607  0.4099
  155SAPE   H4R17222   6.988   2.468   7.259  0.5860  0.0070  0.7172
  155SAPE   H4S17223   7.009   2.381   7.111  2.8494  1.9632  1.0434
  155SAPE   C2517224   6.858   2.293   7.242  0.5203  0.3101  0.0347
  155SAPE   H5R17225   6.778   2.249   7.181 -1.4689  1.3050  1.7670
  155SAPE   C2617226   6.863   2.240   7.362  0.3984  0.2980  0.8375
  155SAPE   H6R17227   6.817   2.141   7.353  0.9243  0.2190 -2.3437
  155SAPE   C2717228   6.930   2.278   7.484  0.8249 -0.6970 -0.2853
  155SAPE   H7R17229   7.040   2.280   7.474  0.8539 -1.1261 -0.0741
  155SAPE   H7S17230   6.906   2.204   7.564 -1.7614  1.9338  1.5951
  155SAPE   C2817231   6.877   2.414   7.527  0.0605  0.1612 -0.3855
  155SAPE   H8R17232   6.850   2.484   7.447 -0.1406 -2.0828 -2.4244
  155SAPE   C2917233   6.859   2.455   7.652 -0.5197  0.2387 -0.7865
  155SAPE   H9R17234   6.814   2.551   7.679 -1.1927 -0.6320  1.4192
  155SAPE  C21017235   6.892   2.368   7.777 -0.6550  0.0037  0.1825
  155SAPE  H10R17236   7.000   2.379   7.800 -0.3693 -0.4001 -0.9397
  155SAPE  H10S17237   6.893   2.260   7.751 -0.0900  0.4205 -1.6790
  155SAPE  C21117238   6.809   2.387   7.901  0.0007 -0.3167  0.2993
  155SAPE  H11R17239   6.712   2.333   7.903 -0.1887 -0.0480 -0.9749
  155SAPE  C21217240   6.840   2.450   8.017 -0.1331  0.1347  0.2545
  155SAPE  H12R17241   6.758   2.448   8.091 -1.9830  1.6481 -1.6410
  155SAPE  C21317242   6.971   2.512   8.050  0.3718 -0.5595  0.6425
  155SAPE  H13R17243   7.024   2.547   7.960  0.8813 -1.9035  0.3919
  155SAPE  H13S17244   7.030   2.432   8.100  1.3967 -0.5774 -0.5486
  155SAPE  C21417245   6.974   2.626   8.145 -0.3157  0.4136  0.4613
  155SAPE  H14R17246   6.992   2.724   8.097  0.9931  0.4609  0.9959
  155SAPE  C21517247   6.967   2.621   8.277  1.0891 -0.3453  0.3153
  155SAPE  H15R17248   6.960   2.719   8.326 -2.1367 -2.0658  3.7390
  155SAPE  C21617249   6.948   2.502   8.364 -0.4754 -0.0222 -0.0524
  155SAPE  H16R17250   7.018   2.505   8.451  0.0871 -1.0236 -0.4620
  155SAPE  H16S17251   6.980   2.410   8.311  0.9913 -0.0931  0.8820
  155SAPE  C21717252   6.811   2.490   8.429  0.0077 -0.3250 -0.3097
  155SAPE  H17R17253   6.733   2.484   8.350 -2.1384  0.2417  1.6789
  155SAPE  H17S17254   6.783   2.571   8.499 -1.2620 -1.1487  0.1649
  155SAPE  C21817255   6.805   2.359   8.511 -0.1124  0.3247 -0.0287
  155SAPE  H18R17256   6.819   2.272   8.443  0.3264 -0.3645  0.9198
  155SAPE  H18S17257   6.698   2.339   8.537 -0.0355  0.3671  0.3254
  155SAPE  C21917258   6.887   2.355   8.634 -0.0407  0.6139  0.3407
  155SAPE  H19R17259   6.855   2.438   8.700 -0.5756 -0.7630  1.8653
  155SAPE  H19S17260   6.989   2.369   8.593 -0.6840  0.6791 -1.3552
  155SAPE  C22017261   6.877   2.223   8.701 -0.4948 -0.2593 -0.6474
  155SAPE  H20R17262   6.858   2.141   8.628 -1.7231 -1.2239  0.6917
  155SAPE  H20S17263   6.789   2.218   8.769 -0.7134  0.6808 -0.8493
  155SAPE  H20T17264   6.972   2.210   8.756 -0.1794  2.7516 -0.3130
  155SAPE   C3317265   6.299   3.036   7.168  0.7131  0.4547 -0.2839
  155SAPE   H3X17266   6.189   3.041   7.150  0.4701 -1.6676  0.3637
  155SAPE   H3Y17267   6.345   3.080   7.077 -0.6679 -0.9068 -1.7077
  155SAPE   C3417268   6.345   3.098   7.301  0.4056 -0.4937  0.2805
  155SAPE   H4X17269   6.455   3.106   7.309  0.2193  3.0044  0.6491
  155SAPE   H4Y17270   6.305   3.024   7.374  2.4670 -1.2471  0.6899
  155SAPE   C3517271   6.277   3.230   7.327  1.4956  0.0258 -0.5185
  155SAPE   H5X17272   6.171   3.235   7.296  0.0855  0.0607  3.6691
  155SAPE   H5Y17273   6.334   3.306   7.268  1.2895  1.1134  0.6333
  155SAPE   C3617274   6.286   3.269   7.478  0.5625 -0.2849  0.8116
  155SAPE   H6X17275   6.393   3.291   7.500  0.8909  1.8775 -2.2811
  155SAPE   H6Y17276   6.252   3.183   7.538  0.5741  0.0423  1.2924
  155SAPE   C3717277   6.214   3.396   7.523  0.4203  0.0142 -0.0244
  155SAPE   H7X17278   6.106   3.394   7.494  0.5826 -1.1741 -0.6055
  155SAPE   H7Y17279   6.255   3.485   7.471 -1.1098  0.9210  0.2365
  155SAPE   C3817280   6.229   3.397   7.678  0.5348  0.2063  0.0714
  155SAPE   H8X17281   6.328   3.350   7.696  1.0711  1.2192 -0.1445
  155SAPE   H8Y17282   6.140   3.357   7.730  1.6217 -1.6350  0.6169
  155SAPE   C3917283   6.246   3.533   7.729 -0.6160 -0.4309  0.2221
  155SAPE   H9X17284   6.160   3.600   7.711  0.7877  1.4578  0.2521
  155SAPE   H9Y17285   6.327   3.582   7.671 -1.3758  0.6367  0.0392
  155SAPE  C31017286   6.303   3.529   7.875  0.1083 -0.3049  0.6290
  155SAPE  H10X17287   6.380   3.453   7.899 -1.8621 -2.7763 -0.3436
  155SAPE  H10Y17288   6.215   3.480   7.922 -1.0214 -0.6618 -1.6808
  155SAPE  C31117289   6.332   3.669   7.927  0.0326 -0.2329 -0.4929
  155SAPE  H11X17290   6.245   3.735   7.904  2.2002  1.7744 -3.6510
  155SAPE  H11Y17291   6.417   3.710   7.869 -0.1493 -0.9302 -1.2747
  155SAPE  C31217292   6.357   3.664   8.081  0.0991  0.1490 -0.9188
  155SAPE  H12X17293   6.442   3.593   8.086 -0.2852 -0.3951 -1.8857
  155SAPE  H12Y17294   6.271   3.611   8.127 -0.2221 -0.7516 -2.4945
  155SAPE  C31317295   6.392   3.793   8.154  0.2374  0.0384  0.8587
  155SAPE  H13X17296   6.314   3.869   8.132 -0.9658 -1.5320 -0.6272
  155SAPE  H13Y17297   6.488   3.838   8.121  0.2207 -1.4900 -1.5099
  155SAPE  C31417298   6.391   3.770   8.308  0.4013  0.0871  0.2790
  155SAPE  H14X17299   6.295   3.729   8.346 -0.3983  1.2781 -0.3977
  155SAPE  H14Y17300   6.395   3.871   8.354  1.5643  0.4983 -0.6701
  155SAPE  C31517301   6.506   3.687   8.366 -0.5649  0.6026 -0.1464
  155SAPE  H15X17302   6.607   3.720   8.332  0.5741 -2.7216 -0.4146
  155SAPE  H15Y17303   6.494   3.581   8.333 -1.5378  0.1097  1.6868
  155SAPE  C31617304   6.511   3.681   8.517  0.0366  0.7504 -0.3788
  155SAPE  H16X17305   6.411   3.648   8.553  1.1113 -0.2549  1.9420
  155SAPE  H16Y17306   6.543   3.768   8.579  1.7213 -0.2681  0.2308
  155SAPE  C31717307   6.600   3.569   8.567  0.7150 -0.1955  0.1961
  155SAPE  H17X17308   6.704   3.600   8.588  0.1579  1.2902  0.9200
  155SAPE  H17Y17309   6.601   3.488   8.490  0.6700  0.5447 -0.6040
  155SAPE  C31817310   6.559   3.514   8.701 -0.1933 -0.3588 -0.4430
  155SAPE  H18X17311   6.631   3.439   8.739 -0.4799 -0.1487  0.5383
  155SAPE  H18Y17312   6.470   3.449   8.691 -0.3078 -0.3468  0.4069
  155SAPE  H18Z17313   6.552   3.597   8.776  2.1205 -1.7757  1.4921
  156SAPE     N17314   4.811   2.011   6.206 -0.1787  0.1661 -0.9521
  156SAPE   HN117315   4.785   2.079   6.132  0.8225  0.1762 -1.3112
  156SAPE   HN217316   4.902   1.972   6.175  0.0867  0.9675 -1.1963
  156SAPE   HN317317   4.734   1.941   6.208 -2.1332  2.2170  0.1952
  156SAPE   C1217318   4.816   2.071   6.347  0.5033  0.0170 -0.3062
  156SAPE  H12A17319   4.824   1.982   6.413  2.2879  0.0295 -0.4666
  156SAPE  H12B17320   4.714   2.111   6.368 -0.3104 -0.9155 -2.2486
  156SAPE   C1117321   4.929   2.163   6.368 -0.4897 -0.3303  0.5114
  156SAPE  H11A17322   4.937   2.172   6.478  0.4738 -0.2191  0.4414
  156SAPE  H11B17323   4.902   2.260   6.322 -0.0697 -0.3442  0.2300
  156SAPE     P17324   5.170   2.061   6.413  0.5180 -0.2252  0.1921
  156SAPE   O1317325   5.197   1.929   6.352 -0.2708 -0.1604 -0.3962
  156SAPE   O1417326   5.275   2.167   6.413  0.5412 -0.4456 -1.1293
  156SAPE   O1217327   5.053   2.112   6.321  0.4213 -0.1272 -0.0432
  156SAPE   O1117328   5.119   2.054   6.559  0.1018  0.3391 -0.6636
  156SAPE    C117329   5.207   2.061   6.673  0.1789  0.0700  0.2018
  156SAPE    HA17330   5.276   2.148   6.668 -1.1399  1.2924  1.7693
  156SAPE    HB17331   5.150   2.071   6.768 -0.7727 -2.1408 -0.0710
  156SAPE    C217332   5.286   1.932   6.688  0.8502 -0.0832  0.1781
  156SAPE    HS17333   5.299   1.890   6.586 -1.0286 -1.0737  0.3014
  156SAPE   O2117334   5.205   1.841   6.767 -0.3331 -0.1920  0.5339
  156SAPE   C2117335   5.241   1.716   6.775 -0.3004  0.4423 -0.1799
  156SAPE   O2217336   5.347   1.665   6.743  0.0132  0.4540 -0.1792
  156SAPE   C2217337   5.127   1.640   6.836 -0.0595 -1.1840  0.6312
  156SAPE   H2R17338   5.050   1.715   6.862  0.3405 -0.5225 -0.0426
  156SAPE   H2S17339   5.099   1.572   6.752  0.7968  0.6175 -1.2030
  156SAPE    C317340   5.426   1.950   6.754 -0.4711 -0.3909  0.2207
  156SAPE    HX17341   5.465   2.031   6.687  1.6667 -0.6482  1.0588
  156SAPE    HY17342   5.500   1.869   6.738  1.7613  1.5748  0.0199
  156SAPE   O3117343   5.419   2.004   6.885 -0.0026 -0.5747  0.1518
  156SAPE   C3117344   5.461   1.934   6.985 -0.1443  0.2604  0.8280
  156SAPE   O3217345   5.519   1.826   6.968 -0.2506 -0.4677  0.1418
  156SAPE   C3217346   5.423   1.999   7.119  0.6249  0.1657 -0.6289
  156SAPE   H2X17347   5.315   2.012   7.099  0.9483  1.3004 -1.7440
  156SAPE   H2Y17348   5.480   2.095   7.123  0.5678  0.1663  0.4224
  156SAPE   C2317349   5.167   1.563   6.960 -0.0959  0.0529  0.3174
  156SAPE   H3R17350   5.267   1.518   6.941  0.3652  0.6863  1.1408
  156SAPE   H3S17351   5.088   1.487   6.969 -0.6798  0.7572  1.2875
  156SAPE   C2417352   5.164   1.650   7.084  0.7647 -0.0920 -0.0327
  156SAPE   H4R17353   5.063   1.697   7.084  0.4815 -0.6735 -0.7441
  156SAPE   H4S17354   5.238   1.729   7.059  1.0438 -0.4153 -0.2445
  156SAPE   C2517355   5.189   1.567   7.211  0.0732  0.0410  1.0118
  156SAPE   H5R17356   5.293   1.529   7.217 -0.4043 -1.8546 -1.2587
  156SAPE   C2617357   5.110   1.532   7.310  0.1234  0.7666 -0.6222
  156SAPE   H6R17358   5.157   1.470   7.387  1.8851  1.7549 -0.8585
  156SAPE   C2717359   4.966   1.572   7.320  0.6902 -0.6106  0.1072
  156SAPE   H7R17360   4.914   1.523   7.235 -1.5837  0.8326  0.6121
  156SAPE   H7S17361   4.955   1.680   7.301  0.6793 -0.8265 -1.2107
  156SAPE   C2817362   4.904   1.546   7.453  0.2006 -0.0668 -0.1196
  156SAPE   H8R17363   4.820   1.476   7.459 -0.2568  0.5211  0.5068
  156SAPE   C2917364   4.947   1.591   7.576 -0.2905  0.5591  0.2701
  156SAPE   H9R17365   4.882   1.579   7.664  0.5652 -0.7650  0.7436
  156SAPE  C21017366   5.058   1.681   7.616 -0.9403 -0.0088  0.1044
  156SAPE  H10R17367   5.012   1.778   7.647 -1.0096  0.4191 -1.2657
  156SAPE  H10S17368   5.127   1.702   7.532 -0.2642 -0.9855  0.4058
  156SAPE  C21117369   5.144   1.614   7.718  0.3279 -0.0566  0.0304
  156SAPE  H11R17370   5.189   1.519   7.684  0.6723  0.1576 -0.1224
  156SAPE  C21217371   5.173   1.662   7.839 -0.2110  0.0212  0.0869
  156SAPE  H12R17372   5.259   1.625   7.897  0.0446  0.1689 -0.1971
  156SAPE  C21317373   5.105   1.781   7.903 -0.4927  0.1002 -0.1364
  156SAPE  H13R17374   4.999   1.773   7.871  0.1339  0.6475 -2.4831
  156SAPE  H13S17375   5.149   1.875   7.862  0.1796 -0.8266 -1.6130
  156SAPE  C21417376   5.133   1.784   8.053 -0.5455  0.1010  0.1519
  156SAPE  H14R17377   5.228   1.835   8.077 -0.8375  0.9760 -0.4684
  156SAPE  C21517378   5.055   1.738   8.153 -0.1122 -0.4470  0.4067
  156SAPE  H15R17379   5.090   1.750   8.257  1.1501 -0.6778  0.0286
  156SAPE  C21617380   4.917   1.681   8.131 -0.4621 -0.2345  0.0433
  156SAPE  H16R17381   4.901   1.596   8.201 -0.0549 -3.0163 -2.9492
  156SAPE  H16S17382   4.908   1.636   8.029  0.9894 -1.2136  0.3189
  156SAPE  C21717383   4.788   1.771   8.152 -0.0801 -0.1665  0.7156
  156SAPE  H17R17384   4.697   1.720   8.114 -0.6737  0.0963  1.7428
  156SAPE  H17S17385   4.799   1.863   8.091  3.7591  0.4958  2.1317
  156SAPE  C21817386   4.766   1.812   8.299  0.1496 -0.6868  0.3961
  156SAPE  H18R17387   4.679   1.880   8.306  0.8081  0.2162  0.0763
  156SAPE  H18S17388   4.849   1.883   8.318 -1.2090  0.8939  0.5852
  156SAPE  C21917389   4.739   1.691   8.391  0.0159  0.3379  0.1947
  156SAPE  H19R17390   4.743   1.739   8.492  1.5301  0.9647 -0.1271
  156SAPE  H19S17391   4.822   1.617   8.395  2.2588  2.7519  1.5286
  156SAPE  C22017392   4.599   1.641   8.383  0.3443 -0.0483 -0.2143
  156SAPE  H20R17393   4.537   1.721   8.428 -0.1757 -0.3730 -0.3435
  156SAPE  H20S17394   4.586   1.546   8.440  1.9127 -1.0166 -1.3743
  156SAPE  H20T17395   4.574   1.636   8.274 -0.8080  3.3820 -0.2175
  156SAPE   C3317396   5.439   1.908   7.248 -0.1018  0.3084 -0.1558
  156SAPE   H3X17397   5.549   1.897   7.265 -0.4514  0.3989  2.6331
  156SAPE   H3Y17398   5.389   1.811   7.229  0.7912 -0.3051  0.5166
  156SAPE   C3417399   5.383   1.974   7.372 -0.2683 -0.1094 -0.6571
  156SAPE   H4X17400   5.273   1.979   7.383 -0.1387  1.4066  0.1567
  156SAPE   H4Y17401   5.433   2.073   7.369 -2.1979  0.8652 -2.8960
  156SAPE   C3517402   5.430   1.901   7.497  0.0403 -0.0367  1.7014
  156SAPE   H5X17403   5.540   1.892   7.487 -0.0350  1.3207 -2.1248
  156SAPE   H5Y17404   5.386   1.799   7.491 -0.5881  0.2953 -0.7096
  156SAPE   C3617405   5.389   1.980   7.618 -0.0813 -0.1147 -0.7018
  156SAPE   H6X17406   5.278   1.984   7.615 -0.0939 -0.0418 -0.2445
  156SAPE   H6Y17407   5.421   2.084   7.597 -0.2167  0.7765  2.8305
  156SAPE   C3717408   5.431   1.921   7.749 -0.2493  0.0568  0.3913
  156SAPE   H7X17409   5.422   1.810   7.748  2.3915 -0.2096 -0.2317
  156SAPE   H7Y17410   5.380   1.949   7.844  3.0753 -0.1053  2.3848
  156SAPE   C3817411   5.579   1.932   7.764 -0.1796  0.2713 -0.2880
  156SAPE   H8X17412   5.646   1.864   7.708 -1.9288 -0.2452 -1.8318
  156SAPE   H8Y17413   5.586   1.882   7.863 -1.0791  2.0990  0.7685
  156SAPE   C3917414   5.624   2.076   7.771  0.1788 -0.2188 -0.0445
  156SAPE   H9X17415   5.542   2.148   7.795  1.2878  1.0467  0.0781
  156SAPE   H9Y17416   5.639   2.104   7.665 -0.2597  0.6767  0.1144
  156SAPE  C31017417   5.758   2.109   7.845 -0.4825 -0.0877 -0.0947
  156SAPE  H10X17418   5.782   2.210   7.807 -2.0077 -0.1532 -1.2962
  156SAPE  H10Y17419   5.842   2.042   7.815 -1.0066 -1.2077  0.8136
  156SAPE  C31117420   5.742   2.130   7.994  0.2451 -0.6127 -0.2010
  156SAPE  H11X17421   5.834   2.118   8.056 -1.3422 -1.1435  2.1528
  156SAPE  H11Y17422   5.677   2.047   8.028 -0.3203  0.7765  2.3414
  156SAPE  C31217423   5.664   2.254   8.038  0.4152 -0.0313 -0.6301
  156SAPE  H12X17424   5.558   2.250   8.005 -0.2721 -0.0978  1.4455
  156SAPE  H12Y17425   5.709   2.349   8.001 -1.9776  1.7351  0.7317
  156SAPE  C31317426   5.649   2.278   8.189  0.0296  0.4787  0.4977
  156SAPE  H13X17427   5.656   2.182   8.245  0.2162  0.2844  0.1436
  156SAPE  H13Y17428   5.555   2.335   8.200  0.1964  0.5737  1.5223
  156SAPE  C31417429   5.765   2.365   8.251  0.6935  0.0392 -1.0827
  156SAPE  H14X17430   5.742   2.456   8.193 -3.0006 -0.1397 -0.1345
  156SAPE  H14Y17431   5.860   2.313   8.225  0.2916 -2.1814  1.4013
  156SAPE  C31517432   5.756   2.384   8.404 -0.1913 -0.8209 -0.2208
  156SAPE  H15X17433   5.821   2.469   8.434  2.7444 -2.9432 -0.1265
  156SAPE  H15Y17434   5.817   2.306   8.453 -1.9610 -1.3426  1.2443
  156SAPE  C31617435   5.610   2.402   8.451  0.1378 -0.5013  0.3997
  156SAPE  H16X17436   5.567   2.304   8.423  2.6855 -1.1178 -1.7760
  156SAPE  H16Y17437   5.574   2.489   8.392 -0.2550  0.2716  1.7325
  156SAPE  C31717438   5.592   2.419   8.604 -0.1945 -0.0539  0.1679
  156SAPE  H17X17439   5.626   2.516   8.646 -1.1987  1.1204 -1.5838
  156SAPE  H17Y17440   5.640   2.332   8.654 -0.7872 -0.7311 -0.4170
  156SAPE  C31817441   5.451   2.397   8.648  0.0631 -0.4162  0.2577
  156SAPE  H18X17442   5.459   2.380   8.757 -3.5521  2.8131  1.2672
  156SAPE  H18Y17443   5.405   2.305   8.605  1.1003 -0.7839 -0.0961
  156SAPE  H18Z17444   5.391   2.490   8.649  2.0023  0.9188 -1.2034
  157SAPE     N17445   3.066   2.767   6.439  0.8552 -0.2482  0.3927
  157SAPE   HN117446   3.120   2.800   6.356 -0.4627  0.4949 -0.2183
  157SAPE   HN217447   2.974   2.816   6.431  1.8835  2.0735  1.8663
  157SAPE   HN317448   3.115   2.800   6.524 -1.4515 -0.0649  1.7222
  157SAPE   C1217449   3.048   2.614   6.438  0.0794  0.3738  0.4253
  157SAPE  H12A17450   3.019   2.575   6.538  0.0138 -4.0798 -1.0852
  157SAPE  H12B17451   3.141   2.559   6.413 -2.5016 -2.6919 -3.7306
  157SAPE   C1117452   2.948   2.552   6.331 -0.0198 -0.1337 -0.4590
  157SAPE  H11A17453   2.955   2.442   6.319  1.7812  0.1437 -2.7170
  157SAPE  H11B17454   2.974   2.599   6.234 -0.2327 -0.6114 -0.7474
  157SAPE     P17455   2.715   2.517   6.465 -0.5285 -0.6082 -0.1400
  157SAPE   O1317456   2.576   2.567   6.437  0.7286  0.0545 -0.1914
  157SAPE   O1417457   2.733   2.373   6.467 -0.9545 -0.0434 -0.1616
  157SAPE   O1217458   2.814   2.588   6.360  0.4906 -0.2122 -0.3493
  157SAPE   O1117459   2.767   2.574   6.601  0.7571 -0.6058 -0.3092
  157SAPE    C117460   2.768   2.716   6.627  0.7049  0.2910 -0.9931
  157SAPE    HA17461   2.847   2.769   6.568  2.0737  1.7658  1.9352
  157SAPE    HB17462   2.665   2.742   6.596 -0.1023 -1.6210 -0.0742
  157SAPE    C217463   2.768   2.749   6.783 -0.1166  0.1328 -0.0776
  157SAPE    HS17464   2.769   2.859   6.775  2.4690  0.1252 -1.0521
  157SAPE   O2117465   2.885   2.690   6.852 -0.4382  0.4790  0.2106
  157SAPE   C2117466   3.005   2.730   6.811  0.3520 -0.4299 -0.3202
  157SAPE   O2217467   3.033   2.805   6.719  0.0239 -0.5266  0.2130
  157SAPE   C2217468   3.112   2.673   6.906 -0.2407  0.2881  0.5238
  157SAPE   H2R17469   3.102   2.727   7.003 -0.3136  0.8997  0.1822
  157SAPE   H2S17470   3.082   2.566   6.911 -2.5388  0.7119 -1.9857
  157SAPE    C317471   2.648   2.697   6.867  0.1046  0.4779 -0.0128
  157SAPE    HX17472   2.672   2.588   6.874 -2.7851 -0.1723  1.4060
  157SAPE    HY17473   2.554   2.710   6.809  0.8979  0.3326 -1.3792
  157SAPE   O3117474   2.637   2.755   7.001  0.2476 -0.8214  0.5875
  157SAPE   C3117475   2.528   2.712   7.062  0.7331 -0.3833 -0.9473
  157SAPE   O3217476   2.440   2.641   7.014 -0.2786  1.0765  0.0020
  157SAPE   C3217477   2.534   2.758   7.208 -0.1656 -0.1905 -0.0390
  157SAPE   H2X17478   2.457   2.837   7.207 -1.5101 -1.4678 -0.6533
  157SAPE   H2Y17479   2.634   2.794   7.240  0.6836 -2.9334  0.6750
  157SAPE   C2317480   3.256   2.697   6.852  0.6902 -1.2934  0.3470
  157SAPE   H3R17481   3.270   2.807   6.856 -1.7240 -0.9537  1.6735
  157SAPE   H3S17482   3.262   2.672   6.744 -1.0874  1.9567 -0.6251
  157SAPE   C2417483   3.365   2.628   6.929  0.2892 -0.1736 -0.1527
  157SAPE   H4R17484   3.345   2.658   7.034 -2.4584  0.4342 -0.7796
  157SAPE   H4S17485   3.463   2.664   6.890 -1.0720  3.2894 -0.7351
  157SAPE   C2517486   3.342   2.483   6.912 -0.6924  0.1769  0.1863
  157SAPE   H5R17487   3.321   2.457   6.807  0.0718 -1.5224  0.4181
  157SAPE   C2617488   3.343   2.382   7.001 -0.0823  0.3555 -0.1167
  157SAPE   H6R17489   3.339   2.278   6.965  3.7900  0.3961 -1.0290
  157SAPE   C2717490   3.357   2.400   7.154 -0.0910 -0.1750  0.5694
  157SAPE   H7R17491   3.271   2.458   7.193 -1.1385 -1.6742  0.5543
  157SAPE   H7S17492   3.446   2.465   7.165 -1.0966  1.7602 -1.7057
  157SAPE   C2817493   3.358   2.275   7.241  1.0522  0.0535 -0.8591
  157SAPE   H8R17494   3.348   2.179   7.189  3.4608  0.2160 -1.7790
  157SAPE   C2917495   3.343   2.279   7.378 -0.4430  0.1802 -0.0181
  157SAPE   H9R17496   3.335   2.185   7.434  0.3943  0.7583  1.1133
  157SAPE  C21017497   3.333   2.395   7.472  0.3565 -0.0887  0.8403
  157SAPE  H10R17498   3.240   2.372   7.528 -0.1581 -1.6693 -0.5520
  157SAPE  H10S17499   3.306   2.490   7.421  1.0231  0.0367  0.7100
  157SAPE  C21117500   3.458   2.421   7.545 -0.0656 -0.3090  0.0703
  157SAPE  H11R17501   3.520   2.492   7.487 -2.0623  3.2920  1.9677
  157SAPE  C21217502   3.495   2.379   7.669  0.3091 -0.1063  0.5803
  157SAPE  H12R17503   3.587   2.424   7.710  0.6483 -0.5607  0.3236
  157SAPE  C21317504   3.408   2.306   7.776 -1.0716  0.0632  0.6368
  157SAPE  H13R17505   3.298   2.313   7.761 -1.2577  1.0908  2.3024
  157SAPE  H13S17506   3.416   2.349   7.878  0.7430 -1.2754  1.1093
  157SAPE  C21417507   3.447   2.159   7.775 -0.4870  0.6223  0.2500
  157SAPE  H14R17508   3.430   2.109   7.679 -1.6279  2.5195 -0.5844
  157SAPE  C21517509   3.483   2.080   7.881  0.5242 -0.0035  0.2664
  157SAPE  H15R17510   3.501   1.972   7.871 -0.7669 -0.3002  0.8634
  157SAPE  C21617511   3.481   2.129   8.023 -0.5663  0.1229  0.3167
  157SAPE  H16R17512   3.386   2.185   8.038 -1.4496 -0.4984 -2.4201
  157SAPE  H16S17513   3.574   2.189   8.033  0.2981 -1.4167  2.4062
  157SAPE  C21717514   3.510   2.009   8.119 -0.3615  0.0991 -0.4540
  157SAPE  H17R17515   3.469   1.916   8.074  0.2445  0.5961 -2.0657
  157SAPE  H17S17516   3.453   2.030   8.213  0.3879  0.5546 -0.0904
  157SAPE  C21817517   3.659   1.978   8.157 -0.1436 -0.3127  0.4739
  157SAPE  H18R17518   3.641   1.910   8.243 -1.7774  0.9707  1.2057
  157SAPE  H18S17519   3.711   2.074   8.179 -0.7173  0.7818 -2.4091
  157SAPE  C21917520   3.738   1.905   8.046 -1.0324 -0.2463  0.0935
  157SAPE  H19R17521   3.731   1.965   7.952  2.8215 -1.9922 -1.5764
  157SAPE  H19S17522   3.695   1.806   8.020 -0.6996 -0.7898  1.5677
  157SAPE  C22017523   3.889   1.899   8.057 -0.3548 -0.0182 -0.0915
  157SAPE  H20R17524   3.933   1.876   7.958  0.6496  2.0134 -0.1864
  157SAPE  H20S17525   3.915   1.811   8.120  2.0729  1.0989  0.5762
  157SAPE  H20T17526   3.936   1.990   8.101 -1.1983  0.3291  0.1077
  157SAPE   C3317527   2.480   2.648   7.302  0.7304  1.3320  0.2690
  157SAPE   H3X17528   2.522   2.550   7.272 -2.4191  0.4924 -1.7901
  157SAPE   H3Y17529   2.373   2.622   7.293  1.4841 -2.9112  1.4728
  157SAPE   C3417530   2.494   2.679   7.450  0.0591  0.1937 -0.2971
  157SAPE   H4X17531   2.455   2.783   7.462  0.4711  0.3031  0.1225
  157SAPE   H4Y17532   2.603   2.697   7.456  0.4528 -1.0539 -2.6706
  157SAPE   C3517533   2.440   2.570   7.541 -0.3901  0.0383  0.6369
  157SAPE   H5X17534   2.490   2.473   7.521 -1.0720 -0.0804 -0.5989
  157SAPE   H5Y17535   2.332   2.566   7.513 -0.0859  1.7846 -0.9750
  157SAPE   C3617536   2.444   2.593   7.695  0.1699  0.4866  0.5297
  157SAPE   H6X17537   2.388   2.687   7.712 -1.5798 -0.6494  1.2937
  157SAPE   H6Y17538   2.547   2.604   7.736  0.3019 -0.7068  0.5592
  157SAPE   C3717539   2.391   2.470   7.768  0.3198 -0.4826  0.2866
  157SAPE   H7X17540   2.460   2.386   7.745  1.8756  0.3945  1.5590
  157SAPE   H7Y17541   2.293   2.439   7.726 -0.6153  2.2072  0.3460
  157SAPE   C3817542   2.386   2.491   7.922 -0.7817  0.6849  0.1215
  157SAPE   H8X17543   2.478   2.548   7.950  0.9544 -1.7037 -0.3663
  157SAPE   H8Y17544   2.399   2.393   7.973  2.2814 -0.2406 -2.1296
  157SAPE   C3917545   2.260   2.545   7.975 -0.9597 -0.6392  0.5603
  157SAPE   H9X17546   2.180   2.484   7.927  0.1464  0.2392 -2.7328
  157SAPE   H9Y17547   2.248   2.643   7.922 -0.9024 -0.0764  1.5727
  157SAPE  C31017548   2.240   2.554   8.128  0.1896  0.0587  0.1917
  157SAPE  H10X17549   2.132   2.576   8.141  0.6097  3.0571 -0.7409
  157SAPE  H10Y17550   2.297   2.640   8.169 -1.6888  1.5334 -0.1731
  157SAPE  C31117551   2.283   2.426   8.208 -0.2727 -0.1798 -0.3992
  157SAPE  H11X17552   2.391   2.432   8.232 -0.9076  1.3437  2.4891
  157SAPE  H11Y17553   2.254   2.346   8.136 -1.1893 -1.0018  0.8217
  157SAPE  C31217554   2.209   2.407   8.342 -0.1347 -0.6765 -0.2285
  157SAPE  H12X17555   2.198   2.505   8.394 -0.1917 -0.7206 -0.1575
  157SAPE  H12Y17556   2.267   2.345   8.413  1.4585  1.9698  0.9227
  157SAPE  C31317557   2.067   2.350   8.323  0.1122  0.7466 -0.6908
  157SAPE  H13X17558   2.085   2.252   8.274  2.7040 -0.2210  1.9076
  157SAPE  H13Y17559   2.021   2.426   8.256  0.5658 -0.3240 -2.2519
  157SAPE  C31417560   1.973   2.345   8.442 -1.0283 -0.2919 -0.6676
  157SAPE  H14X17561   1.997   2.442   8.492  0.0332 -0.4854 -0.7770
  157SAPE  H14Y17562   2.005   2.272   8.520  1.9288 -1.8593 -3.1211
  157SAPE  C31517563   1.827   2.338   8.401  0.5321 -0.2130 -0.4270
  157SAPE  H15X17564   1.802   2.241   8.353  1.1806 -0.5690 -0.0489
  157SAPE  H15Y17565   1.801   2.420   8.329  1.3916  0.0463 -0.4549
  157SAPE  C31617566   1.729   2.332   8.522 -0.5537 -0.6716  0.0972
  157SAPE  H16X17567   1.737   2.435   8.564 -1.6586  0.1214 -1.5333
  157SAPE  H16Y17568   1.755   2.259   8.602 -0.8457 -0.9391 -0.0500
  157SAPE  C31717569   1.580   2.300   8.488 -0.1081 -0.4453 -0.1585
  157SAPE  H17X17570   1.580   2.207   8.426  2.4796 -1.5428  1.3316
  157SAPE  H17Y17571   1.538   2.377   8.420 -0.9226 -1.0540 -0.3635
  157SAPE  C31817572   1.484   2.293   8.614 -0.3636  0.0592 -0.1508
  157SAPE  H18X17573   1.380   2.268   8.583 -0.2277 -0.9760  0.1713
  157SAPE  H18Y17574   1.478   2.378   8.685 -0.5719 -1.6371  1.9654
  157SAPE  H18Z17575   1.525   2.209   8.674 -0.7574 -0.5055 -0.6593
  158SAPE     N17576   4.039   0.790   6.184  0.9759 -0.1582  0.0597
  158SAPE   HN117577   4.076   0.693   6.183 -2.4374 -1.6789 -2.5340
  158SAPE   HN217578   3.960   0.797   6.116  1.1155 -1.5771 -0.2966
  158SAPE   HN317579   4.113   0.851   6.143 -0.6019  2.8192  1.3735
  158SAPE   C1217580   4.011   0.835   6.322  0.9751 -0.3639  0.1353
  158SAPE  H12A17581   4.109   0.872   6.359  1.3491 -1.4982  0.3170
  158SAPE  H12B17582   3.971   0.754   6.386 -1.5839 -0.3138 -1.2691
  158SAPE   C1117583   3.906   0.951   6.314  0.3236 -0.2308  0.1485
  158SAPE  H11A17584   3.884   1.003   6.410 -0.1066  2.9906 -1.5501
  158SAPE  H11B17585   3.808   0.905   6.290  0.5007 -1.7409  2.1357
  158SAPE     P17586   3.840   1.156   6.175 -0.4037 -0.3897  0.3414
  158SAPE   O1317587   3.882   1.219   6.045  0.4509 -0.5750  0.4332
  158SAPE   O1417588   3.707   1.100   6.161  0.0528  0.7736  0.0834
  158SAPE   O1217589   3.947   1.050   6.223  0.0365 -0.0209  0.0025
  158SAPE   O1117590   3.839   1.272   6.292  0.4292  0.0374  0.1500
  158SAPE    C117591   3.955   1.315   6.358 -0.0926  0.5754 -0.3933
  158SAPE    HA17592   4.047   1.278   6.308 -0.8176  1.4498 -2.4877
  158SAPE    HB17593   3.965   1.424   6.341  0.9564  1.1664  3.2388
  158SAPE    C217594   3.956   1.289   6.517 -0.0215 -0.1272  0.3598
  158SAPE    HS17595   3.967   1.179   6.526  3.1843  0.1732  1.3300
  158SAPE   O2117596   3.839   1.335   6.586 -0.1875 -0.3272  1.0310
  158SAPE   C2117597   3.739   1.257   6.587  0.1787 -0.4396 -0.3477
  158SAPE   O2217598   3.741   1.138   6.558 -0.2911 -0.4308  0.3279
  158SAPE   C2217599   3.613   1.332   6.635 -0.1152 -0.6334 -0.2893
  158SAPE   H2R17600   3.589   1.407   6.557  1.7790  1.1638  0.7545
  158SAPE   H2S17601   3.531   1.258   6.645 -0.3097 -0.4831 -0.7645
  158SAPE    C317602   4.077   1.356   6.585 -0.3640 -0.2301  0.9403
  158SAPE    HX17603   4.045   1.458   6.617  0.2486  0.0116  0.7846
  158SAPE    HY17604   4.158   1.376   6.512 -2.7033  0.9323 -1.5395
  158SAPE   O3117605   4.117   1.288   6.703  0.3553 -0.4290  0.3914
  158SAPE   C3117606   4.203   1.190   6.694 -0.3638 -0.6555  1.1762
  158SAPE   O3217607   4.230   1.125   6.591  0.8669 -0.4575  0.5537
  158SAPE   C3217608   4.266   1.169   6.830  0.0800  0.1051  0.1732
  158SAPE   H2X17609   4.247   1.256   6.898 -0.8267  0.4857 -0.5460
  158SAPE   H2Y17610   4.374   1.155   6.810 -0.1378  0.3202 -1.2093
  158SAPE   C2317611   3.639   1.415   6.770  0.2272  0.0667  0.2497
  158SAPE   H3R17612   3.541   1.464   6.787  0.1912  0.2242 -0.3735
  158SAPE   H3S17613   3.720   1.488   6.752  1.2816 -1.6019 -2.4348
  158SAPE   C2417614   3.676   1.327   6.888  0.0107 -0.1815  0.0955
  158SAPE   H4R17615   3.780   1.300   6.864 -0.1013  1.4161 -2.4830
  158SAPE   H4S17616   3.615   1.234   6.894 -1.4824  0.8064  0.9555
  158SAPE   C2517617   3.663   1.386   7.030  0.0654 -0.1161  0.1891
  158SAPE   H5R17618   3.559   1.410   7.059 -0.6598 -0.1473 -2.1630
  158SAPE   C2617619   3.750   1.421   7.120 -0.2005 -0.4382 -0.0681
  158SAPE   H6R17620   3.717   1.450   7.221  1.5245  0.6580  0.2285
  158SAPE   C2717621   3.902   1.422   7.098  0.1668  0.9031 -0.4097
  158SAPE   H7R17622   3.924   1.526   7.064  1.8048  0.5474 -0.5111
  158SAPE   H7S17623   3.937   1.368   7.007  0.3950 -1.6226  1.0761
  158SAPE   C2817624   3.977   1.389   7.226  0.0251  0.5091 -0.5366
  158SAPE   H8R17625   4.077   1.436   7.225  0.0917  0.3609 -1.1378
  158SAPE   C2917626   3.947   1.309   7.332 -0.3373 -0.9218  0.6797
  158SAPE   H9R17627   4.022   1.310   7.413 -0.6630 -0.0771  0.9751
  158SAPE  C21017628   3.828   1.224   7.361  0.7532  0.0732  0.1234
  158SAPE  H10R17629   3.874   1.124   7.379  0.6489 -0.9366 -4.1302
  158SAPE  H10S17630   3.760   1.203   7.276 -0.9314  1.6011  1.0202
  158SAPE  C21117631   3.731   1.254   7.477 -0.1138  0.4138 -0.4105
  158SAPE  H11R17632   3.628   1.285   7.457 -0.1254  3.1137  2.9373
  158SAPE  C21217633   3.760   1.222   7.603 -0.7120  0.6414 -0.0659
  158SAPE  H12R17634   3.688   1.245   7.683  0.1615 -0.6582  1.1549
  158SAPE  C21317635   3.887   1.148   7.652  0.4089 -0.1453  0.5086
  158SAPE  H13R17636   3.915   1.201   7.746  0.8787 -2.2744  1.6328
  158SAPE  H13S17637   3.975   1.161   7.585  2.6507 -1.9642  2.8735
  158SAPE  C21417638   3.862   1.009   7.697 -0.4873  1.2177  0.5125
  158SAPE  H14R17639   3.864   0.932   7.619 -0.1312  1.4831  0.2601
  158SAPE  C21517640   3.826   0.958   7.822 -0.0787  0.9255  0.3953
  158SAPE  H15R17641   3.803   0.851   7.831 -0.2449  0.9928  0.7852
  158SAPE  C21617642   3.811   1.023   7.951  0.0141 -0.0748 -0.2675
  158SAPE  H16R17643   3.717   0.994   8.003  0.2366 -0.3411 -0.0075
  158SAPE  H16S17644   3.812   1.132   7.930  1.7724 -0.1516 -0.7818
  158SAPE  C21717645   3.915   0.992   8.056 -0.2415  0.2155 -0.4351
  158SAPE  H17R17646   3.883   1.034   8.153 -1.0311 -0.9180 -0.1749
  158SAPE  H17S17647   4.005   1.046   8.020 -1.1063  1.8973 -0.1673
  158SAPE  C21817648   3.954   0.845   8.077 -0.1745  0.4736 -0.5273
  158SAPE  H18R17649   4.034   0.834   8.152 -0.7306  0.5156  0.0808
  158SAPE  H18S17650   4.003   0.791   7.993 -1.9282 -2.1078  0.0022
  158SAPE  C21917651   3.842   0.747   8.117 -0.0655 -0.1482 -0.0711
  158SAPE  H19R17652   3.873   0.644   8.092 -0.8950 -0.3534 -0.2603
  158SAPE  H19S17653   3.753   0.770   8.054  2.3144  1.0177 -3.2935
  158SAPE  C22017654   3.823   0.754   8.269  0.4579  0.0705  0.6814
  158SAPE  H20R17655   3.753   0.837   8.294  1.7209  1.5324 -0.4634
  158SAPE  H20S17656   3.921   0.773   8.316  0.9581  1.4377 -0.8294
  158SAPE  H20T17657   3.775   0.667   8.318 -1.7496 -0.6171 -2.3857
  158SAPE   C3317658   4.206   1.045   6.897 -0.0532  0.3281 -0.2613
  158SAPE   H3X17659   4.263   1.021   6.990  1.7591  0.1733 -1.3633
  158SAPE   H3Y17660   4.218   0.952   6.837  1.8182  0.2659  0.1437
  158SAPE   C3417661   4.048   1.050   6.922  0.1658  0.1666 -0.5478
  158SAPE   H4X17662   3.997   1.057   6.824  0.6258 -0.4915 -0.8392
  158SAPE   H4Y17663   4.025   1.134   6.991  0.5948  0.1672 -0.4022
  158SAPE   C3517664   3.995   0.925   6.999  0.1121 -0.8183  1.0573
  158SAPE   H5X17665   4.005   0.835   6.936  3.1642  0.6690 -0.8541
  158SAPE   H5Y17666   3.885   0.925   7.015 -0.2115  2.1665 -0.3448
  158SAPE   C3617667   4.067   0.907   7.134 -0.8446 -0.1625  0.4465
  158SAPE   H6X17668   4.058   1.005   7.186 -2.1224 -0.0624  0.0693
  158SAPE   H6Y17669   4.172   0.874   7.116 -0.9366 -0.0750 -0.3026
  158SAPE   C3717670   4.004   0.790   7.211 -0.0229  0.2957 -0.5593
  158SAPE   H7X17671   3.895   0.810   7.224 -0.2520 -0.2320 -1.6009
  158SAPE   H7Y17672   4.009   0.701   7.144  2.0423 -1.5460  1.8446
  158SAPE   C3817673   4.066   0.757   7.347 -0.5804  0.2123  0.0681
  158SAPE   H8X17674   4.080   0.858   7.394  2.9784 -0.0924 -0.0104
  158SAPE   H8Y17675   4.170   0.721   7.329 -0.1223  1.2634  0.5054
  158SAPE   C3917676   3.985   0.653   7.423  0.4369 -0.1322  0.3520
  158SAPE   H9X17677   3.963   0.562   7.363 -1.2706 -0.0277  0.7783
  158SAPE   H9Y17678   3.880   0.687   7.434  0.1265 -1.1775  0.8173
  158SAPE  C31017679   4.049   0.620   7.561  0.2838 -0.2706  0.2850
  158SAPE  H10X17680   4.089   0.710   7.613  0.7665 -0.6030  0.4994
  158SAPE  H10Y17681   4.128   0.542   7.553 -1.3280 -2.1071  1.5602
  158SAPE  C31117682   3.943   0.562   7.654  0.9845  0.0107 -0.1477
  158SAPE  H11X17683   3.880   0.495   7.592  0.3443  0.8873 -0.4561
  158SAPE  H11Y17684   3.870   0.635   7.695  0.7848 -0.6478  0.6961
  158SAPE  C31217685   3.981   0.476   7.776 -1.3810  0.0891 -0.0634
  158SAPE  H12X17686   4.038   0.537   7.849 -2.0219  0.1522  0.4033
  158SAPE  H12Y17687   4.048   0.401   7.729  0.5813  2.2905 -0.9640
  158SAPE  C31317688   3.861   0.410   7.842  0.3599 -0.1549 -0.1181
  158SAPE  H13X17689   3.825   0.347   7.758  1.7126 -3.5051  1.6169
  158SAPE  H13Y17690   3.785   0.485   7.873 -1.7288 -2.8018  1.5729
  158SAPE  C31417691   3.892   0.327   7.960 -0.8407 -0.1278 -0.1946
  158SAPE  H14X17692   3.936   0.398   8.033 -0.1507 -0.6667 -0.0732
  158SAPE  H14Y17693   3.972   0.254   7.935 -1.5211 -1.3480  1.0312
  158SAPE  C31517694   3.767   0.260   8.027 -0.2190  0.6847  0.0045
  158SAPE  H15X17695   3.747   0.162   7.978 -1.1242  0.7053  0.3091
  158SAPE  H15Y17696   3.680   0.329   8.017 -0.2956  0.5444 -0.3206
  158SAPE  C31617697   3.787   0.234   8.179 -0.2666 -0.0412  0.0033
  158SAPE  H16X17698   3.820   0.335   8.214 -0.6569  0.5243 -1.2034
  158SAPE  H16Y17699   3.865   0.157   8.198 -1.6672 -1.0235  2.2253
  158SAPE  C31717700   3.665   0.192   8.258  0.5284 -0.1328 -0.2380
  158SAPE  H17X17701   3.590   0.273   8.246 -0.0157 -1.0864 -5.2241
  158SAPE  H17Y17702   3.700   0.171   8.362 -0.3272 -0.2428  0.0329
  158SAPE  C31817703   3.591   0.063   8.207 -0.2316 -0.0719 -0.0791
  158SAPE  H18X17704   3.668  -0.013   8.179 -1.3576 -1.1507 -0.3462
  158SAPE  H18Y17705   3.534   0.085   8.115 -1.5151  0.9383  0.9276
  158SAPE  H18Z17706   3.516   0.021   8.277 -0.9708  2.0497  0.4528
  159SAPE     N17707   5.153   3.676   6.252 -0.3921 -0.1368  0.1233
  159SAPE   HN117708   5.172   3.688   6.354  2.0513  0.3378 -0.3219
  159SAPE   HN217709   5.226   3.617   6.209  0.1097  0.7628 -0.2781
  159SAPE   HN317710   5.151   3.770   6.207 -4.2419  0.4568  1.1712
  159SAPE   C1217711   5.018   3.610   6.239  1.1837  1.1412  0.1129
  159SAPE  H12A17712   4.997   3.602   6.130  0.1584 -0.6753  0.4058
  159SAPE  H12B17713   4.936   3.676   6.273 -1.4119 -1.1413 -1.2897
  159SAPE   C1117714   5.019   3.480   6.308 -0.5884  0.0236  0.6156
  159SAPE  H11A17715   4.918   3.432   6.301 -0.1237 -0.9846  0.6702
  159SAPE  H11B17716   5.037   3.495   6.416  1.4773  0.5132  0.2328
  159SAPE     P17717   5.111   3.311   6.128 -0.2833  0.3146  0.3734
  159SAPE   O1317718   5.106   3.401   6.013  0.4219 -0.1356  0.2686
  159SAPE   O1417719   5.214   3.205   6.124  0.3161  0.2526 -0.1355
  159SAPE   O1217720   5.125   3.392   6.262 -0.3556  0.1341 -0.4134
  159SAPE   O1117721   4.969   3.244   6.162  0.3491  0.3414 -0.1721
  159SAPE    C117722   4.943   3.102   6.131  0.1405 -0.0122 -0.2684
  159SAPE    HA17723   4.839   3.105   6.091 -0.2133  0.8328  0.6564
  159SAPE    HB17724   5.012   3.057   6.056  1.1452 -2.3669  1.9289
  159SAPE    C217725   4.943   3.006   6.257  0.3381 -0.5537 -0.4262
  159SAPE    HS17726   4.863   2.930   6.239  0.0617 -0.0560 -1.3500
  159SAPE   O2117727   4.915   3.079   6.378 -0.0272 -0.5654  0.5897
  159SAPE   C2117728   4.800   3.150   6.378  0.4889  0.3306 -0.1302
  159SAPE   O2217729   4.715   3.145   6.293  0.5252 -0.1926  0.1467
  159SAPE   C2217730   4.784   3.233   6.515  0.1813  0.3695 -0.0664
  159SAPE   H2R17731   4.776   3.157   6.596  0.6411 -0.8596 -1.1469
  159SAPE   H2S17732   4.876   3.293   6.531  0.3912  0.1419 -0.4337
  159SAPE    C317733   5.068   2.919   6.272  0.1280 -0.3438 -0.0950
  159SAPE    HX17734   5.154   2.983   6.300  0.8499 -1.6631  0.8146
  159SAPE    HY17735   5.087   2.870   6.174  1.2638  0.3854 -0.2664
  159SAPE   O3117736   5.048   2.818   6.373  0.2698 -0.1097 -0.0424
  159SAPE   C3117737   5.158   2.763   6.404  1.1494 -0.2275  0.8396
  159SAPE   O3217738   5.264   2.781   6.354 -0.3686  0.0103  0.7485
  159SAPE   C3217739   5.135   2.686   6.541 -0.1278  0.2928  0.2973
  159SAPE   H2X17740   5.038   2.724   6.583 -0.2436  0.4714 -0.1285
  159SAPE   H2Y17741   5.218   2.709   6.611  1.5885 -1.6186 -1.0248
  159SAPE   C2317742   4.658   3.331   6.507  0.4437  0.8898 -0.1986
  159SAPE   H3R17743   4.577   3.273   6.458  1.5574  0.2229 -1.3046
  159SAPE   H3S17744   4.677   3.420   6.443  0.8602  2.3763  1.8898
  159SAPE   C2417745   4.617   3.384   6.646 -0.5973  0.0812 -0.1617
  159SAPE   H4R17746   4.582   3.299   6.708 -0.0046  0.3759  0.5986
  159SAPE   H4S17747   4.534   3.454   6.623  0.5406  1.8399  0.8382
  159SAPE   C2517748   4.726   3.462   6.718 -0.2906  0.7070  0.4078
  159SAPE   H5R17749   4.764   3.551   6.666  2.2011 -1.6611 -2.1099
  159SAPE   C2617750   4.799   3.429   6.834 -1.0700  0.0267  0.3577
  159SAPE   H6R17751   4.866   3.507   6.872 -0.8810  1.0021 -1.8445
  159SAPE   C2717752   4.792   3.309   6.923  0.1566 -0.7291 -0.3173
  159SAPE   H7R17753   4.868   3.323   7.003  0.6859 -1.3918 -0.6891
  159SAPE   H7S17754   4.828   3.214   6.878  2.8662 -0.8971  1.8727
  159SAPE   C2817755   4.654   3.281   6.985  0.2753  0.3706 -0.0507
  159SAPE   H8R17756   4.568   3.329   6.934  1.1778  2.8143  0.5584
  159SAPE   C2917757   4.631   3.208   7.100 -0.1404  0.3461  0.1785
  159SAPE   H9R17758   4.524   3.194   7.121 -0.3571 -0.9954 -1.5556
  159SAPE  C21017759   4.723   3.125   7.188 -0.2111 -0.0170  1.0083
  159SAPE  H10R17760   4.812   3.095   7.130 -1.5634 -1.7902 -0.2289
  159SAPE  H10S17761   4.687   3.030   7.232  0.7912 -1.3461 -0.9035
  159SAPE  C21117762   4.776   3.207   7.303 -0.0924  0.2212  0.1481
  159SAPE  H11R17763   4.850   3.282   7.273  0.0256  1.4908  3.2684
  159SAPE  C21217764   4.738   3.203   7.432 -0.0320  0.3634  0.1974
  159SAPE  H12R17765   4.769   3.285   7.498  1.5125 -0.0304 -0.0069
  159SAPE  C21317766   4.629   3.114   7.486 -0.7591 -0.3128 -0.2340
  159SAPE  H13R17767   4.587   3.039   7.415  1.3004 -1.7403 -0.0350
  159SAPE  H13S17768   4.542   3.180   7.508  0.1290  1.1226 -0.9049
  159SAPE  C21417769   4.674   3.045   7.611  0.3058  0.5093 -0.8682
  159SAPE  H14R17770   4.700   2.940   7.592  1.6270  1.2841 -3.8972
  159SAPE  C21517771   4.681   3.104   7.731 -0.4705 -0.0287  0.6732
  159SAPE  H15R17772   4.711   3.045   7.820 -0.7778  2.1226  2.2806
  159SAPE  C21617773   4.628   3.244   7.761 -0.7458 -0.2083  0.3526
  159SAPE  H16R17774   4.539   3.268   7.700  0.0880  1.0039 -0.4209
  159SAPE  H16S17775   4.710   3.316   7.740 -0.8123 -0.6589 -1.6575
  159SAPE  C21717776   4.587   3.283   7.904 -0.2960  0.1420 -0.3017
  159SAPE  H17R17777   4.490   3.247   7.945 -0.6425  1.3699 -0.0097
  159SAPE  H17S17778   4.572   3.393   7.914  0.5514  0.4256 -1.8087
  159SAPE  C21817779   4.692   3.266   8.021 -0.1943 -0.5580  0.0754
  159SAPE  H18R17780   4.777   3.332   7.993  1.7076 -1.8417  2.4586
  159SAPE  H18S17781   4.727   3.161   8.027  2.0508  0.2102  1.7375
  159SAPE  C21917782   4.639   3.308   8.155  0.0896  0.5545  0.6008
  159SAPE  H19R17783   4.573   3.222   8.178  1.1133  0.0468  1.7639
  159SAPE  H19S17784   4.580   3.400   8.138 -0.3406 -0.1270 -2.3137
  159SAPE  C22017785   4.740   3.310   8.265 -0.3979 -0.6457  0.2004
  159SAPE  H20R17786   4.816   3.389   8.248 -1.6945  1.0414  1.7257
  159SAPE  H20S17787   4.805   3.221   8.272 -0.0774 -0.3466  1.3377
  159SAPE  H20T17788   4.688   3.325   8.362  1.2973  0.3586  1.0112
  159SAPE   C3317789   5.143   2.532   6.519  0.0023  0.3395 -0.1016
  159SAPE   H3X17790   5.251   2.513   6.500  0.0956 -1.7198  1.9840
  159SAPE   H3Y17791   5.087   2.508   6.426  0.3976  0.8958 -0.4845
  159SAPE   C3417792   5.086   2.456   6.644 -0.7548 -0.0526  0.0601
  159SAPE   H4X17793   5.071   2.350   6.614  2.2815 -0.0221 -2.0560
  159SAPE   H4Y17794   4.991   2.512   6.662  0.3380  1.6582  0.8179
  159SAPE   C3517795   5.181   2.461   6.766 -0.1937  0.2104 -0.4347
  159SAPE   H5X17796   5.205   2.566   6.793  3.2256 -0.5385 -0.1408
  159SAPE   H5Y17797   5.281   2.422   6.738  0.5444  1.2583  0.6284
  159SAPE   C3617798   5.118   2.383   6.887 -0.2629 -0.7678 -0.3789
  159SAPE   H6X17799   5.066   2.292   6.850  0.8064 -2.7383  2.6022
  159SAPE   H6Y17800   5.042   2.452   6.929  0.2169  0.8417 -2.0630
  159SAPE   C3717801   5.220   2.355   7.001  0.3059 -0.3106 -0.2415
  159SAPE   H7X17802   5.287   2.444   7.014 -0.2995  0.1250 -0.0725
  159SAPE   H7Y17803   5.290   2.274   6.973 -1.5991 -1.0300 -3.3079
  159SAPE   C3817804   5.158   2.332   7.139 -0.4295  0.0288 -0.0072
  159SAPE   H8X17805   5.104   2.234   7.143  1.5934 -1.1249  0.1680
  159SAPE   H8Y17806   5.098   2.414   7.185  0.3336 -0.4782  1.9911
  159SAPE   C3917807   5.279   2.319   7.239  0.6215  0.8831 -0.2754
  159SAPE   H9X17808   5.359   2.388   7.203  0.4510  0.0601 -2.4054
  159SAPE   H9Y17809   5.333   2.221   7.239  0.1155  0.5980 -0.0605
  159SAPE  C31017810   5.253   2.353   7.381 -0.2378  0.2508 -0.7779
  159SAPE  H10X17811   5.185   2.274   7.419 -0.5105 -1.0427 -3.6599
  159SAPE  H10Y17812   5.193   2.446   7.384 -0.6208  0.0125 -1.0007
  159SAPE  C31117813   5.380   2.377   7.465  0.1888  0.2664  0.2826
  159SAPE  H11X17814   5.423   2.470   7.421 -0.8184 -0.3499 -2.2162
  159SAPE  H11Y17815   5.466   2.309   7.447  1.3879  1.8441 -0.1711
  159SAPE  C31217816   5.345   2.395   7.617  0.3411  0.5700  0.3307
  159SAPE  H12X17817   5.430   2.429   7.680  1.3800  0.5313 -0.9868
  159SAPE  H12Y17818   5.334   2.288   7.644  1.4082  0.6666  1.2326
  159SAPE  C31317819   5.221   2.485   7.659  0.1629  0.3825  0.3540
  159SAPE  H13X17820   5.137   2.416   7.636 -0.5221  1.1788  0.3900
  159SAPE  H13Y17821   5.222   2.583   7.606 -0.1485  0.8162  1.1245
  159SAPE  C31417822   5.201   2.520   7.810 -0.2374  0.2063  0.1546
  159SAPE  H14X17823   5.139   2.613   7.812 -0.7026 -0.0959  0.1249
  159SAPE  H14Y17824   5.298   2.534   7.862 -0.0209 -1.0327  0.1166
  159SAPE  C31517825   5.137   2.421   7.900  0.1668  0.7161  0.0302
  159SAPE  H15X17826   5.039   2.396   7.854 -0.2512  1.5469  0.4698
  159SAPE  H15Y17827   5.115   2.471   7.996 -2.3245  0.0769 -0.1392
  159SAPE  C31617828   5.221   2.294   7.925  0.0475  0.0175  0.1400
  159SAPE  H16X17829   5.328   2.325   7.923  0.2267 -0.5360  0.6217
  159SAPE  H16Y17830   5.191   2.232   7.838  0.6338  0.6792 -0.5538
  159SAPE  C31717831   5.206   2.218   8.055  0.5335  0.0252  0.0173
  159SAPE  H17X17832   5.286   2.141   8.053  1.5100  1.0393 -1.0337
  159SAPE  H17Y17833   5.109   2.166   8.046 -1.2008  2.1869  3.8213
  159SAPE  C31817834   5.213   2.307   8.176 -0.5562 -0.2628  0.1307
  159SAPE  H18X17835   5.229   2.245   8.267  1.5822  0.6501  0.4409
  159SAPE  H18Y17836   5.126   2.374   8.191 -0.8785 -0.3655 -1.1519
  159SAPE  H18Z17837   5.303   2.371   8.187 -0.1299 -1.1037  1.8101
  160SAPE     N17838   4.761   4.262   6.108  0.0006 -0.3380  0.7482
  160SAPE   HN117839   4.814   4.350   6.094  1.8836 -1.3387  1.3039
  160SAPE   HN217840   4.666   4.283   6.071 -0.0068 -4.1045 -1.8609
  160SAPE   HN317841   4.754   4.253   6.212  2.1962  0.7631  1.0404
  160SAPE   C1217842   4.811   4.154   6.024 -1.0207  0.3376  0.1328
  160SAPE  H12A17843   4.870   4.192   5.938  1.9142 -4.5765 -0.3964
  160SAPE  H12B17844   4.728   4.102   5.972 -1.1218  1.2107 -0.6075
  160SAPE   C1117845   4.920   4.062   6.098 -0.0729 -0.5163 -0.2107
  160SAPE  H11A17846   4.953   3.987   6.023  2.1560  0.3895 -0.2236
  160SAPE  H11B17847   4.874   4.016   6.188  0.2395  0.3668  0.4208
  160SAPE     P17848   5.163   4.085   6.212 -0.4647  0.4055 -0.3452
  160SAPE   O1317849   5.168   3.941   6.195 -0.0253 -0.2207 -0.5807
  160SAPE   O1417850   5.284   4.164   6.168  0.5368  0.0014 -0.0729
  160SAPE   O1217851   5.035   4.141   6.137  0.2016  0.6824  0.0474
  160SAPE   O1117852   5.129   4.108   6.365 -0.4058 -0.0270 -0.1367
  160SAPE    C117853   5.127   4.241   6.421 -0.3650  0.0344  0.5767
  160SAPE    HA17854   5.232   4.275   6.409 -0.7482  1.3323  0.7518
  160SAPE    HB17855   5.062   4.314   6.368 -0.1303 -0.1783 -0.0146
  160SAPE    C217856   5.098   4.226   6.576  0.4541  0.3238 -0.6602
  160SAPE    HS17857   5.064   4.323   6.618 -1.9085 -1.6002  2.2305
  160SAPE   O2117858   5.204   4.170   6.651  0.3516 -0.2352 -0.0812
  160SAPE   C2117859   5.299   4.257   6.685 -0.3713 -0.2425 -0.6686
  160SAPE   O2217860   5.300   4.377   6.657 -0.0811  0.5524 -0.4121
  160SAPE   C2217861   5.390   4.190   6.789 -0.1048 -0.5188  0.4406
  160SAPE   H2R17862   5.338   4.185   6.887  1.5065  0.1718  1.3575
  160SAPE   H2S17863   5.422   4.092   6.748 -0.3963 -0.8448  0.9789
  160SAPE    C317864   4.978   4.131   6.597 -0.9510 -0.2887  0.3741
  160SAPE    HX17865   5.007   4.025   6.584 -1.7816 -0.4322 -0.3771
  160SAPE    HY17866   4.902   4.141   6.516  1.4343  1.7284 -1.7776
  160SAPE   O3117867   4.914   4.142   6.724 -0.5544  0.2439 -0.4129
  160SAPE   C3117868   4.826   4.242   6.733  0.4510 -0.6757 -0.0831
  160SAPE   O3217869   4.817   4.331   6.651 -0.3326  0.2672 -0.5104
  160SAPE   C3217870   4.737   4.218   6.853 -0.0968  0.3733  0.4147
  160SAPE   H2X17871   4.803   4.228   6.942  0.4966  0.0572  0.0170
  160SAPE   H2Y17872   4.692   4.117   6.849  0.7312 -0.1807  3.1486
  160SAPE   C2317873   5.525   4.262   6.813 -0.3326  0.5419  0.3036
  160SAPE   H3R17874   5.570   4.288   6.714 -0.6831  3.7867  0.8858
  160SAPE   H3S17875   5.590   4.186   6.862 -1.7653 -0.1181  1.2532
  160SAPE   C2417876   5.500   4.379   6.913 -0.1238 -0.2843  0.2602
  160SAPE   H4R17877   5.428   4.346   6.991  0.2535 -0.8714  0.3672
  160SAPE   H4S17878   5.471   4.472   6.860  0.6089 -0.8167 -1.1145
  160SAPE   C2517879   5.626   4.424   6.978 -0.4965 -0.3033  0.2584
  160SAPE   H5R17880   5.699   4.458   6.904 -1.5348  2.0430  0.2109
  160SAPE   C2617881   5.660   4.435   7.110  0.0227  0.3527 -0.0112
  160SAPE   H6R17882   5.758   4.481   7.132  0.5228 -0.6823 -0.0130
  160SAPE   C2717883   5.579   4.403   7.239  0.1385 -0.2805  0.4273
  160SAPE   H7R17884   5.470   4.413   7.220  0.1001  2.0670  1.5354
  160SAPE   H7S17885   5.593   4.483   7.315 -1.3364  2.3257 -1.8617
  160SAPE   C2817886   5.610   4.265   7.283  0.2049 -0.7515 -0.4646
  160SAPE   H8R17887   5.585   4.185   7.211  2.0364  0.0341 -2.0983
  160SAPE   C2917888   5.646   4.222   7.406 -0.0581 -0.4195  0.2262
  160SAPE   H9R17889   5.665   4.114   7.412 -0.2752 -0.7302 -2.8695
  160SAPE  C21017890   5.665   4.300   7.529  0.7011 -0.3285 -0.4381
  160SAPE  H10R17891   5.683   4.409   7.518  2.4119 -0.5462 -0.0738
  160SAPE  H10S17892   5.749   4.258   7.588  1.2037 -0.2295 -1.0675
  160SAPE  C21117893   5.533   4.286   7.607 -0.5844  0.4440  0.2078
  160SAPE  H11R17894   5.446   4.293   7.540 -1.9518  0.2465  1.9054
  160SAPE  C21217895   5.527   4.272   7.740  0.2161 -0.6687  0.1989
  160SAPE  H12R17896   5.427   4.273   7.785 -0.5849  1.9756 -1.4518
  160SAPE  C21317897   5.634   4.264   7.837  0.0136 -0.0318  0.4299
  160SAPE  H13R17898   5.726   4.284   7.778  0.0199  0.1527  0.5029
  160SAPE  H13S17899   5.637   4.157   7.867 -0.3680  0.3791  2.0290
  160SAPE  C21417900   5.615   4.344   7.965  0.2274  0.1102 -0.0750
  160SAPE  H14R17901   5.527   4.410   7.974 -0.6247 -1.0608  0.5588
  160SAPE  C21517902   5.682   4.326   8.081 -0.0408  0.9434  0.3195
  160SAPE  H15R17903   5.654   4.387   8.168  1.8221  2.7670 -0.2914
  160SAPE  C21617904   5.780   4.214   8.107  0.0940  0.6559  0.3418
  160SAPE  H16R17905   5.784   4.132   8.033 -0.2145 -0.8087  1.8912
  160SAPE  H16S17906   5.762   4.175   8.210 -0.5097  1.4927  0.5718
  160SAPE  C21717907   5.931   4.264   8.095  0.3889 -0.1703  0.5631
  160SAPE  H17R17908   5.951   4.352   8.161  1.0317  0.4283 -0.4132
  160SAPE  H17S17909   5.946   4.302   7.992 -0.6699 -0.3718  0.3209
  160SAPE  C21817910   6.038   4.161   8.118 -0.3845 -0.2915  0.2484
  160SAPE  H18R17911   6.134   4.216   8.122  0.2683 -1.3397 -0.5912
  160SAPE  H18S17912   6.057   4.108   8.022 -0.3885 -1.0702  0.6639
  160SAPE  C21917913   6.024   4.077   8.248 -0.6964 -0.7446 -0.8278
  160SAPE  H19R17914   6.093   3.991   8.244  1.0353  0.4907  0.9294
  160SAPE  H19S17915   5.921   4.035   8.251 -1.4250  1.0116  0.0736
  160SAPE  C22017916   6.045   4.154   8.378 -0.6658 -0.4493  0.3016
  160SAPE  H20R17917   6.010   4.103   8.470 -1.9178 -0.2982 -0.0736
  160SAPE  H20S17918   5.982   4.246   8.374 -3.1060 -2.0106  0.6811
  160SAPE  H20T17919   6.147   4.196   8.393 -0.5480 -1.1572  1.5948
  160SAPE   C3317920   4.622   4.312   6.870 -0.1672 -0.5265  0.4391
  160SAPE   H3X17921   4.527   4.284   6.818  0.1907 -1.7846  0.4440
  160SAPE   H3Y17922   4.644   4.411   6.824 -2.0536 -0.6326 -0.8024
  160SAPE   C3417923   4.600   4.328   7.022 -0.1349  0.0906  0.0318
  160SAPE   H4X17924   4.511   4.394   7.036 -0.4405 -0.1645 -0.6538
  160SAPE   H4Y17925   4.691   4.379   7.060  1.7029 -4.1389  1.9339
  160SAPE   C3517926   4.571   4.204   7.111  0.7555  0.2806  0.2171
  160SAPE   H5X17927   4.655   4.135   7.087  1.3220  1.9854 -3.2895
  160SAPE   H5Y17928   4.477   4.153   7.082  0.6382  0.2399  0.6565
  160SAPE   C3617929   4.583   4.239   7.257  0.4447  0.0610 -0.2239
  160SAPE   H6X17930   4.487   4.286   7.287 -0.2045 -2.3869  1.9374
  160SAPE   H6Y17931   4.679   4.292   7.277  0.1677  0.9100 -1.1106
  160SAPE   C3717932   4.600   4.108   7.344  0.1444  0.0527 -0.0665
  160SAPE   H7X17933   4.702   4.064   7.339 -0.5089 -1.4429 -0.9048
  160SAPE   H7Y17934   4.526   4.031   7.314  0.9607 -1.1883  1.0155
  160SAPE   C3817935   4.585   4.140   7.489 -0.3129  0.0059  0.1791
  160SAPE   H8X17936   4.478   4.171   7.497 -1.0160 -2.1647 -0.0859
  160SAPE   H8Y17937   4.647   4.228   7.515 -0.7866  0.6635 -0.8714
  160SAPE   C3917938   4.638   4.034   7.584  0.8161  0.5141  0.1445
  160SAPE   H9X17939   4.749   4.045   7.585  0.6789  2.9368 -1.8858
  160SAPE   H9Y17940   4.611   3.932   7.547  1.1846 -0.1421  1.5935
  160SAPE  C31017941   4.581   4.040   7.731  0.5155 -0.6808 -0.1919
  160SAPE  H10X17942   4.638   3.971   7.796  0.6621  0.7856  1.3005
  160SAPE  H10Y17943   4.474   4.009   7.725 -0.4215  2.3707 -1.4013
  160SAPE  C31117944   4.609   4.170   7.797 -0.2906 -0.9136 -0.2360
  160SAPE  H11X17945   4.564   4.255   7.741  0.1431 -1.0985 -0.8737
  160SAPE  H11Y17946   4.718   4.188   7.792 -0.6436  1.8793  0.3431
  160SAPE  C31217947   4.566   4.184   7.940  0.5989 -0.4628 -0.2659
  160SAPE  H12X17948   4.462   4.145   7.947 -0.2178  1.8405  1.8960
  160SAPE  H12Y17949   4.570   4.291   7.968  1.0122 -0.2531 -1.1209
  160SAPE  C31317950   4.644   4.126   8.049  0.6227  0.1932 -0.4612
  160SAPE  H13X17951   4.752   4.150   8.043  0.9338 -0.5103  1.5996
  160SAPE  H13Y17952   4.634   4.015   8.041  0.1103  0.2133 -0.1548
  160SAPE  C31417953   4.602   4.182   8.190 -0.5420 -0.3597 -0.1602
  160SAPE  H14X17954   4.563   4.285   8.176 -0.9571 -0.3305  1.0942
  160SAPE  H14Y17955   4.693   4.181   8.254 -1.5721 -2.5336  1.3840
  160SAPE  C31517956   4.492   4.099   8.261  0.1863 -0.5886  0.4153
  160SAPE  H15X17957   4.493   3.990   8.239  1.5598 -0.7629  1.2261
  160SAPE  H15Y17958   4.402   4.150   8.222 -0.0501 -0.0032  1.7013
  160SAPE  C31617959   4.487   4.130   8.410  0.5189  0.6022 -0.2568
  160SAPE  H16X17960   4.478   4.240   8.408  0.5637  0.5935 -1.1952
  160SAPE  H16Y17961   4.584   4.100   8.454  0.0870 -0.6582 -0.1226
  160SAPE  C31717962   4.378   4.071   8.493  0.4035 -0.3495 -0.1957
  160SAPE  H17X17963   4.404   3.964   8.476  2.6524  0.2456 -0.8544
  160SAPE  H17Y17964   4.279   4.107   8.460 -1.3149 -0.4967  4.1092
  160SAPE  C31817965   4.396   4.097   8.647 -0.1998 -0.2892  0.2374
  160SAPE  H18X17966   4.297   4.080   8.694 -0.4521 -0.5718 -0.3812
  160SAPE  H18Y17967   4.432   4.201   8.662  0.5705  0.1859 -3.7033
  160SAPE  H18Z17968   4.474   4.026   8.682 -0.8933 -1.5997 -0.7662
  161SOPE     N17969   3.000   0.182  10.960 -0.4579  0.1981 -0.2473
  161SOPE   HN117970   3.067   0.246  10.913 -0.6038  1.4099  1.1266
  161SOPE   HN217971   2.926   0.158  10.891  0.4939  2.4831 -2.2138
  161SOPE   HN317972   2.955   0.232  11.039 -3.5071 -1.2818 -0.9238
  161SOPE   C1217973   3.056   0.055  11.022 -0.1960 -0.2355  0.4805
  161SOPE  H12A17974   2.966   0.015  11.074 -0.3797  0.5242  0.7642
  161SOPE  H12B17975   3.133   0.093  11.092  1.2923  0.9760 -1.7057
  161SOPE   C1117976   3.113  -0.039  10.912 -0.3116 -0.7333  0.0142
  161SOPE  H11A17977   3.140  -0.132  10.968  1.1518 -0.6778 -0.5475
  161SOPE  H11B17978   3.201   0.010  10.865 -1.3709  2.7218  1.3337
  161SOPE     P17979   3.054  -0.155  10.684  0.0333 -0.0341  0.2984
  161SOPE   O1317980   3.039  -0.297  10.719  0.4075 -0.2134 -0.2126
  161SOPE   O1417981   3.182  -0.115  10.626  0.0593  0.2412 -0.1021
  161SOPE   O1217982   3.013  -0.069  10.812 -0.3985 -0.0106  0.0355
  161SOPE   O1117983   2.945  -0.106  10.582  0.0723 -0.1258 -0.4926
  161SOPE    C117984   2.949   0.031  10.533 -0.0413 -0.3449 -0.1991
  161SOPE    HA17985   3.051   0.074  10.520 -0.4716  0.6890 -0.2412
  161SOPE    HB17986   2.891   0.104  10.592 -0.8408  1.9973 -3.5997
  161SOPE    C217987   2.884   0.040  10.390 -0.1190  0.0485 -0.5258
  161SOPE    HS17988   2.793  -0.022  10.374 -0.7068  1.1812 -1.7930
  161SOPE   O2117989   2.974  -0.001  10.288 -0.1528  0.1744  0.6899
  161SOPE   C2117990   3.006  -0.132  10.290  0.6093 -0.7897  0.5271
  161SOPE   O2217991   2.930  -0.217  10.328  0.0620  0.0165 -0.6866
  161SOPE   C2217992   3.145  -0.150  10.232  0.1900  0.0764  1.0839
  161SOPE   H2R17993   3.220  -0.128  10.312  1.6697 -0.1103 -0.2059
  161SOPE   H2S17994   3.159  -0.084  10.143 -0.9842 -1.9176 -0.6542
  161SOPE    C317995   2.830   0.182  10.353  0.2644  0.2887  0.4272
  161SOPE    HX17996   2.910   0.252  10.386  1.7230  0.0745 -2.3311
  161SOPE    HY17997   2.737   0.215  10.405 -1.1795  0.0987 -1.8769
  161SOPE   O3117998   2.810   0.189  10.207  0.3112 -0.2115  0.2739
  161SOPE   C3117999   2.693   0.171  10.154 -0.1808  0.4976  1.2687
  161SOPE   O3218000   2.595   0.141  10.215  0.2164  0.9413  0.5875
  161SOPE   C3218001   2.701   0.201   9.997  0.6875  0.1205 -0.6327
  161SOPE   H2X18002   2.764   0.121   9.952 -0.1804 -1.4946  0.8758
  161SOPE   H2Y18003   2.741   0.304   9.991 -1.1901  1.2677  3.4920
  161SOPE   C2318004   3.173  -0.298  10.175  0.2805  0.1940 -0.3577
  161SOPE   H3R18005   3.119  -0.371  10.238  0.3702 -0.9192 -1.5319
  161SOPE   H3S18006   3.282  -0.319  10.184  0.2199  0.6373  2.0119
  161SOPE   C2418007   3.131  -0.308  10.024 -0.8767 -0.3005 -0.8947
  161SOPE   H4R18008   3.020  -0.315  10.024 -0.9508  0.6425 -1.4631
  161SOPE   H4S18009   3.161  -0.212   9.975  1.2882  0.0747  0.9997
  161SOPE   C2518010   3.200  -0.422   9.955  0.1795 -0.6279  0.0127
  161SOPE   H5R18011   3.309  -0.406   9.964 -0.1392  1.2526  1.1734
  161SOPE   H5S18012   3.169  -0.519  10.001  1.6771 -2.8506 -3.3178
  161SOPE   C2618013   3.160  -0.432   9.804  0.2589  0.2805  0.0060
  161SOPE   H6R18014   3.172  -0.535   9.765  0.6701  1.2124 -2.4679
  161SOPE   H6S18015   3.057  -0.394   9.792 -1.8308 -3.0076  4.4478
  161SOPE   C2718016   3.253  -0.347   9.704 -0.2371  0.6976 -0.8747
  161SOPE   H7R18017   3.233  -0.244   9.743  1.8949  0.3065  1.5509
  161SOPE   H7S18018   3.354  -0.385   9.729 -0.6780  0.6170  0.9864
  161SOPE   C2818019   3.219  -0.363   9.564  0.2245 -0.1566  0.3654
  161SOPE   H8R18020   3.217  -0.474   9.556  1.1350 -0.3654  2.4056
  161SOPE   H8S18021   3.122  -0.329   9.522  0.0086  0.4299  1.2951
  161SOPE   C2918022   3.331  -0.308   9.480 -0.1719  0.0285 -0.4468
  161SOPE   H9118023   3.351  -0.201   9.495  0.1328 -0.2977  1.7315
  161SOPE  C21018024   3.412  -0.379   9.403 -0.0055 -0.1960  0.1908
  161SOPE  H10118025   3.483  -0.328   9.335  1.7607 -1.5167  0.9557
  161SOPE  C21118026   3.393  -0.520   9.367 -0.1756  0.1755 -0.0064
  161SOPE  H11R18027   3.295  -0.566   9.391  1.0852 -2.2497  0.7481
  161SOPE  H11S18028   3.467  -0.580   9.424  0.6347  2.0290  1.0239
  161SOPE  C21218029   3.405  -0.527   9.222  0.2748 -0.3520 -0.3168
  161SOPE  H12R18030   3.412  -0.634   9.196 -0.4866  0.0342 -2.2469
  161SOPE  H12S18031   3.490  -0.472   9.177  0.1198 -0.1302 -0.3415
  161SOPE  C21318032   3.277  -0.496   9.141 -0.4460 -0.1371 -0.3539
  161SOPE  H13R18033   3.255  -0.388   9.157  1.4529  0.2850 -0.4465
  161SOPE  H13S18034   3.194  -0.556   9.183 -0.7577  0.1698 -0.5197
  161SOPE  C21418035   3.294  -0.520   8.990 -0.1309 -0.1832 -0.5626
  161SOPE  H14R18036   3.196  -0.504   8.942  0.1045 -0.3177 -1.0877
  161SOPE  H14S18037   3.337  -0.621   8.973 -0.5281 -0.6343  0.9294
  161SOPE  C21518038   3.374  -0.419   8.914  0.5133 -0.7851  0.4101
  161SOPE  H15R18039   3.477  -0.419   8.954  0.2635 -2.6039  1.1286
  161SOPE  H15S18040   3.337  -0.315   8.927  0.8706 -0.6615  0.4520
  161SOPE  C21618041   3.387  -0.460   8.761 -0.2599 -0.1991 -0.0192
  161SOPE  H16R18042   3.297  -0.509   8.719 -0.1079 -0.0353 -0.5505
  161SOPE  H16S18043   3.481  -0.519   8.749  0.0908  0.4648 -0.6468
  161SOPE  C21718044   3.402  -0.327   8.690 -0.0017  0.0494  0.2455
  161SOPE  H17R18045   3.322  -0.258   8.724  1.0498  1.9059 -0.8896
  161SOPE  H17S18046   3.384  -0.346   8.582  0.7955  0.9219 -0.0574
  161SOPE  C21818047   3.536  -0.253   8.697  0.5827  0.4666  0.2233
  161SOPE  H18R18048   3.567  -0.231   8.802  0.6545  0.4174  0.2121
  161SOPE  H18S18049   3.534  -0.157   8.642 -0.8787 -0.1236 -0.8151
  161SOPE  H18T18050   3.606  -0.312   8.635 -1.1945  0.2154 -1.6658
  161SOPE   C3318051   2.568   0.183   9.916  0.4309  0.6246  0.3734
  161SOPE   H3X18052   2.485   0.233   9.971 -1.4248 -0.6953 -1.1102
  161SOPE   H3Y18053   2.553   0.073   9.921  2.3603  0.3723  2.0920
  161SOPE   C3418054   2.574   0.248   9.773 -0.4295 -0.0826 -0.5736
  161SOPE   H4X18055   2.677   0.223   9.737 -0.4180 -2.3323  0.8254
  161SOPE   H4Y18056   2.570   0.358   9.783 -0.1891  0.0334 -1.6005
  161SOPE   C3518057   2.459   0.207   9.681  0.0939  0.0323 -0.2852
  161SOPE   H5X18058   2.359   0.219   9.728  0.4776  1.3633  0.2587
  161SOPE   H5Y18059   2.478   0.107   9.638  1.5315  1.4078 -3.1532
  161SOPE   C3618060   2.436   0.301   9.559 -0.1386  0.4738  1.1158
  161SOPE   H6X18061   2.536   0.318   9.512  0.4542  0.2032  2.2446
  161SOPE   H6Y18062   2.422   0.408   9.587  0.3437  1.1771 -1.0935
  161SOPE   C3718063   2.336   0.251   9.459  0.1582  0.2970 -0.5562
  161SOPE   H7X18064   2.232   0.266   9.493  0.8711  2.2021  1.0354
  161SOPE   H7Y18065   2.367   0.144   9.453 -0.3478  0.0722  0.7138
  161SOPE   C3818066   2.363   0.312   9.324 -0.1355 -0.2178  0.6741
  161SOPE   H8X18067   2.472   0.320   9.302  0.1937 -0.3994  2.1108
  161SOPE   H8Y18068   2.341   0.420   9.329  2.0914  0.3703 -0.6551
  161SOPE   C3918069   2.280   0.243   9.211  0.4969 -0.0207 -0.1956
  161SOPE   H9X18070   2.170   0.235   9.224 -0.0543  0.8019 -3.5102
  161SOPE   H9Y18071   2.314   0.139   9.188 -1.8453 -0.3029 -2.8165
  161SOPE  C31018072   2.267   0.313   9.073  1.0017 -0.2892 -0.4896
  161SOPE  H10X18073   2.211   0.405   9.098 -4.6890 -3.2780 -0.4651
  161SOPE  H10Y18074   2.188   0.259   9.016  0.2048 -0.0159  0.3265
  161SOPE  C31118075   2.386   0.332   8.989  0.1515  0.5608 -0.8493
  161SOPE  H11X18076   2.450   0.241   8.991 -3.2915 -2.0263  0.0744
  161SOPE  H11Y18077   2.444   0.415   9.033  0.2218  0.1926 -0.2384
  161SOPE  C31218078   2.344   0.355   8.841 -0.1850  0.7585  0.7707
  161SOPE  H12X18079   2.256   0.418   8.865 -0.4073  0.0976  1.7557
  161SOPE  H12Y18080   2.298   0.263   8.799  0.9893  0.3813  0.2728
  161SOPE  C31318081   2.444   0.431   8.759  0.5809  0.1551  0.3290
  161SOPE  H13X18082   2.501   0.364   8.692  2.1673  1.3744  0.3930
  161SOPE  H13Y18083   2.511   0.482   8.832 -0.2004  0.1397  1.0768
  161SOPE  C31418084   2.385   0.535   8.653 -0.0929  0.5266 -0.3913
  161SOPE  H14X18085   2.349   0.623   8.710 -1.9131  0.4164 -1.2985
  161SOPE  H14Y18086   2.298   0.488   8.602 -1.1293  2.7174 -0.8038
  161SOPE  C31518087   2.486   0.585   8.545 -0.8496 -0.1103  0.5978
  161SOPE  H15X18088   2.545   0.503   8.499  1.3712 -0.3528  3.5837
  161SOPE  H15Y18089   2.560   0.642   8.606 -2.4371  0.3473  2.1817
  161SOPE  C31618090   2.422   0.673   8.434 -0.1454 -0.3099 -0.7291
  161SOPE  H16X18091   2.390   0.776   8.463 -1.8061 -0.5797 -1.4361
  161SOPE  H16Y18092   2.333   0.618   8.397 -0.2420 -1.4195  1.0549
  161SOPE  C31718093   2.516   0.705   8.322  0.4323 -0.5747  0.2862
  161SOPE  H17X18094   2.561   0.613   8.280 -0.4440 -0.4244 -1.0431
  161SOPE  H17Y18095   2.595   0.775   8.359  0.1937 -0.9038  1.4676
  161SOPE  C31818096   2.451   0.796   8.210 -0.3113  0.3492  0.4639
  161SOPE  H18X18097   2.394   0.876   8.261 -1.3117  1.0342 -1.6126
  161SOPE  H18Y18098   2.383   0.734   8.148 -2.8442  3.1259  0.2411
  161SOPE  H18Z18099   2.531   0.823   8.138 -0.2159 -0.8331  0.1108
  162SOPE     N18100   3.465   0.920  11.186  0.2829 -0.3944  0.1888
  162SOPE   HN118101   3.483   0.822  11.159  0.3373 -0.4867  0.5531
  162SOPE   HN218102   3.457   0.939  11.288  2.0913  2.0467 -0.0152
  162SOPE   HN318103   3.384   0.955  11.132  1.6972 -0.2567 -1.9607
  162SOPE   C1218104   3.576   1.015  11.141  1.1201  0.3185  0.2112
  162SOPE  H12A18105   3.671   0.977  11.183  0.2159 -3.2851 -0.6285
  162SOPE  H12B18106   3.556   1.120  11.170  2.3462  0.4582  0.5999
  162SOPE   C1118107   3.587   0.998  10.988  0.5041  0.4605  0.8477
  162SOPE  H11A18108   3.664   1.067  10.946 -1.0659  0.9702 -1.3728
  162SOPE  H11B18109   3.486   1.021  10.949  1.1255 -0.1815 -1.2961
  162SOPE     P18110   3.762   0.791  10.965  0.0411  0.3558 -0.1512
  162SOPE   O1318111   3.739   0.654  11.016 -0.1533  1.0246  0.4451
  162SOPE   O1418112   3.848   0.872  11.054 -0.3582  0.6569  0.1750
  162SOPE   O1218113   3.620   0.862  10.953 -0.0686  0.1849 -0.2725
  162SOPE   O1118114   3.816   0.785  10.816 -0.4977 -0.3207 -0.1341
  162SOPE    C118115   3.954   0.753  10.791  0.1532 -0.0572 -0.3796
  162SOPE    HA18116   4.021   0.745  10.879  0.9931 -1.7120 -1.1122
  162SOPE    HB18117   4.000   0.842  10.743 -1.0203  0.6305 -0.2576
  162SOPE    C218118   3.974   0.638  10.697  0.5275  0.0464  0.4362
  162SOPE    HS18119   4.083   0.630  10.677  0.3285 -1.2465 -0.3213
  162SOPE   O2118120   3.898   0.657  10.581  0.0540 -0.1163 -0.6499
  162SOPE   C2118121   3.958   0.728  10.488  0.0717 -0.6290 -0.4118
  162SOPE   O2218122   4.072   0.776  10.503  0.3374  0.2134 -0.4558
  162SOPE   C2218123   3.872   0.720  10.368 -0.0667  0.0780 -0.2119
  162SOPE   H2R18124   3.769   0.738  10.407 -1.2061  0.2330 -3.0260
  162SOPE   H2S18125   3.880   0.614  10.336 -0.7096 -0.4734  1.3338
  162SOPE    C318126   3.921   0.505  10.772 -0.4104 -0.6268  0.8703
  162SOPE    HX18127   3.840   0.523  10.846 -0.1974 -0.1616  0.9950
  162SOPE    HY18128   4.011   0.455  10.815  1.3371 -1.2483 -3.0882
  162SOPE   O3118129   3.889   0.405  10.674 -0.4260 -0.0775  0.5008
  162SOPE   C3118130   3.760   0.387  10.646 -0.5193  0.4595 -0.5961
  162SOPE   O3218131   3.667   0.420  10.716  0.4162 -0.4580  0.4687
  162SOPE   C3218132   3.748   0.298  10.523 -0.0828  0.1690 -1.1139
  162SOPE   H2X18133   3.746   0.199  10.571 -0.3385  1.1255  0.9317
  162SOPE   H2Y18134   3.839   0.302  10.458 -0.4648 -0.1197 -1.6778
  162SOPE   C2318135   3.900   0.812  10.246  0.2358  0.1570 -1.1696
  162SOPE   H3R18136   3.990   0.776  10.192  0.9349  0.4889 -0.2560
  162SOPE   H3S18137   3.920   0.912  10.289  1.1685 -0.8712  0.9841
  162SOPE   C2418138   3.791   0.824  10.148  1.3058 -0.5280  0.5900
  162SOPE   H4R18139   3.769   0.732  10.089  1.7548  0.7014 -1.6334
  162SOPE   H4S18140   3.697   0.851  10.200  0.4354 -1.9588 -0.1863
  162SOPE   C2518141   3.820   0.938  10.047  0.6154  0.4486  0.1565
  162SOPE   H5R18142   3.830   1.037  10.096  0.4521  1.0982 -1.0704
  162SOPE   H5S18143   3.922   0.916  10.008  1.3034  2.0760  0.9445
  162SOPE   C2618144   3.720   0.943   9.932  0.9556  0.0598 -0.2997
  162SOPE   H6R18145   3.781   0.993   9.854  1.6896  0.4449  0.5015
  162SOPE   H6S18146   3.688   0.842   9.899 -0.9050  0.2734  0.6845
  162SOPE   C2718147   3.601   1.031   9.969  0.1340  0.2149  0.4928
  162SOPE   H7R18148   3.533   0.978  10.040  0.4153 -0.0188  0.5911
  162SOPE   H7S18149   3.636   1.119  10.028 -3.2301  1.3148  1.0670
  162SOPE   C2818150   3.504   1.072   9.860  0.7949  0.4893  0.0981
  162SOPE   H8R18151   3.452   0.984   9.815 -1.2152  1.1524  1.0245
  162SOPE   H8S18152   3.414   1.130   9.890  0.2346 -1.0416  1.5365
  162SOPE   C2918153   3.572   1.148   9.751 -0.1490  0.0726 -0.0527
  162SOPE   H9118154   3.597   1.249   9.786  0.2082 -0.4778  1.3771
  162SOPE  C21018155   3.599   1.116   9.625 -0.0225  0.0724 -0.5544
  162SOPE  H10118156   3.655   1.188   9.563  1.2737 -0.2462  0.2107
  162SOPE  C21118157   3.563   0.986   9.556  0.1331  0.4617  0.1401
  162SOPE  H11R18158   3.461   1.000   9.516 -1.1840  3.8841  3.9060
  162SOPE  H11S18159   3.568   0.906   9.633 -0.1275  0.2102 -0.1026
  162SOPE  C21218160   3.659   0.931   9.447 -0.6462  0.7034 -0.2322
  162SOPE  H12R18161   3.633   0.829   9.412 -0.1219  0.7074 -0.6507
  162SOPE  H12S18162   3.764   0.932   9.483  0.6006  2.3195 -3.5112
  162SOPE  C21318163   3.652   1.014   9.323 -0.3773  0.0581 -0.3991
  162SOPE  H13R18164   3.708   1.107   9.345  2.0893 -1.7157  1.2502
  162SOPE  H13S18165   3.548   1.047   9.302  0.2492  1.6490 -1.1189
  162SOPE  C21418166   3.702   0.943   9.192  1.0776 -0.0452 -0.2349
  162SOPE  H14R18167   3.799   0.895   9.215  0.3519 -2.4450 -1.7590
  162SOPE  H14S18168   3.711   1.027   9.121 -3.0190  2.0239  1.3396
  162SOPE  C21518169   3.603   0.843   9.138  0.5083 -0.1195 -0.1399
  162SOPE  H15R18170   3.503   0.881   9.111 -0.0330 -0.2703  1.5627
  162SOPE  H15S18171   3.572   0.771   9.216 -0.5327  1.9712  1.4832
  162SOPE  C21618172   3.643   0.766   9.001 -0.1504 -0.3056 -0.1772
  162SOPE  H16R18173   3.570   0.682   8.998 -2.1339  1.2022  2.0167
  162SOPE  H16S18174   3.750   0.735   9.004  0.5863  1.7414 -2.0944
  162SOPE  C21718175   3.630   0.853   8.876 -0.2232 -0.2130 -0.1522
  162SOPE  H17R18176   3.710   0.930   8.876 -2.0225  1.8679  3.0020
  162SOPE  H17S18177   3.533   0.907   8.881 -1.5496 -2.5611  2.3636
  162SOPE  C21818178   3.630   0.764   8.751  0.0614 -0.0867 -0.0484
  162SOPE  H18R18179   3.627   0.829   8.660  0.7102 -1.8712 -1.4046
  162SOPE  H18S18180   3.540   0.702   8.733  0.8280 -0.5883 -2.6285
  162SOPE  H18T18181   3.724   0.705   8.750  0.9579  1.2756 -1.1447
  162SOPE   C3318182   3.627   0.326  10.443 -0.1594 -0.5984 -0.8703
  162SOPE   H3X18183   3.534   0.319  10.504  1.2390 -1.6177  1.2464
  162SOPE   H3Y18184   3.633   0.259  10.355 -0.9737 -0.8048 -0.7770
  162SOPE   C3418185   3.616   0.460  10.368  0.3194  0.6987 -0.3249
  162SOPE   H4X18186   3.696   0.461  10.291  0.3862  0.2113 -0.2623
  162SOPE   H4Y18187   3.623   0.542  10.443  1.2525 -0.9292  1.4437
  162SOPE   C3518188   3.484   0.471  10.287  0.0474  0.3995  0.8476
  162SOPE   H5X18189   3.414   0.528  10.352  0.1976  0.1086  1.2716
  162SOPE   H5Y18190   3.442   0.375  10.250 -1.3416  1.4601 -0.4412
  162SOPE   C3618191   3.507   0.558  10.162  0.1232  0.6450  0.4012
  162SOPE   H6X18192   3.569   0.489  10.100 -0.5967 -0.1821  0.5897
  162SOPE   H6Y18193   3.572   0.645  10.187 -0.5330  1.2457  0.0417
  162SOPE   C3718194   3.378   0.600  10.083  0.3149 -0.7422 -0.3938
  162SOPE   H7X18195   3.317   0.666  10.148  0.0320  2.2208 -3.4244
  162SOPE   H7Y18196   3.308   0.518  10.053 -1.1714  0.6189 -0.7633
  162SOPE   C3818197   3.404   0.679   9.962  0.1672  0.7239  0.3185
  162SOPE   H8X18198   3.492   0.625   9.922  1.3617  1.1152  2.2474
  162SOPE   H8Y18199   3.453   0.778   9.980  1.4416 -0.3239  3.3625
  162SOPE   C3918200   3.296   0.716   9.866  0.5705  0.1567  0.1408
  162SOPE   H9X18201   3.232   0.625   9.860 -2.6797  2.1119  2.1317
  162SOPE   H9Y18202   3.340   0.734   9.766 -1.4435 -0.5101 -0.9313
  162SOPE  C31018203   3.199   0.836   9.890  0.4076 -0.2437  0.2300
  162SOPE  H10X18204   3.260   0.928   9.899 -0.5158  0.5996 -1.5912
  162SOPE  H10Y18205   3.145   0.811   9.984  0.7136 -0.3699  0.3748
  162SOPE  C31118206   3.099   0.854   9.776  0.1601 -0.0847  0.9856
  162SOPE  H11X18207   3.015   0.920   9.807  0.4974 -0.1970  2.1675
  162SOPE  H11Y18208   3.061   0.757   9.736  0.5801 -0.5230  1.6309
  162SOPE  C31218209   3.167   0.925   9.655  0.5027 -0.4562  0.2754
  162SOPE  H12X18210   3.241   0.852   9.614 -0.7511 -1.4762 -0.2600
  162SOPE  H12Y18211   3.213   1.019   9.692 -0.4324  0.2905 -0.4085
  162SOPE  C31318212   3.071   0.953   9.540  0.0257  0.0230 -1.1223
  162SOPE  H13X18213   2.988   1.012   9.585 -0.7224 -1.5902 -0.2882
  162SOPE  H13Y18214   3.035   0.854   9.504  2.3195 -1.0226 -0.7324
  162SOPE  C31418215   3.123   1.041   9.426  0.0900  0.1890  0.3424
  162SOPE  H14X18216   3.220   0.997   9.396 -0.1095 -0.9173  1.2535
  162SOPE  H14Y18217   3.141   1.142   9.467  1.0516 -0.4283  1.4956
  162SOPE  C31518218   3.032   1.044   9.299 -0.4207 -1.0275 -0.0539
  162SOPE  H15X18219   2.928   1.046   9.337 -0.9683 -3.3360 -1.2628
  162SOPE  H15Y18220   3.050   0.958   9.232  1.3299 -0.6107 -0.1720
  162SOPE  C31618221   3.033   1.163   9.204 -0.1205 -0.2533 -0.1512
  162SOPE  H16X18222   3.127   1.218   9.227 -0.4700  0.5350 -0.5924
  162SOPE  H16Y18223   2.944   1.224   9.231  2.0486  2.5997  1.1039
  162SOPE  C31718224   3.019   1.124   9.065  0.0710 -0.1486  0.1813
  162SOPE  H17X18225   2.917   1.084   9.044  0.3765 -0.9610  0.2192
  162SOPE  H17Y18226   3.099   1.052   9.039  0.9877  0.5819  0.8926
  162SOPE  C31818227   3.046   1.246   8.974  0.0824  0.5224  0.1001
  162SOPE  H18X18228   2.956   1.311   8.981  0.1028  0.6377 -0.6071
  162SOPE  H18Y18229   3.067   1.231   8.866  3.3803  0.9005  0.6003
  162SOPE  H18Z18230   3.141   1.294   9.006 -0.1983  3.1771 -2.5612
  163SOPE     N18231   5.977   6.772  11.142  0.7480  0.1744  0.0627
  163SOPE   HN118232   5.979   6.680  11.190  0.3606  0.5643  0.8447
  163SOPE   HN218233   6.073   6.813  11.146  1.4889 -1.4728 -0.2664
  163SOPE   HN318234   5.900   6.829  11.183  0.6889 -0.1273  0.3739
  163SOPE   C1218235   5.920   6.753  11.000 -0.3987  0.7282 -0.2881
  163SOPE  H12A18236   5.832   6.686  11.000  2.2010 -3.0001  0.1278
  163SOPE  H12B18237   5.989   6.692  10.938  1.9568 -0.1304  2.8995
  163SOPE   C1118238   5.897   6.881  10.925  0.4687  0.1849  0.4658
  163SOPE  H11A18239   5.821   6.939  10.982 -1.0601 -0.8329 -0.4683
  163SOPE  H11B18240   5.849   6.855  10.828 -0.0265 -0.6095  0.9188
  163SOPE     P18241   6.025   7.103  10.881 -0.3145  0.3115  0.1187
  163SOPE   O1318242   6.167   7.148  10.849  0.1068 -0.5613  0.5504
  163SOPE   O1418243   5.958   7.181  10.986  0.3790 -0.2369 -0.6714
  163SOPE   O1218244   6.027   6.949  10.915 -0.0498  0.5998  0.0745
  163SOPE   O1118245   5.944   7.103  10.745  0.2788  0.0081 -0.3290
  163SOPE    C118246   5.983   7.013  10.637  0.1292  0.5062  0.2116
  163SOPE    HA18247   6.001   6.910  10.672  0.9221 -0.6463 -3.1822
  163SOPE    HB18248   6.069   7.067  10.592 -1.0294  1.6074 -0.7996
  163SOPE    C218249   5.868   7.002  10.526 -0.2000  0.4679  0.3010
  163SOPE    HS18250   5.770   7.011  10.578 -0.8443 -1.8473 -0.4103
  163SOPE   O2118251   5.874   6.867  10.479  0.2910  0.0413 -0.0529
  163SOPE   C2118252   5.789   6.775  10.512  0.1901  0.0201  0.1285
  163SOPE   O2218253   5.692   6.785  10.587 -0.2009 -0.4384 -0.3906
  163SOPE   C2218254   5.794   6.668  10.409 -0.4153  0.3823  0.5218
  163SOPE   H2R18255   5.850   6.586  10.460 -0.7687 -0.0481  0.2197
  163SOPE   H2S18256   5.856   6.706  10.325  1.7662 -0.3239  1.6980
  163SOPE    C318257   5.883   7.107  10.415  0.0126  0.0228  0.0266
  163SOPE    HX18258   5.990   7.130  10.397 -0.6525  2.3433 -1.4306
  163SOPE    HY18259   5.832   7.203  10.438  0.7129  0.3809  0.0956
  163SOPE   O3118260   5.817   7.066  10.294  0.3031  0.7664  0.4271
  163SOPE   C3118261   5.887   6.989  10.212 -0.2559  0.1259  0.2544
  163SOPE   O3218262   6.005   6.955  10.226 -0.3060  0.2960  0.4615
  163SOPE   C3218263   5.796   6.938  10.099  0.3166  0.8070 -0.7842
  163SOPE   H2X18264   5.719   7.009  10.060 -0.2030  0.5734 -0.1983
  163SOPE   H2Y18265   5.739   6.866  10.162 -0.0831  1.0731 -0.8373
  163SOPE   C2318266   5.658   6.610  10.360  0.4483 -0.2558  0.0448
  163SOPE   H3R18267   5.612   6.663  10.275 -2.8991 -2.7679  0.0954
  163SOPE   H3S18268   5.591   6.593  10.447 -0.5278  1.9867 -0.2094
  163SOPE   C2418269   5.673   6.461  10.311  0.4736 -0.7887 -0.1954
  163SOPE   H4R18270   5.741   6.463  10.223  1.1104  2.1467  0.2471
  163SOPE   H4S18271   5.738   6.404  10.380  1.6036  1.1913  0.4813
  163SOPE   C2518272   5.543   6.381  10.285 -0.5712 -0.5691  0.3529
  163SOPE   H5R18273   5.565   6.275  10.263 -0.3960 -0.1372 -1.7670
  163SOPE   H5S18274   5.476   6.383  10.374 -1.3946 -1.3125 -0.2385
  163SOPE   C2618275   5.460   6.427  10.159  0.0163 -0.3157  0.2188
  163SOPE   H6R18276   5.436   6.531  10.191 -0.3258 -0.9866  2.3265
  163SOPE   H6S18277   5.513   6.413  10.063  0.1459 -2.9664  0.5966
  163SOPE   C2718278   5.337   6.329  10.142  0.1859 -0.1245 -0.1148
  163SOPE   H7R18279   5.369   6.223  10.129  2.6191  0.6179 -0.7427
  163SOPE   H7S18280   5.272   6.343  10.231  1.2040  2.5515  0.3044
  163SOPE   C2818281   5.260   6.372  10.016 -0.6713 -0.0662  0.1417
  163SOPE   H8R18282   5.335   6.380   9.934  1.0847  0.9863  1.7713
  163SOPE   H8S18283   5.196   6.292   9.973  2.2655 -2.0313 -0.9611
  163SOPE   C2918284   5.202   6.505  10.027 -0.1202  0.2085 -0.0915
  163SOPE   H9118285   5.203   6.553  10.126 -0.8135 -0.7251  0.3769
  163SOPE  C21018286   5.147   6.577   9.925 -0.0922 -0.6539 -0.0414
  163SOPE  H10118287   5.122   6.681   9.948 -2.0969 -0.8892 -0.9406
  163SOPE  C21118288   5.138   6.521   9.784 -0.2437 -0.2663 -0.1017
  163SOPE  H11R18289   5.028   6.509   9.776 -0.5839  0.4176  2.5386
  163SOPE  H11S18290   5.177   6.418   9.766 -2.2934 -1.2327  0.6156
  163SOPE  C21218291   5.197   6.607   9.673 -0.0136 -0.0708  1.5227
  163SOPE  H12R18292   5.307   6.617   9.666  0.0404 -1.1242  0.5606
  163SOPE  H12S18293   5.170   6.714   9.686  3.1371  1.2393 -1.2042
  163SOPE  C21318294   5.143   6.568   9.538  0.2437 -0.3235 -0.0270
  163SOPE  H13R18295   5.040   6.527   9.547  0.1630 -0.0736  0.1853
  163SOPE  H13S18296   5.191   6.478   9.494  0.4665 -0.1280 -0.1878
  163SOPE  C21418297   5.150   6.677   9.429 -0.7657 -0.0369  0.0606
  163SOPE  H14R18298   5.256   6.700   9.408 -1.2667  3.0975  0.5463
  163SOPE  H14S18299   5.090   6.764   9.463  0.7550  1.1042 -0.1165
  163SOPE  C21518300   5.090   6.625   9.303 -0.0434  0.4228 -0.6653
  163SOPE  H15R18301   5.054   6.711   9.243  0.0314 -0.6051 -2.2296
  163SOPE  H15S18302   5.000   6.563   9.319 -1.4019  2.5774  0.4197
  163SOPE  C21618303   5.182   6.529   9.224  0.6598 -0.3201 -0.0922
  163SOPE  H16R18304   5.232   6.458   9.293 -0.7489 -0.9668  0.2967
  163SOPE  H16S18305   5.261   6.580   9.165  0.4942  0.4089  0.2996
  163SOPE  C21718306   5.104   6.441   9.119 -0.1605  0.3238  0.0243
  163SOPE  H17R18307   5.043   6.508   9.055  1.7914  0.9033 -1.3219
  163SOPE  H17S18308   5.048   6.370   9.183  2.0729  0.6750  2.5417
  163SOPE  C21818309   5.195   6.353   9.027 -0.0238 -0.2836  0.7844
  163SOPE  H18R18310   5.223   6.419   8.942  1.2783 -2.5074 -0.6258
  163SOPE  H18S18311   5.151   6.264   8.978 -0.3609  0.0844  0.4106
  163SOPE  H18T18312   5.283   6.322   9.087  0.3869 -0.3460  0.1633
  163SOPE   C3318313   5.863   6.870   9.984 -0.1828  0.1984 -0.9038
  163SOPE   H3X18314   5.916   6.781  10.024  1.2197  1.5625  0.3851
  163SOPE   H3Y18315   5.944   6.937   9.950  0.4141  0.4881  0.9884
  163SOPE   C3418316   5.772   6.826   9.875 -0.0645  0.7521  0.3493
  163SOPE   H4X18317   5.842   6.793   9.795  0.3451  0.0497  0.9895
  163SOPE   H4Y18318   5.709   6.908   9.832  0.5673  0.9822 -0.1564
  163SOPE   C3518319   5.672   6.714   9.920  0.4033 -0.0323  0.3210
  163SOPE   H5X18320   5.603   6.765   9.992 -0.7876 -1.6703  0.3920
  163SOPE   H5Y18321   5.722   6.630   9.972  0.3255  0.0325  0.5030
  163SOPE   C3618322   5.600   6.642   9.806  0.7392 -0.6047  0.1064
  163SOPE   H6X18323   5.534   6.714   9.753  1.5160 -0.4690 -0.6966
  163SOPE   H6Y18324   5.530   6.573   9.858  0.0594  0.9806  1.3722
  163SOPE   C3718325   5.693   6.571   9.709 -0.1053  0.5445 -0.1938
  163SOPE   H7X18326   5.751   6.489   9.756 -2.1482 -1.0197 -0.2625
  163SOPE   H7Y18327   5.760   6.640   9.655 -0.3482  1.8282  1.0885
  163SOPE   C3818328   5.609   6.489   9.608 -0.1655 -0.6523 -0.7996
  163SOPE   H8X18329   5.533   6.567   9.587 -0.0818  0.4451  2.3936
  163SOPE   H8Y18330   5.558   6.403   9.657  0.5407 -1.0779 -0.7930
  163SOPE   C3918331   5.667   6.445   9.472  0.3864 -0.2760 -0.3487
  163SOPE   H9X18332   5.750   6.373   9.490  0.1076 -0.0082  2.3657
  163SOPE   H9Y18333   5.713   6.532   9.420 -0.9732 -0.4143 -1.8691
  163SOPE  C31018334   5.558   6.378   9.391 -0.6325  0.4234  0.5029
  163SOPE  H10X18335   5.458   6.411   9.426  0.2447  0.8691  2.7386
  163SOPE  H10Y18336   5.568   6.268   9.406 -1.7241  0.0093 -1.4441
  163SOPE  C31118337   5.581   6.415   9.242  0.2063  0.2443 -0.5015
  163SOPE  H11X18338   5.572   6.523   9.218  1.9241  1.0566  2.0789
  163SOPE  H11Y18339   5.506   6.354   9.187 -0.8407  0.8122  0.2665
  163SOPE  C31218340   5.708   6.349   9.192  0.4523 -0.1581  0.2917
  163SOPE  H12X18341   5.718   6.247   9.234 -2.8011 -0.4758  0.4780
  163SOPE  H12Y18342   5.791   6.419   9.215 -1.4313  2.7225 -1.0692
  163SOPE  C31318343   5.718   6.331   9.039  0.9063  0.0522  0.2368
  163SOPE  H13X18344   5.650   6.248   9.010  1.3151 -0.1920 -0.0092
  163SOPE  H13Y18345   5.826   6.308   9.031  0.4614 -2.8373  1.3865
  163SOPE  C31418346   5.674   6.454   8.957  0.1379 -0.2471 -0.4938
  163SOPE  H14X18347   5.572   6.484   8.989 -0.9521 -1.1852 -2.8208
  163SOPE  H14Y18348   5.666   6.430   8.848 -1.4804 -1.2649 -0.2054
  163SOPE  C31518349   5.763   6.575   8.986 -0.5567  0.9376  0.1427
  163SOPE  H15X18350   5.868   6.543   8.972 -0.6095  1.1118 -0.6883
  163SOPE  H15Y18351   5.757   6.617   9.088 -1.1192 -2.8606  1.8524
  163SOPE  C31618352   5.738   6.695   8.887 -0.1412  0.2249  0.5265
  163SOPE  H16X18353   5.757   6.664   8.782  1.4624  0.8274  0.6081
  163SOPE  H16Y18354   5.815   6.772   8.909  1.5806 -0.7157 -1.8131
  163SOPE  C31718355   5.602   6.761   8.913  1.1136 -0.4014  0.2774
  163SOPE  H17X18356   5.527   6.681   8.896  2.1917 -1.6886  1.3703
  163SOPE  H17Y18357   5.589   6.843   8.839 -0.2752 -1.0176 -0.1843
  163SOPE  C31818358   5.565   6.820   9.058 -0.7028 -0.9262 -0.1687
  163SOPE  H18X18359   5.462   6.864   9.056 -0.5487 -0.5754 -0.4732
  163SOPE  H18Y18360   5.637   6.901   9.080  1.3717 -2.0679 -2.3154
  163SOPE  H18Z18361   5.566   6.751   9.145  0.6535  0.3490  0.8783
  164SOPE     N18362   5.676   1.106  10.685 -0.3810  0.1240  0.3333
  164SOPE   HN118363   5.767   1.109  10.636 -1.2206  0.7812 -1.2740
  164SOPE   HN218364   5.694   1.081  10.784 -1.1273 -0.0733  0.4285
  164SOPE   HN318365   5.634   1.022  10.639  2.1633  0.1223 -2.2101
  164SOPE   C1218366   5.590   1.229  10.659  0.0550 -0.0268 -0.1889
  164SOPE  H12A18367   5.487   1.209  10.693  0.7647 -0.4883  1.8521
  164SOPE  H12B18368   5.589   1.244  10.548 -0.0761 -0.3114 -0.2262
  164SOPE   C1118369   5.652   1.358  10.721  0.4984 -0.3825 -0.7823
  164SOPE  H11A18370   5.687   1.333  10.823  0.1272  0.9908 -0.2986
  164SOPE  H11B18371   5.577   1.439  10.736 -0.0129 -0.9962  0.0898
  164SOPE     P18372   5.760   1.501  10.537  0.0917  0.2264 -0.0757
  164SOPE   O1318373   5.763   1.642  10.586 -0.0145  0.0562 -0.0393
  164SOPE   O1418374   5.644   1.468  10.451 -0.0795 -0.0279 -0.6723
  164SOPE   O1218375   5.775   1.402  10.658  0.7450 -1.3459 -0.2376
  164SOPE   O1118376   5.886   1.462  10.450 -0.0416 -0.3969 -0.2028
  164SOPE    C118377   6.009   1.542  10.481 -0.3403  0.3468 -0.3340
  164SOPE    HA18378   6.047   1.530  10.585 -4.6743 -0.4037  1.3716
  164SOPE    HB18379   5.992   1.649  10.458 -0.1030  0.6387  0.8095
  164SOPE    C218380   6.120   1.496  10.386 -0.0108  0.8425  0.6821
  164SOPE    HS18381   6.205   1.567  10.396  0.5251  0.3924 -0.5237
  164SOPE   O2118382   6.058   1.492  10.253 -0.4037 -0.1169 -0.1679
  164SOPE   C2118383   6.074   1.584  10.166 -0.0667 -0.3291 -0.4083
  164SOPE   O2218384   6.154   1.678  10.169  0.7014 -0.1407  0.3024
  164SOPE   C2218385   5.998   1.546  10.043 -0.0810 -0.3924  0.0389
  164SOPE   H2R18386   5.888   1.533  10.056 -0.7594  2.6867 -1.6107
  164SOPE   H2S18387   6.023   1.443  10.008 -2.7938 -0.6613 -1.4817
  164SOPE    C318388   6.166   1.351  10.415 -0.4458  0.6487 -0.1848
  164SOPE    HX18389   6.073   1.293  10.431 -0.1805 -0.1268 -1.3504
  164SOPE    HY18390   6.227   1.348  10.508  3.2419  1.2234 -2.3709
  164SOPE   O3118391   6.251   1.297  10.308 -0.3450  0.2182  0.2688
  164SOPE   C3118392   6.379   1.334  10.311  0.2399  0.2239  0.3636
  164SOPE   O3218393   6.439   1.388  10.404  0.0732 -0.4601 -0.0367
  164SOPE   C3218394   6.439   1.321  10.175  0.4887  0.0797  0.2934
  164SOPE   H2X18395   6.500   1.228  10.167 -0.1387 -0.2880 -0.4229
  164SOPE   H2Y18396   6.525   1.390  10.183  0.3651  0.8993 -3.3863
  164SOPE   C2318397   6.013   1.648   9.928 -0.1808 -0.5552 -0.2102
  164SOPE   H3R18398   6.119   1.656   9.895  0.0783 -0.4604  0.6139
  164SOPE   H3S18399   5.994   1.752   9.961  0.2129 -0.5830  0.1217
  164SOPE   C2418400   5.921   1.615   9.805 -0.0508 -0.4315  0.8178
  164SOPE   H4R18401   5.953   1.516   9.766 -1.3465 -0.3135 -0.6019
  164SOPE   H4S18402   5.814   1.595   9.822  0.3396 -1.8947  1.7370
  164SOPE   C2518403   5.937   1.729   9.704  0.6081  0.3873  0.3121
  164SOPE   H5R18404   5.866   1.807   9.738  0.3421 -0.2229  1.1709
  164SOPE   H5S18405   6.039   1.772   9.710  0.9590 -0.5590  1.4643
  164SOPE   C2618406   5.898   1.678   9.559  0.2715  0.3775  0.0633
  164SOPE   H6R18407   5.973   1.598   9.541 -0.1340 -1.1155  3.9558
  164SOPE   H6S18408   5.798   1.630   9.565  0.2755  0.3213 -0.3185
  164SOPE   C2718409   5.900   1.791   9.453 -0.0417 -0.6449 -0.5117
  164SOPE   H7R18410   5.812   1.857   9.467 -0.4392 -0.6170 -2.7760
  164SOPE   H7S18411   6.002   1.835   9.449 -0.8180  1.3395 -0.0027
  164SOPE   C2818412   5.876   1.742   9.305 -0.1677  0.1849  0.0496
  164SOPE   H8R18413   5.774   1.699   9.304  0.3167 -1.0001 -0.9049
  164SOPE   H8S18414   5.882   1.840   9.253 -2.3299  0.5850  0.4612
  164SOPE   C2918415   5.969   1.634   9.253  0.1101  0.2239 -0.0615
  164SOPE   H9118416   5.979   1.544   9.315  1.1671  1.4332  1.6018
  164SOPE  C21018417   6.044   1.630   9.140 -0.1678 -0.1507  0.4804
  164SOPE  H10118418   6.094   1.535   9.120 -1.1735 -0.6569  0.3163
  164SOPE  C21118419   6.044   1.732   9.034  0.2085  0.4932 -0.6236
  164SOPE  H11R18420   6.127   1.701   8.967  0.7133 -1.7859  0.9328
  164SOPE  H11S18421   6.080   1.825   9.082 -0.0305  1.1451 -1.6835
  164SOPE  C21218422   5.912   1.759   8.958 -0.0469 -0.2689 -0.0720
  164SOPE  H12R18423   5.934   1.859   8.914  1.0976 -0.3598  0.2456
  164SOPE  H12S18424   5.820   1.771   9.019  0.3313  1.2638  0.2306
  164SOPE  C21318425   5.886   1.673   8.837  0.8566 -0.4620  0.8024
  164SOPE  H13R18426   5.865   1.569   8.871 -0.2384 -0.4120  0.2976
  164SOPE  H13S18427   5.971   1.678   8.765  0.1920  0.6094  0.0592
  164SOPE  C21418428   5.759   1.711   8.766 -0.7368 -0.0707 -0.5891
  164SOPE  H14R18429   5.773   1.821   8.765  2.2316 -0.2799  2.2170
  164SOPE  H14S18430   5.669   1.692   8.828  0.1290  1.1199  1.0884
  164SOPE  C21518431   5.743   1.660   8.627  0.0505  1.2181  0.0925
  164SOPE  H15R18432   5.840   1.613   8.602  0.4511  0.6579  2.4781
  164SOPE  H15S18433   5.712   1.732   8.548  1.4438  1.1607 -0.5440
  164SOPE  C21618434   5.644   1.540   8.619  0.1954  0.3106  0.2858
  164SOPE  H16R18435   5.543   1.579   8.647 -0.3090 -1.1057  0.5087
  164SOPE  H16S18436   5.672   1.471   8.701 -0.1293 -1.8419 -1.3241
  164SOPE  C21718437   5.638   1.472   8.482  0.4905  0.3834  1.1885
  164SOPE  H17R18438   5.678   1.550   8.413  0.4605  0.3175  1.0947
  164SOPE  H17S18439   5.539   1.429   8.456 -0.0468  1.7796  0.8684
  164SOPE  C21818440   5.733   1.354   8.479 -0.3521 -0.1047  0.2226
  164SOPE  H18R18441   5.709   1.282   8.560  2.9289 -0.6745  0.8111
  164SOPE  H18S18442   5.840   1.377   8.499 -0.4901 -0.8714  1.9465
  164SOPE  H18T18443   5.720   1.311   8.377 -2.7944 -1.0789  0.8831
  164SOPE   C3318444   6.359   1.343  10.043  0.4171 -0.2642  0.2848
  164SOPE   H3X18445   6.336   1.452  10.032  0.7456 -0.2822 -0.6913
  164SOPE   H3Y18446   6.265   1.284  10.041  1.4628 -2.0408  1.4271
  164SOPE   C3418447   6.436   1.302   9.915 -0.0611  0.1363 -0.4458
  164SOPE   H4X18448   6.437   1.190   9.916  1.9735  0.1224 -0.2376
  164SOPE   H4Y18449   6.539   1.342   9.924 -0.7593  1.9744 -0.2768
  164SOPE   C3518450   6.378   1.351   9.780  0.3813  0.2686  0.2271
  164SOPE   H5X18451   6.439   1.312   9.696 -0.8662  0.7132 -0.8982
  164SOPE   H5Y18452   6.377   1.462   9.773 -4.9014  0.4170 -0.6231
  164SOPE   C3618453   6.232   1.304   9.751 -0.0088  0.3935 -0.2113
  164SOPE   H6X18454   6.164   1.332   9.835 -0.8723 -1.3104 -0.2897
  164SOPE   H6Y18455   6.223   1.194   9.740 -0.6344  0.5565 -1.4646
  164SOPE   C3718456   6.187   1.369   9.626 -0.1995 -0.2157  0.2115
  164SOPE   H7X18457   6.209   1.477   9.633 -2.3243  0.1887  1.9418
  164SOPE   H7Y18458   6.076   1.364   9.617 -0.0711 -0.5816 -1.3830
  164SOPE   C3818459   6.267   1.332   9.497 -0.2427 -0.5955  0.0410
  164SOPE   H8X18460   6.308   1.230   9.512  0.7958 -0.3663 -1.0308
  164SOPE   H8Y18461   6.346   1.407   9.473 -1.4878  0.4572 -0.8807
  164SOPE   C3918462   6.183   1.313   9.369 -0.3851 -0.7872 -0.5298
  164SOPE   H9X18463   6.134   1.404   9.331  2.3282  1.3537  0.7386
  164SOPE   H9Y18464   6.104   1.237   9.387  0.9315 -1.6315  2.4373
  164SOPE  C31018465   6.271   1.272   9.246 -0.3601  0.6675  0.5810
  164SOPE  H10X18466   6.192   1.256   9.169 -0.0476  0.0012  0.3943
  164SOPE  H10Y18467   6.313   1.172   9.269 -0.0860  0.0619 -2.2308
  164SOPE  C31118468   6.375   1.376   9.207  0.0937 -0.4132  0.5084
  164SOPE  H11X18469   6.454   1.370   9.285  0.7848 -2.7653 -0.2940
  164SOPE  H11Y18470   6.328   1.476   9.221  2.9656  1.1642 -0.2627
  164SOPE  C31218471   6.435   1.362   9.065  0.0371  0.0401  0.0391
  164SOPE  H12X18472   6.505   1.277   9.053 -0.5211 -0.4746  0.3863
  164SOPE  H12Y18473   6.493   1.452   9.034 -2.9577  1.6751 -1.2947
  164SOPE  C31318474   6.334   1.367   8.952  0.4092  0.5653  0.6366
  164SOPE  H13X18475   6.285   1.465   8.936 -3.4869 -1.7210 -4.2820
  164SOPE  H13Y18476   6.247   1.300   8.969  1.3880 -0.7226  0.7286
  164SOPE  C31418477   6.398   1.331   8.815 -0.2517  0.3597 -0.9505
  164SOPE  H14X18478   6.479   1.405   8.802  1.8496 -1.7777 -0.7657
  164SOPE  H14Y18479   6.325   1.333   8.731 -1.2494 -0.6020 -0.1433
  164SOPE  C31518480   6.461   1.188   8.815 -0.5032 -0.3298 -0.8700
  164SOPE  H15X18481   6.382   1.121   8.853 -2.3507  0.7112 -2.6878
  164SOPE  H15Y18482   6.552   1.196   8.880 -1.4696  0.2984  0.4666
  164SOPE  C31618483   6.510   1.143   8.676 -0.0344  0.5712  0.8065
  164SOPE  H16X18484   6.414   1.118   8.625 -0.4305  2.5848  0.4504
  164SOPE  H16Y18485   6.571   1.052   8.691 -0.5338  0.5017  2.6298
  164SOPE  C31718486   6.597   1.247   8.604  0.1858 -0.0635  0.2414
  164SOPE  H17X18487   6.679   1.271   8.675  0.5145 -3.3177  1.1538
  164SOPE  H17Y18488   6.543   1.338   8.571 -0.1448 -0.6211 -0.7805
  164SOPE  C31818489   6.662   1.192   8.477 -0.5621  0.2657  0.0110
  164SOPE  H18X18490   6.729   1.266   8.429 -1.2251  0.1022 -1.2102
  164SOPE  H18Y18491   6.586   1.155   8.404 -2.3874 -1.8572  2.7729
  164SOPE  H18Z18492   6.732   1.110   8.501  0.8673  1.1395 -1.0158
  165SOPE     N18493   5.180   5.963  10.806 -0.0072 -0.3000 -0.1731
  165SOPE   HN118494   5.094   5.911  10.779  0.0267 -0.5341  0.1659
  165SOPE   HN218495   5.196   6.041  10.740 -2.4827 -0.6631 -1.3338
  165SOPE   HN318496   5.269   5.909  10.805  0.5502  0.5787  0.9850
  165SOPE   C1218497   5.139   6.009  10.943 -0.4724  0.0043 -0.0071
  165SOPE  H12A18498   5.226   6.065  10.985 -0.2539 -0.6771  0.4574
  165SOPE  H12B18499   5.132   5.918  11.006  1.8988 -1.1919 -1.3514
  165SOPE   C1118500   5.023   6.103  10.922  0.0430  0.4027  0.3169
  165SOPE  H11A18501   4.964   6.116  11.016  0.8639  1.4437  0.7102
  165SOPE  H11B18502   4.948   6.060  10.852  0.3505  0.4365 -0.0338
  165SOPE     P18503   5.119   6.340  10.951  0.0555 -0.0520 -0.4554
  165SOPE   O1318504   5.244   6.291  11.017 -0.7584 -0.0711  0.3616
  165SOPE   O1418505   5.017   6.384  11.050  0.8498 -0.2505 -0.0494
  165SOPE   O1218506   5.066   6.223  10.857 -0.4090  0.0900 -0.2862
  165SOPE   O1118507   5.154   6.455  10.851 -0.0093 -0.6476 -0.2921
  165SOPE    C118508   5.132   6.437  10.711 -0.2658  0.1952  0.7598
  165SOPE    HA18509   5.025   6.456  10.687 -0.1063  1.2245  0.8206
  165SOPE    HB18510   5.165   6.338  10.675 -1.3790 -0.3735  1.2568
  165SOPE    C218511   5.205   6.537  10.620  0.1311 -0.0928 -0.3693
  165SOPE    HS18512   5.310   6.513  10.645 -0.2753 -2.1837 -0.5129
  165SOPE   O2118513   5.176   6.674  10.659 -0.4626  0.3011 -0.1668
  165SOPE   C2118514   5.261   6.729  10.743 -0.3208  0.3032  0.5223
  165SOPE   O2218515   5.366   6.681  10.788  0.0166 -0.1089 -1.0690
  165SOPE   C2218516   5.206   6.855  10.802 -0.1064  0.2599 -0.4137
  165SOPE   H2R18517   5.260   6.874  10.898 -0.3975 -0.5094 -0.0939
  165SOPE   H2S18518   5.100   6.835  10.827  0.0465  0.7322  0.6694
  165SOPE    C318519   5.183   6.526  10.468 -0.3490 -0.1252 -1.1009
  165SOPE    HX18520   5.222   6.427  10.437 -1.6233 -0.2926 -2.2228
  165SOPE    HY18521   5.252   6.601  10.424  0.4490 -0.6295 -0.7337
  165SOPE   O3118522   5.050   6.563  10.424  0.2975  0.7772  0.5417
  165SOPE   C3118523   4.977   6.455  10.402  0.6523  0.1310 -0.2318
  165SOPE   O3218524   5.000   6.342  10.441 -0.3509  0.2211 -0.5899
  165SOPE   C3218525   4.850   6.518  10.346  0.3192  0.2967 -0.2545
  165SOPE   H2X18526   4.881   6.577  10.257 -0.0935  1.8163  0.5718
  165SOPE   H2Y18527   4.824   6.596  10.420  0.5901  1.9140 -1.8036
  165SOPE   C2318528   5.189   6.969  10.710 -0.7338 -0.8788  0.3693
  165SOPE   H3R18529   5.118   7.036  10.762 -1.2682 -0.3841 -0.9639
  165SOPE   H3S18530   5.133   6.941  10.618  0.7819 -0.5567 -0.6900
  165SOPE   C2418531   5.319   7.049  10.674  0.4389 -0.2172 -0.1233
  165SOPE   H4R18532   5.289   7.145  10.626  0.6871  1.0914  2.1770
  165SOPE   H4S18533   5.364   7.067  10.774  1.3557 -2.1997 -0.1303
  165SOPE   C2518534   5.411   6.970  10.573  0.3855 -0.0292 -0.3555
  165SOPE   H5R18535   5.507   7.026  10.561  0.9028 -0.2411  2.1226
  165SOPE   H5S18536   5.444   6.873  10.617 -3.0298 -1.3081 -0.3658
  165SOPE   C2618537   5.345   6.950  10.437 -0.9757  0.2903 -0.8951
  165SOPE   H6R18538   5.266   6.871  10.440 -1.8721  1.1403 -1.4630
  165SOPE   H6S18539   5.288   7.044  10.426 -1.8125 -0.3455 -2.1487
  165SOPE   C2718540   5.448   6.932  10.324 -0.0653  1.2832  0.1505
  165SOPE   H7R18541   5.504   7.024  10.293 -0.9396  2.0652  0.8398
  165SOPE   H7S18542   5.523   6.859  10.359 -1.1017 -0.5732 -1.3372
  165SOPE   C2818543   5.375   6.872  10.204  0.1457  0.7140  0.0040
  165SOPE   H8R18544   5.451   6.836  10.132 -0.7241  0.4775 -0.8065
  165SOPE   H8S18545   5.334   6.777  10.244  0.8861  0.9463  1.3821
  165SOPE   C2918546   5.262   6.953  10.140  0.2809  0.4554 -0.3299
  165SOPE   H9118547   5.185   6.984  10.213 -0.1391 -1.5089  0.1229
  165SOPE  C21018548   5.239   6.975  10.011 -0.2621  0.1784  0.7197
  165SOPE  H10118549   5.161   7.042   9.973 -1.7704 -3.1806 -2.7731
  165SOPE  C21118550   5.331   6.929   9.894 -0.0364  0.0640  0.1053
  165SOPE  H11R18551   5.304   6.825   9.870 -0.0474 -0.0198  0.4681
  165SOPE  H11S18552   5.436   6.943   9.928 -0.2533  0.4288  0.6576
  165SOPE  C21218553   5.317   7.022   9.769 -0.7957 -0.5572  0.4407
  165SOPE  H12R18554   5.407   7.015   9.704 -1.5726  0.8858 -0.8460
  165SOPE  H12S18555   5.325   7.129   9.802  1.6402 -0.0342 -1.5644
  165SOPE  C21318556   5.188   7.018   9.688 -0.3125 -0.7880  0.1960
  165SOPE  H13R18557   5.098   7.049   9.744 -1.1597 -1.5504 -0.7133
  165SOPE  H13S18558   5.171   6.917   9.644 -1.0137  0.1173 -1.7132
  165SOPE  C21418559   5.202   7.122   9.577  0.2029 -0.1018 -0.8039
  165SOPE  H14R18560   5.249   7.214   9.618 -0.4810 -0.6048  1.2195
  165SOPE  H14S18561   5.097   7.151   9.554  0.2748  0.4653 -0.4367
  165SOPE  C21518562   5.267   7.076   9.451 -0.3808  1.0421 -0.0047
  165SOPE  H15R18563   5.263   6.966   9.437  1.4707  1.2546 -3.3842
  165SOPE  H15S18564   5.375   7.099   9.459 -0.4844  1.2080  0.9649
  165SOPE  C21618565   5.189   7.133   9.334 -0.2461  0.3603  0.1154
  165SOPE  H16R18566   5.251   7.122   9.242  1.9317 -1.7285  1.7020
  165SOPE  H16S18567   5.188   7.243   9.354 -1.0736  0.6888 -1.5283
  165SOPE  C21718568   5.054   7.073   9.311  0.7410  0.0361 -0.1098
  165SOPE  H17R18569   4.992   7.101   9.398  1.0177  1.3478 -0.3224
  165SOPE  H17S18570   5.048   6.962   9.309 -2.5162  0.1400 -0.1836
  165SOPE  C21818571   4.990   7.128   9.180  0.0689  0.3276  0.1292
  165SOPE  H18R18572   4.884   7.097   9.173  0.3360 -0.3166 -1.4992
  165SOPE  H18S18573   5.050   7.101   9.090  0.4479 -0.7899  0.6978
  165SOPE  H18T18574   4.981   7.238   9.171 -0.5972  0.0905 -4.1564
  165SOPE   C3318575   4.729   6.432  10.316 -0.8153 -0.0530 -0.7432
  165SOPE   H3X18576   4.649   6.501  10.283  1.5143  2.1916 -2.0361
  165SOPE   H3Y18577   4.696   6.382  10.410  0.1441  2.4984  1.0684
  165SOPE   C3418578   4.752   6.330  10.200  0.2236 -0.0636 -0.3737
  165SOPE   H4X18579   4.656   6.274  10.191  0.7806 -1.2311  0.7002
  165SOPE   H4Y18580   4.839   6.262  10.211  0.6390  0.3378 -1.1330
  165SOPE   C3518581   4.786   6.415  10.075 -0.3683  0.6797 -0.2281
  165SOPE   H5X18582   4.895   6.434  10.065  0.0328 -1.4097 -0.2519
  165SOPE   H5Y18583   4.731   6.512  10.081  1.0430  1.6867 -2.2749
  165SOPE   C3618584   4.754   6.347   9.938  0.2397 -0.4611  0.3223
  165SOPE   H6X18585   4.669   6.278   9.958  1.1684 -1.5385  0.6285
  165SOPE   H6Y18586   4.835   6.277   9.908  1.7416  1.4744 -0.3603
  165SOPE   C3718587   4.705   6.436   9.826 -0.5409 -0.6764 -0.3118
  165SOPE   H7X18588   4.786   6.505   9.795 -0.7607 -0.3425 -0.1475
  165SOPE   H7Y18589   4.636   6.507   9.876 -0.3317  0.9653 -2.2455
  165SOPE   C3818590   4.623   6.372   9.710 -0.2216  0.0499 -0.6545
  165SOPE   H8X18591   4.600   6.451   9.636  0.5723  1.0967  0.1900
  165SOPE   H8Y18592   4.527   6.338   9.754  1.1272 -1.4370  1.3964
  165SOPE   C3918593   4.691   6.244   9.642 -0.5563  0.8913  0.6777
  165SOPE   H9X18594   4.611   6.182   9.598 -0.0218  0.3486  0.4570
  165SOPE   H9Y18595   4.750   6.192   9.721  1.4660 -0.5389 -1.6275
  165SOPE  C31018596   4.785   6.288   9.529  0.2781  0.1278  0.2130
  165SOPE  H10X18597   4.882   6.234   9.540 -0.1069 -0.5084  0.5238
  165SOPE  H10Y18598   4.806   6.397   9.531  0.8176  0.1125 -2.0023
  165SOPE  C31118599   4.737   6.257   9.384  0.8069  0.2370  0.1253
  165SOPE  H11X18600   4.747   6.146   9.383 -0.2221  0.1315 -0.8407
  165SOPE  H11Y18601   4.807   6.303   9.312  2.1405 -0.4797  0.9125
  165SOPE  C31218602   4.602   6.316   9.342  0.0163  0.1274  0.0081
  165SOPE  H12X18603   4.610   6.426   9.328 -0.9367 -0.0708 -2.4024
  165SOPE  H12Y18604   4.529   6.301   9.425  0.0997 -1.0995 -0.1193
  165SOPE  C31318605   4.539   6.257   9.220 -1.1374 -0.0526  0.2239
  165SOPE  H13X18606   4.429   6.259   9.240 -1.3157  0.5837 -0.7600
  165SOPE  H13Y18607   4.565   6.149   9.223  1.4216  0.4433 -1.4233
  165SOPE  C31418608   4.582   6.318   9.085  0.3972  0.7937 -0.7489
  165SOPE  H14X18609   4.552   6.425   9.082 -0.3959  0.6098  0.1707
  165SOPE  H14Y18610   4.526   6.269   9.001 -2.0384 -2.1174  2.2964
  165SOPE  C31518611   4.728   6.315   9.049 -0.2248  0.2192 -0.2010
  165SOPE  H15X18612   4.763   6.210   9.054 -1.0225 -0.0310  0.3356
  165SOPE  H15Y18613   4.774   6.367   9.137 -0.0802 -3.8703  2.4152
  165SOPE  C31618614   4.770   6.376   8.914 -0.2349 -0.1229 -0.7477
  165SOPE  H16X18615   4.880   6.385   8.914 -0.1476 -0.8240  0.4983
  165SOPE  H16Y18616   4.743   6.483   8.918  1.2257  0.2155  0.9155
  165SOPE  C31718617   4.729   6.301   8.793 -0.2597 -0.3055  0.1681
  165SOPE  H17X18618   4.621   6.316   8.772  0.2371  1.5066 -1.3901
  165SOPE  H17Y18619   4.751   6.195   8.818 -0.7000 -0.4216  0.0734
  165SOPE  C31818620   4.818   6.346   8.670 -0.3195 -0.1764 -0.4784
  165SOPE  H18X18621   4.778   6.441   8.628 -0.1072 -0.7137 -1.9556
  165SOPE  H18Y18622   4.819   6.277   8.583  0.5365 -0.2104 -0.4535
  165SOPE  H18Z18623   4.924   6.355   8.701 -0.0417 -0.8276 -1.2068
  166SOPE     N18624   4.490   5.910  10.824  0.1862 -0.1180  0.2977
  166SOPE   HN118625   4.392   5.939  10.843  0.3969 -0.4307  2.0395
  166SOPE   HN218626   4.560   5.950  10.890 -0.2110  0.6950  0.2250
  166SOPE   HN318627   4.533   5.938  10.733  4.7303 -1.0208  1.8727
  166SOPE   C1218628   4.496   5.755  10.816  0.0252  0.0188 -0.1332
  166SOPE  H12A18629   4.474   5.733  10.709 -2.5188 -3.8015  0.9871
  166SOPE  H12B18630   4.416   5.706  10.874  3.6223 -3.6078  2.3152
  166SOPE   C1118631   4.630   5.704  10.861 -0.3298  0.3906 -0.4342
  166SOPE  H11A18632   4.647   5.601  10.822  0.5217  0.9822 -1.6833
  166SOPE  H11B18633   4.641   5.723  10.970  0.1908  0.6180 -0.5237
  166SOPE     P18634   4.886   5.714  10.784  0.0125 -0.1453  0.1535
  166SOPE   O1318635   4.922   5.665  10.915 -0.6548 -0.1807 -0.2116
  166SOPE   O1418636   4.969   5.822  10.731 -0.2784  0.0015 -0.2058
  166SOPE   O1218637   4.734   5.773  10.789 -0.5618 -0.2494 -0.2437
  166SOPE   O1118638   4.874   5.592  10.687 -0.0728  0.5983 -0.1573
  166SOPE    C118639   4.880   5.452  10.724 -0.6382 -0.2050 -0.0373
  166SOPE    HA18640   4.835   5.436  10.824  0.3205  2.3506  0.8856
  166SOPE    HB18641   4.985   5.417  10.719 -0.7766 -0.4570 -2.5002
  166SOPE    C218642   4.782   5.374  10.624 -0.0872  0.3923 -0.5150
  166SOPE    HS18643   4.756   5.274  10.665 -0.2030  0.4092 -0.5461
  166SOPE   O2118644   4.850   5.355  10.494  0.0154 -0.0677 -0.4962
  166SOPE   C2118645   4.949   5.278  10.490  0.5708  0.3193  0.5942
  166SOPE   O2218646   4.991   5.210  10.586  0.0768 -0.5989  0.4626
  166SOPE   C2218647   5.001   5.286  10.349  0.1619  0.3928 -0.3151
  166SOPE   H2R18648   4.916   5.253  10.286  0.2866 -0.8237  0.1160
  166SOPE   H2S18649   5.078   5.208  10.329 -0.7768 -0.2096 -1.7219
  166SOPE    C318650   4.647   5.445  10.597  0.0172  0.0128 -0.4112
  166SOPE    HX18651   4.669   5.551  10.570 -1.1490  0.7487  1.3267
  166SOPE    HY18652   4.580   5.456  10.685  0.9603  0.0290  0.3147
  166SOPE   O3118653   4.581   5.372  10.493 -0.6237  0.0474 -0.0816
  166SOPE   C3118654   4.489   5.435  10.427  0.0286  0.0255 -0.6612
  166SOPE   O3218655   4.433   5.540  10.470 -0.3063  0.3967 -0.5593
  166SOPE   C3218656   4.462   5.381  10.289  0.1956 -0.3072  0.3212
  166SOPE   H2X18657   4.451   5.271  10.295  0.1095 -0.2261  1.8989
  166SOPE   H2Y18658   4.556   5.404  10.234 -0.5343  0.4829 -0.6328
  166SOPE   C2318659   5.060   5.427  10.303 -0.2741  0.2970 -0.2211
  166SOPE   H3R18660   5.167   5.426  10.335 -0.1715  1.9376 -0.4482
  166SOPE   H3S18661   5.005   5.509  10.352 -1.5102 -1.2061  1.0208
  166SOPE   C2418662   5.046   5.450  10.152  0.3581  0.8727  0.4476
  166SOPE   H4R18663   5.031   5.355  10.095 -2.5806  2.3724 -1.5601
  166SOPE   H4S18664   4.949   5.501  10.134 -0.6966 -0.7141  1.3869
  166SOPE   C2518665   5.156   5.527  10.079  0.2209  0.2824 -0.3448
  166SOPE   H5R18666   5.152   5.625  10.132 -1.0502  0.0296  0.0791
  166SOPE   H5S18667   5.252   5.478  10.103  0.2560  0.6435  0.2935
  166SOPE   C2618668   5.134   5.544   9.928  1.1112  0.0303 -0.3132
  166SOPE   H6R18669   5.033   5.588   9.915  1.6471  0.8067 -2.3100
  166SOPE   H6S18670   5.214   5.608   9.884 -1.7586  2.0712 -3.0505
  166SOPE   C2718671   5.141   5.419   9.843  0.0269  0.2741  0.0873
  166SOPE   H7R18672   5.238   5.368   9.859  0.4994  0.7514 -1.1295
  166SOPE   H7S18673   5.061   5.345   9.868  0.4427 -0.6650 -1.2519
  166SOPE   C2818674   5.111   5.444   9.696 -0.0366 -0.2615 -0.0421
  166SOPE   H8R18675   5.002   5.459   9.686 -0.0655 -0.6092 -0.2736
  166SOPE   H8S18676   5.173   5.531   9.664 -0.9827 -0.0118 -1.2517
  166SOPE   C2918677   5.157   5.314   9.621 -0.9028 -0.3393 -0.0197
  166SOPE   H9118678   5.136   5.219   9.672  1.4370 -1.3466 -0.8201
  166SOPE  C21018679   5.233   5.316   9.507 -0.3456  0.0039  0.2058
  166SOPE  H10118680   5.265   5.223   9.457 -0.5007  0.5736 -0.9854
  166SOPE  C21118681   5.277   5.441   9.433  0.2927 -0.7303  0.1879
  166SOPE  H11R18682   5.383   5.442   9.399  0.6646  1.3729  1.2043
  166SOPE  H11S18683   5.290   5.529   9.499  2.7340 -1.9138  1.4479
  166SOPE  C21218684   5.188   5.484   9.311 -0.3890  0.2329  0.3181
  166SOPE  H12R18685   5.219   5.583   9.272 -1.0423  0.2777 -0.0985
  166SOPE  H12S18686   5.082   5.490   9.342 -0.5073  2.4618 -0.3830
  166SOPE  C21318687   5.204   5.382   9.198  0.1374  0.1473 -0.4340
  166SOPE  H13R18688   5.156   5.287   9.231  0.6527  0.6264  1.8266
  166SOPE  H13S18689   5.306   5.345   9.175  0.6051  1.7175 -0.9933
  166SOPE  C21418690   5.150   5.424   9.064  0.0660  0.8926  0.0199
  166SOPE  H14R18691   5.192   5.522   9.033 -0.2378  1.0446  0.0844
  166SOPE  H14S18692   5.040   5.441   9.067 -0.2957 -0.7347 -1.9472
  166SOPE  C21518693   5.187   5.318   8.960 -0.1834  0.1755 -0.9639
  166SOPE  H15R18694   5.146   5.216   8.977  3.1690 -1.3208 -1.0625
  166SOPE  H15S18695   5.297   5.312   8.958 -0.2192 -0.4777 -1.2142
  166SOPE  C21618696   5.143   5.358   8.816  0.3126  0.1190 -0.8472
  166SOPE  H16R18697   5.034   5.377   8.826 -0.5525 -4.0179 -0.7453
  166SOPE  H16S18698   5.144   5.281   8.736  0.4404 -0.8093  0.0343
  166SOPE  C21718699   5.229   5.474   8.761  0.3170 -0.2243 -0.4808
  166SOPE  H17R18700   5.329   5.427   8.752 -0.0606 -1.6651  2.0592
  166SOPE  H17S18701   5.238   5.569   8.818  0.2778  0.2594 -1.2678
  166SOPE  C21818702   5.179   5.506   8.618 -0.4574 -0.4251 -0.7647
  166SOPE  H18R18703   5.220   5.423   8.558  1.2041 -1.9978  2.2907
  166SOPE  H18S18704   5.205   5.608   8.582 -0.0846  0.3918  1.6236
  166SOPE  H18T18705   5.070   5.489   8.630  0.0985 -2.4156  2.9912
  166SOPE   C3318706   4.339   5.442  10.222  1.0434 -0.0486  1.0281
  166SOPE   H3X18707   4.351   5.552  10.219 -0.2232  0.0998  0.2527
  166SOPE   H3Y18708   4.248   5.437  10.285 -0.5499  3.3150 -0.7509
  166SOPE   C3418709   4.335   5.398  10.077  0.3745  0.6435  0.3833
  166SOPE   H4X18710   4.350   5.288  10.069  1.9945  0.7838  1.0490
  166SOPE   H4Y18711   4.425   5.439  10.026  1.5443  0.1952  1.9954
  166SOPE   C3518712   4.200   5.455  10.022 -0.5590  0.0194 -0.0664
  166SOPE   H5X18713   4.199   5.566  10.027 -0.9118 -0.0020  0.3288
  166SOPE   H5Y18714   4.135   5.437  10.109  0.7108  1.6199  1.2794
  166SOPE   C3618715   4.158   5.385   9.892  0.4041  0.3270 -0.1064
  166SOPE   H6X18716   4.048   5.393   9.879  0.2895 -1.9294 -0.9625
  166SOPE   H6Y18717   4.185   5.279   9.913  3.2879  1.1572  0.9770
  166SOPE   C3718718   4.230   5.428   9.765  0.3026 -0.0939  0.1576
  166SOPE   H7X18719   4.339   5.407   9.771  0.7456  1.3613 -1.7088
  166SOPE   H7Y18720   4.210   5.537   9.753 -1.0473 -0.3993 -0.5152
  166SOPE   C3818721   4.175   5.367   9.641 -0.0162  0.4182  0.2860
  166SOPE   H8X18722   4.065   5.378   9.629  0.0655 -0.9108 -2.7669
  166SOPE   H8Y18723   4.195   5.258   9.635 -3.6174 -0.3083 -1.5049
  166SOPE   C3918724   4.237   5.429   9.520  0.5215 -0.0721 -0.0165
  166SOPE   H9X18725   4.344   5.403   9.508  0.7107  0.9529 -0.6750
  166SOPE   H9Y18726   4.231   5.535   9.553 -0.4506 -0.2422  0.3967
  166SOPE  C31018727   4.149   5.406   9.393  0.3191  0.0760 -0.4561
  166SOPE  H10X18728   4.046   5.429   9.429  1.4351  2.8045  1.3024
  166SOPE  H10Y18729   4.141   5.300   9.364 -2.6615  0.4363 -1.2570
  166SOPE  C31118730   4.189   5.500   9.280 -0.3058  0.8052 -0.4715
  166SOPE  H11X18731   4.297   5.480   9.271  0.1020  1.7673  1.7027
  166SOPE  H11Y18732   4.168   5.607   9.300 -0.5104  0.5323  0.8679
  166SOPE  C31218733   4.131   5.458   9.148  0.4978 -0.3584 -0.2029
  166SOPE  H12X18734   4.020   5.460   9.157  0.5584 -0.9920  0.8032
  166SOPE  H12Y18735   4.163   5.355   9.124 -0.2624 -0.6862  0.1516
  166SOPE  C31318736   4.184   5.547   9.034  0.3005 -0.4052 -1.5694
  166SOPE  H13X18737   4.293   5.562   9.052  0.2488 -0.0537 -1.5326
  166SOPE  H13Y18738   4.140   5.649   9.042  2.3564  0.4809 -0.8839
  166SOPE  C31418739   4.158   5.489   8.895  0.1602 -0.8745 -0.3715
  166SOPE  H14X18740   4.053   5.455   8.891 -0.7220  0.9807  3.1258
  166SOPE  H14Y18741   4.213   5.393   8.882 -0.1314 -1.2811  1.1999
  166SOPE  C31518742   4.187   5.594   8.788  0.8096  0.3430  0.1353
  166SOPE  H15X18743   4.277   5.649   8.821 -0.9100  2.3615  1.8072
  166SOPE  H15Y18744   4.105   5.668   8.803  0.8081 -0.1444  3.1219
  166SOPE  C31618745   4.189   5.539   8.646 -0.1705 -0.2552 -0.4541
  166SOPE  H16X18746   4.088   5.506   8.614 -0.3248  0.1181 -0.3579
  166SOPE  H16Y18747   4.249   5.446   8.654 -0.2923 -0.2508  0.7676
  166SOPE  C31718748   4.246   5.637   8.549 -0.0117 -0.3457  0.4529
  166SOPE  H17X18749   4.193   5.734   8.537 -1.0180 -0.5671  2.5895
  166SOPE  H17Y18750   4.243   5.595   8.446  0.7813 -1.9833  1.0610
  166SOPE  C31818751   4.396   5.679   8.559  0.0899  0.3747 -0.4161
  166SOPE  H18X18752   4.457   5.588   8.541 -0.6468 -0.0016 -1.0817
  166SOPE  H18Y18753   4.430   5.711   8.660 -1.0711 -0.2113  0.1722
  166SOPE  H18Z18754   4.414   5.763   8.489 -1.0535 -0.5205 -1.8229
  167SOPE     N18755   1.495   2.459   6.473 -0.0313  0.2982 -0.3517
  167SOPE   HN118756   1.452   2.420   6.560 -0.7760  2.8057  0.4832
  167SOPE   HN218757   1.434   2.536   6.442  0.2721  0.4287 -0.6224
  167SOPE   HN318758   1.499   2.375   6.412 -1.2928 -0.0931  0.0684
  167SOPE   C1218759   1.634   2.512   6.506  0.7022 -0.4645  0.5324
  167SOPE  H12A18760   1.621   2.589   6.585  3.3252  0.4047  0.2045
  167SOPE  H12B18761   1.685   2.561   6.421  1.6911 -1.0911  0.7416
  167SOPE   C1118762   1.729   2.397   6.535  0.0734  0.6252  0.2160
  167SOPE  H11A18763   1.714   2.345   6.632 -1.4206  1.6943  0.5940
  167SOPE  H11B18764   1.829   2.443   6.553  0.3759 -0.2517  0.8498
  167SOPE     P18765   1.721   2.150   6.440  0.0321 -0.2693 -0.0316
  167SOPE   O1318766   1.794   2.072   6.338 -0.9831 -0.7060 -0.7069
  167SOPE   O1418767   1.578   2.117   6.469 -0.5147  0.2271  0.0290
  167SOPE   O1218768   1.738   2.304   6.423 -0.0374 -0.1591 -0.1946
  167SOPE   O1118769   1.800   2.122   6.575 -1.0516  0.4805  0.0003
  167SOPE    C118770   1.832   1.984   6.605 -0.2037 -0.7546 -0.6761
  167SOPE    HA18771   1.935   1.959   6.572  0.1039 -1.0058  0.4246
  167SOPE    HB18772   1.757   1.914   6.563 -0.4731 -1.5400  1.0051
  167SOPE    C218773   1.819   1.948   6.760 -0.2147  0.3232 -0.6009
  167SOPE    HS18774   1.710   1.931   6.775 -0.4826  0.5360 -2.1099
  167SOPE   O2118775   1.867   2.051   6.843 -0.8142 -0.2469  0.4117
  167SOPE   C2118776   1.790   2.153   6.858  0.2396  0.5999 -0.2362
  167SOPE   O2218777   1.667   2.156   6.835 -0.5960  0.1802  0.3532
  167SOPE   C2218778   1.872   2.260   6.930  0.4337  0.5088  0.2390
  167SOPE   H2R18779   1.925   2.312   6.847  0.4086 -3.2569 -2.4111
  167SOPE   H2S18780   1.961   2.216   6.980  1.0464  1.3947 -0.0405
  167SOPE    C318781   1.901   1.819   6.786  0.3221 -0.3468 -0.5020
  167SOPE    HX18782   2.007   1.851   6.798  0.7097 -1.2339 -1.4236
  167SOPE    HY18783   1.886   1.745   6.705 -0.8778 -1.3430  0.5839
  167SOPE   O3118784   1.851   1.768   6.914  0.9781  0.4721 -0.3746
  167SOPE   C3118785   1.922   1.807   7.023 -0.0992 -0.1084 -0.0636
  167SOPE   O3218786   2.043   1.820   7.017 -1.0581  0.0137  0.4095
  167SOPE   C3218787   1.828   1.821   7.140  0.0209 -0.7942  0.3791
  167SOPE   H2X18788   1.886   1.784   7.227  1.4978 -2.5924 -1.3096
  167SOPE   H2Y18789   1.740   1.754   7.146 -2.8580  2.5430 -0.5508
  167SOPE   C2318790   1.768   2.338   7.017 -0.3106  0.4625  0.4016
  167SOPE   H3R18791   1.698   2.269   7.069 -1.2193  0.0305 -1.3068
  167SOPE   H3S18792   1.719   2.415   6.954 -1.5763  1.4325  2.4447
  167SOPE   C2418793   1.825   2.406   7.144  0.4472  0.5359 -0.4775
  167SOPE   H4R18794   1.897   2.484   7.111  0.9512  0.8516  1.2698
  167SOPE   H4S18795   1.743   2.465   7.188  1.7505  2.0062  0.0589
  167SOPE   C2518796   1.889   2.326   7.245 -0.0747  0.0045 -0.3234
  167SOPE   H5R18797   1.805   2.272   7.295  0.0972 -1.0123 -1.0943
  167SOPE   H5S18798   1.960   2.248   7.212 -1.1520 -0.7577 -0.9029
  167SOPE   C2618799   1.936   2.410   7.369  0.3731 -0.5284  0.3503
  167SOPE   H6R18800   2.020   2.469   7.326  0.7893 -2.5516 -1.8484
  167SOPE   H6S18801   1.858   2.475   7.413  0.9572 -0.6093  1.5312
  167SOPE   C2718802   1.997   2.340   7.484  0.3911 -0.4612 -0.3874
  167SOPE   H7R18803   1.929   2.266   7.530  1.2714 -0.2459  1.3229
  167SOPE   H7S18804   2.086   2.288   7.442 -0.5945 -0.1594 -3.1103
  167SOPE   C2818805   2.038   2.429   7.610 -0.2441  0.4386  0.0937
  167SOPE   H8R18806   2.098   2.365   7.677 -2.5996 -2.7627 -0.6151
  167SOPE   H8S18807   2.088   2.523   7.579 -0.1625  0.4243  0.1869
  167SOPE   C2918808   1.910   2.473   7.680  0.0529 -0.2194 -0.2897
  167SOPE   H9118809   1.856   2.387   7.722  0.2651 -0.3048 -0.1910
  167SOPE  C21018810   1.873   2.593   7.713 -0.2847 -0.3082  1.2127
  167SOPE  H10118811   1.771   2.606   7.752 -0.5580 -1.8209  1.0434
  167SOPE  C21118812   1.941   2.715   7.669  0.2602  0.2851  0.3843
  167SOPE  H11R18813   2.051   2.711   7.678  0.2205  0.3159  0.9888
  167SOPE  H11S18814   1.901   2.803   7.725  0.4479  1.8299 -1.8005
  167SOPE  C21218815   1.906   2.751   7.522  0.4035  0.8271  1.1050
  167SOPE  H12R18816   1.799   2.779   7.518  0.3202  0.9109  2.8184
  167SOPE  H12S18817   1.920   2.658   7.463 -1.4976  2.2332 -1.7452
  167SOPE  C21318818   2.000   2.857   7.469  0.5104 -0.0033 -0.3293
  167SOPE  H13R18819   2.103   2.840   7.507  0.3107  1.0185  0.7335
  167SOPE  H13S18820   1.969   2.956   7.508 -1.3634 -1.2044  1.4258
  167SOPE  C21418821   2.028   2.859   7.314 -0.1550 -0.3094 -0.3669
  167SOPE  H14R18822   1.941   2.872   7.247 -0.9206 -2.4441  0.1297
  167SOPE  H14S18823   2.054   2.753   7.291 -0.2778  0.2073 -3.2637
  167SOPE  C21518824   2.127   2.977   7.277 -0.7574 -0.0880 -0.1019
  167SOPE  H15R18825   2.230   2.961   7.316 -1.3178  0.7075  1.8617
  167SOPE  H15S18826   2.101   3.059   7.348  1.8106  0.9425 -0.2669
  167SOPE  C21618827   2.140   3.017   7.129  0.2097 -0.3510 -0.0772
  167SOPE  H16R18828   2.158   3.126   7.115 -0.2741 -0.0058  1.7420
  167SOPE  H16S18829   2.043   2.992   7.082  0.1005 -0.1218  0.0252
  167SOPE  C21718830   2.260   2.941   7.070 -0.2064 -0.0179  0.2543
  167SOPE  H17R18831   2.254   2.832   7.089 -0.2367 -0.2258 -0.8724
  167SOPE  H17S18832   2.356   2.980   7.110  0.6569 -0.0654 -1.6435
  167SOPE  C21818833   2.277   2.938   6.914 -0.7155  0.5296 -0.3448
  167SOPE  H18R18834   2.330   3.027   6.873  0.8965  0.9850  2.4620
  167SOPE  H18S18835   2.178   2.936   6.864 -0.3773 -1.5465 -1.0407
  167SOPE  H18T18836   2.334   2.846   6.887 -0.6653  0.1466  1.0196
  167SOPE   C3318837   1.781   1.970   7.173 -0.7234  0.6769 -0.3316
  167SOPE   H3X18838   1.716   2.000   7.088 -1.9201 -0.7202  0.0387
  167SOPE   H3Y18839   1.876   2.027   7.174 -0.0706 -0.3733 -0.1613
  167SOPE   C3418840   1.704   1.973   7.299 -0.4906 -0.3104  0.1052
  167SOPE   H4X18841   1.612   1.911   7.302 -0.4443 -0.3564  0.6561
  167SOPE   H4Y18842   1.685   2.080   7.324 -0.3451 -0.8380  2.7883
  167SOPE   C3518843   1.790   1.929   7.424  0.0693 -0.3698  0.5460
  167SOPE   H5X18844   1.891   1.973   7.408 -0.7717  1.7167  0.7094
  167SOPE   H5Y18845   1.798   1.818   7.425  1.7193 -0.2796  0.2557
  167SOPE   C3618846   1.738   1.971   7.554  0.7443 -0.3382 -0.2527
  167SOPE   H6X18847   1.647   1.913   7.583  0.4443  0.3361  0.1762
  167SOPE   H6Y18848   1.699   2.075   7.543 -2.2660 -1.2784  0.5191
  167SOPE   C3718849   1.855   1.987   7.653 -0.5423 -0.5411  0.5862
  167SOPE   H7X18850   1.929   2.040   7.589 -0.7539 -0.4462  0.4172
  167SOPE   H7Y18851   1.902   1.889   7.672 -1.6450 -1.1762  0.1368
  167SOPE   C3818852   1.822   2.061   7.778  0.1005 -0.0925  0.0531
  167SOPE   H8X18853   1.767   2.006   7.857  1.5516  0.5433  1.5582
  167SOPE   H8Y18854   1.764   2.153   7.754 -1.0085 -0.0521  2.5800
  167SOPE   C3918855   1.948   2.102   7.846  0.0176  0.0923  0.1298
  167SOPE   H9X18856   2.002   2.178   7.786  0.6713  0.0366  0.6332
  167SOPE   H9Y18857   2.016   2.015   7.855  0.0659  0.2017  0.8524
  167SOPE  C31018858   1.931   2.168   7.986 -0.2413  0.3779  0.4293
  167SOPE  H10X18859   1.842   2.234   7.997  0.4945  1.6122 -0.7185
  167SOPE  H10Y18860   2.021   2.232   7.997 -0.0770  0.2813 -0.2705
  167SOPE  C31118861   1.914   2.065   8.101  0.6067 -0.7577 -0.5609
  167SOPE  H11X18862   1.820   2.006   8.106  0.4577 -0.3908  2.7730
  167SOPE  H11Y18863   1.904   2.123   8.195 -0.6452 -1.4199 -0.2675
  167SOPE  C31218864   2.046   1.981   8.117  0.3309 -0.2046 -0.5768
  167SOPE  H12X18865   2.136   2.037   8.083 -0.6118  1.9983  0.3762
  167SOPE  H12Y18866   2.033   1.886   8.060 -0.2768  0.8680 -2.3199
  167SOPE  C31318867   2.079   1.953   8.263 -0.3226 -0.8238 -0.6452
  167SOPE  H13X18868   2.075   2.049   8.318 -2.7159 -0.2867 -1.6144
  167SOPE  H13Y18869   2.177   1.902   8.273 -0.3339 -0.8286 -0.5528
  167SOPE  C31418870   1.990   1.845   8.325  0.3281 -0.0777  0.2088
  167SOPE  H14X18871   1.989   1.753   8.263  0.8745 -1.8129  2.6374
  167SOPE  H14Y18872   1.890   1.892   8.329 -0.0614 -0.9302  0.7735
  167SOPE  C31518873   2.039   1.807   8.469 -0.2522  0.7264 -0.1409
  167SOPE  H15X18874   1.958   1.769   8.535  0.7727  0.5232  1.0189
  167SOPE  H15Y18875   2.066   1.902   8.521  0.1589  0.5863 -0.0970
  167SOPE  C31618876   2.151   1.702   8.469  0.2323 -0.0350  0.3674
  167SOPE  H16X18877   2.238   1.753   8.424 -0.4737 -0.9589 -2.2250
  167SOPE  H16Y18878   2.120   1.624   8.397  0.0425  0.0847  0.3186
  167SOPE  C31718879   2.184   1.634   8.605 -0.5728 -0.0670  0.2254
  167SOPE  H17X18880   2.200   1.700   8.693 -0.2492  1.4128 -0.8883
  167SOPE  H17Y18881   2.279   1.577   8.590 -1.5374 -1.5741 -0.3984
  167SOPE  C31818882   2.089   1.520   8.651 -0.6948 -0.0503  0.2784
  167SOPE  H18X18883   2.136   1.433   8.702 -1.2425 -0.1390  0.6334
  167SOPE  H18Y18884   2.034   1.481   8.562  3.3328 -1.5947 -1.8259
  167SOPE  H18Z18885   2.000   1.552   8.707 -0.2928  0.3291  0.7045
  168SOPE     N18886   1.953   0.586   6.653  0.2952 -0.5478 -0.0292
  168SOPE   HN118887   1.960   0.530   6.740  0.1424 -0.1099  0.2673
  168SOPE   HN218888   1.978   0.686   6.670 -0.0044 -0.3434 -0.7597
  168SOPE   HN318889   1.857   0.584   6.615 -0.3061 -3.2125  1.3548
  168SOPE   C1218890   2.053   0.541   6.553  0.4665  0.2954 -0.3167
  168SOPE  H12A18891   2.034   0.434   6.534 -2.0915  0.7835 -0.9317
  168SOPE  H12B18892   2.149   0.547   6.609 -1.1076 -0.3717  2.7018
  168SOPE   C1118893   2.035   0.623   6.429  0.4449 -0.5248  0.3037
  168SOPE  H11A18894   1.932   0.604   6.392  0.4809 -1.9010  0.8806
  168SOPE  H11B18895   2.104   0.591   6.347  0.3647 -0.8833  0.3793
  168SOPE     P18896   2.170   0.832   6.494 -0.3048  0.1995 -0.0913
  168SOPE   O1318897   2.155   0.979   6.476  0.5188  0.0050  0.1793
  168SOPE   O1418898   2.294   0.763   6.446 -0.3030 -0.7771  0.3522
  168SOPE   O1218899   2.044   0.764   6.442  0.2885 -0.2495  0.1772
  168SOPE   O1118900   2.148   0.794   6.653 -0.7789 -0.7101  0.5065
  168SOPE    C118901   2.155   0.896   6.744  0.5591 -0.0443 -0.9702
  168SOPE    HA18902   2.101   0.988   6.713 -0.7846 -0.2070  0.7058
  168SOPE    HB18903   2.259   0.933   6.758 -0.3212  2.3349 -0.0817
  168SOPE    C218904   2.096   0.862   6.889  0.4653  0.4750  0.2020
  168SOPE    HS18905   2.132   0.933   6.966 -0.1655 -0.3613  1.2949
  168SOPE   O2118906   2.113   0.722   6.924 -0.4722 -0.3326 -0.0841
  168SOPE   C2118907   2.233   0.695   6.977 -0.5967 -0.1521 -0.6204
  168SOPE   O2218908   2.317   0.778   7.000 -0.4363 -0.4340  0.4667
  168SOPE   C2218909   2.244   0.547   7.000  0.8249  0.1991  0.2578
  168SOPE   H2R18910   2.292   0.509   6.907  1.4728  1.4184  0.0772
  168SOPE   H2S18911   2.151   0.495   7.031  0.9995 -0.3657 -0.1420
  168SOPE    C318912   1.938   0.892   6.887 -0.2160  0.0893  0.1770
  168SOPE    HX18913   1.882   0.803   6.851 -1.1645  0.6765  0.1646
  168SOPE    HY18914   1.922   0.959   6.800  2.7979  0.6037 -0.1084
  168SOPE   O3118915   1.894   0.951   7.012  0.8083 -0.1783 -0.1155
  168SOPE   C3118916   1.867   0.858   7.108 -0.1860  0.0485 -0.0796
  168SOPE   O3218917   1.859   0.741   7.087 -0.5718  0.0806 -0.1733
  168SOPE   C3218918   1.835   0.921   7.239  0.4262  0.1747 -1.0985
  168SOPE   H2X18919   1.775   0.850   7.299  1.8639 -0.2550 -0.1187
  168SOPE   H2Y18920   1.772   1.010   7.219 -0.1677  0.1907  0.6685
  168SOPE   C2318921   2.346   0.526   7.113  0.1980  0.4441  0.7239
  168SOPE   H3R18922   2.434   0.591   7.093  0.0255  0.7409  0.9251
  168SOPE   H3S18923   2.374   0.419   7.123  4.9068  1.1210 -2.1726
  168SOPE   C2418924   2.298   0.575   7.251 -0.5715 -0.5905 -1.3011
  168SOPE   H4R18925   2.280   0.685   7.259 -1.6731 -0.8092 -0.5886
  168SOPE   H4S18926   2.199   0.526   7.261  0.1225 -2.2680 -2.2716
  168SOPE   C2518927   2.392   0.526   7.364  0.2922  0.2907  0.6175
  168SOPE   H5R18928   2.424   0.420   7.354  3.6835  1.3108 -0.9884
  168SOPE   H5S18929   2.491   0.573   7.344  0.2395 -0.6090 -2.2538
  168SOPE   C2618930   2.342   0.563   7.502  0.0411 -0.6631 -0.7724
  168SOPE   H6R18931   2.337   0.673   7.516  1.1547 -0.1321 -3.8472
  168SOPE   H6S18932   2.238   0.525   7.500 -0.5079  0.8186 -1.7757
  168SOPE   C2718933   2.441   0.529   7.617 -0.2452 -0.1117  0.6070
  168SOPE   H7R18934   2.493   0.431   7.622  2.3759  1.0912 -0.6737
  168SOPE   H7S18935   2.527   0.597   7.596 -1.0900  1.2146  1.2690
  168SOPE   C2818936   2.398   0.556   7.765  0.1218 -0.2841 -0.1791
  168SOPE   H8R18937   2.329   0.644   7.768 -0.5617 -0.7407 -1.4110
  168SOPE   H8S18938   2.335   0.466   7.781  0.2889 -0.0264  2.1821
  168SOPE   C2918939   2.510   0.543   7.867 -0.8408 -0.4103 -1.0031
  168SOPE   H9118940   2.542   0.642   7.905 -1.7936  0.8719 -3.3518
  168SOPE  C21018941   2.551   0.439   7.936  0.1091  0.9190  0.2725
  168SOPE  H10118942   2.624   0.447   8.018  1.1111  0.5008 -0.5546
  168SOPE  C21118943   2.485   0.301   7.909 -0.5895  0.2113 -0.1971
  168SOPE  H11R18944   2.560   0.219   7.919 -1.0371 -0.3851 -1.5706
  168SOPE  H11S18945   2.469   0.278   7.802 -0.5868  0.2140 -0.1982
  168SOPE  C21218946   2.365   0.268   7.997 -0.2247  1.0760 -0.3582
  168SOPE  H12R18947   2.294   0.207   7.936  2.5578 -0.6676 -2.0610
  168SOPE  H12S18948   2.319   0.365   8.026 -3.5016  0.1393 -1.8912
  168SOPE  C21318949   2.405   0.183   8.118  0.0493 -0.0250  0.0801
  168SOPE  H13R18950   2.459   0.097   8.073  0.6870  1.0193 -1.2412
  168SOPE  H13S18951   2.305   0.152   8.154 -0.2153  0.4465 -0.2387
  168SOPE  C21418952   2.469   0.248   8.241  0.5101 -0.6123  0.2052
  168SOPE  H14R18953   2.422   0.341   8.281  0.6550  0.2874 -1.5941
  168SOPE  H14S18954   2.567   0.290   8.210  0.1886 -1.1493 -1.6822
  168SOPE  C21518955   2.488   0.143   8.346 -0.3240  0.5629 -0.0783
  168SOPE  H15R18956   2.555   0.063   8.308 -2.9756 -1.8952  0.0439
  168SOPE  H15S18957   2.400   0.077   8.363  0.6859 -0.4833  1.3533
  168SOPE  C21618958   2.520   0.184   8.488 -0.5870 -0.0961 -0.0510
  168SOPE  H16R18959   2.431   0.215   8.547  0.7926  1.7965  1.1437
  168SOPE  H16S18960   2.591   0.269   8.495 -1.3237  0.5055  0.2260
  168SOPE  C21718961   2.595   0.067   8.575  0.3601  0.0635  1.0946
  168SOPE  H17R18962   2.683   0.035   8.515 -0.2236 -1.1431  0.8551
  168SOPE  H17S18963   2.518  -0.013   8.584  0.2496  0.2829  2.2047
  168SOPE  C21818964   2.641   0.109   8.710 -0.4417  0.6110 -0.0398
  168SOPE  H18R18965   2.697   0.204   8.698  1.4994 -0.4196  0.3855
  168SOPE  H18S18966   2.702   0.035   8.767  1.3090  1.7285 -0.4188
  168SOPE  H18T18967   2.555   0.138   8.774 -0.7692 -2.4542  1.0937
  168SOPE   C3318968   1.965   0.960   7.309  0.0543  0.8278 -0.4897
  168SOPE   H3X18969   2.058   0.963   7.249  2.7200  0.2493  3.2690
  168SOPE   H3Y18970   1.989   0.873   7.373 -1.5054  0.3789 -0.4701
  168SOPE   C3418971   1.936   1.090   7.385 -0.1711  0.2320 -0.0557
  168SOPE   H4X18972   1.854   1.150   7.338 -0.2385  2.9414  3.1554
  168SOPE   H4Y18973   2.026   1.154   7.383 -1.0783  1.5404 -1.5186
  168SOPE   C3518974   1.891   1.061   7.532  1.3279  0.0581 -0.4038
  168SOPE   H5X18975   1.852   0.957   7.538 -0.7525  0.8401  0.2937
  168SOPE   H5Y18976   1.803   1.126   7.548  1.9759  0.4825  1.7655
  168SOPE   C3618977   2.001   1.084   7.635 -0.1227  0.1762  0.2671
  168SOPE   H6X18978   2.038   1.187   7.615 -2.5514  0.9384 -0.5201
  168SOPE   H6Y18979   2.092   1.024   7.612 -0.6894 -0.4008 -0.4986
  168SOPE   C3718980   1.942   1.070   7.777  0.0722 -0.2246 -0.0195
  168SOPE   H7X18981   1.877   0.980   7.763  0.2642 -0.1439 -1.7360
  168SOPE   H7Y18982   1.876   1.158   7.790  0.4698 -0.3402  3.7406
  168SOPE   C3818983   2.044   1.060   7.880  0.3917 -0.2376 -0.0369
  168SOPE   H8X18984   2.115   1.143   7.860 -0.3716  0.1637 -1.1714
  168SOPE   H8Y18985   2.108   0.970   7.893 -1.2843 -2.1698 -3.7651
  168SOPE   C3918986   1.981   1.102   8.023 -0.5067  0.6628 -0.0269
  168SOPE   H9X18987   1.908   1.022   8.047  0.1578 -0.4696 -1.6349
  168SOPE   H9Y18988   1.918   1.191   8.003 -0.4751  0.3612 -1.6420
  168SOPE  C31018989   2.092   1.126   8.131 -0.5952 -0.7369  0.1390
  168SOPE  H10X18990   2.173   1.198   8.106  1.0635 -2.2541  0.8399
  168SOPE  H10Y18991   2.154   1.033   8.126  2.0906  0.8823  1.1962
  168SOPE  C31118992   2.031   1.144   8.274  0.3172  0.5707 -0.0657
  168SOPE  H11X18993   1.994   1.041   8.298 -0.0906  0.8206  0.4064
  168SOPE  H11Y18994   1.949   1.218   8.268 -2.2091 -2.0347 -0.1666
  168SOPE  C31218995   2.133   1.193   8.381  0.6297  0.3541  0.1799
  168SOPE  H12X18996   2.097   1.187   8.486  2.8724 -1.0584  0.9383
  168SOPE  H12Y18997   2.154   1.301   8.367  1.1169  0.3210  0.6156
  168SOPE  C31318998   2.265   1.117   8.384 -0.2762  0.8116  0.1911
  168SOPE  H13X18999   2.308   1.111   8.282 -0.8959 -3.2650 -0.0164
  168SOPE  H13Y19000   2.232   1.012   8.402 -0.3461  0.2850 -2.5377
  168SOPE  C31419001   2.351   1.182   8.489 -1.1039 -0.5631  0.3077
  168SOPE  H14X19002   2.305   1.187   8.590 -2.3558  3.1374 -0.2851
  168SOPE  H14Y19003   2.357   1.285   8.448 -1.7227  0.0343  1.6743
  168SOPE  C31519004   2.493   1.119   8.504 -0.4130  0.6646 -0.2420
  168SOPE  H15X19005   2.537   1.122   8.402  1.1003  2.4487  0.3971
  168SOPE  H15Y19006   2.469   1.013   8.523 -2.1021  1.5297  3.2508
  168SOPE  C31619007   2.566   1.169   8.633 -0.4858 -0.4806 -0.0386
  168SOPE  H16X19008   2.517   1.146   8.730  2.7851  1.0315  2.1591
  168SOPE  H16Y19009   2.574   1.280   8.633 -0.6240 -0.4708  0.2300
  168SOPE  C31719010   2.710   1.125   8.632  0.5688 -0.1287  0.4417
  168SOPE  H17X19011   2.765   1.175   8.714  0.0425  1.5958 -0.2066
  168SOPE  H17Y19012   2.754   1.153   8.534  0.0045 -1.4455 -0.2210
  168SOPE  C31819013   2.733   0.976   8.654 -0.0473 -0.4862  0.0362
  168SOPE  H18X19014   2.822   0.958   8.590 -1.8858 -1.8852 -2.2695
  168SOPE  H18Y19015   2.645   0.918   8.619 -0.5245 -0.3189  0.9194
  168SOPE  H18Z19016   2.765   0.945   8.756 -2.1342  1.6690  1.4245
  169SOPE     N19017   0.558   1.369   6.140 -0.1998 -0.0220 -0.3573
  169SOPE   HN119018   0.581   1.319   6.228  0.8014  0.3952 -0.3704
  169SOPE   HN219019   0.485   1.316   6.088 -0.6089 -0.3470  0.5350
  169SOPE   HN319020   0.647   1.385   6.089  0.1042  1.1150  0.4910
  169SOPE   C1219021   0.498   1.509   6.158 -0.0507 -1.0329 -0.7642
  169SOPE  H12A19022   0.533   1.575   6.076 -0.0944  1.6846  1.2494
  169SOPE  H12B19023   0.548   1.542   6.252 -1.1099 -0.4345 -0.3903
  169SOPE   C1119024   0.348   1.511   6.190 -0.4806  0.5659 -1.1520
  169SOPE  H11A19025   0.302   1.511   6.089  1.3312 -1.8860 -2.0602
  169SOPE  H11B19026   0.331   1.608   6.241  0.1239 -0.1225  0.4383
  169SOPE     P19027   0.212   1.428   6.393 -0.1746  0.2429 -0.1860
  169SOPE   O1319028   0.189   1.292   6.452 -0.0167 -0.0505 -0.9832
  169SOPE   O1419029   0.096   1.502   6.347  0.2191  0.0992  0.2782
  169SOPE   O1219030   0.297   1.394   6.267 -0.1523  0.2157  0.8497
  169SOPE   O1119031   0.305   1.525   6.480 -0.0327  1.0003 -0.4421
  169SOPE    C119032   0.433   1.479   6.538  0.3781 -0.6172  0.3069
  169SOPE    HA19033   0.506   1.563   6.542  0.8601 -1.0400  0.3211
  169SOPE    HB19034   0.477   1.392   6.486  0.0711  0.1647 -1.3391
  169SOPE    C219035   0.414   1.427   6.689  0.2424 -0.1389 -0.0524
  169SOPE    HS19036   0.341   1.343   6.687  0.5487 -0.4256  0.5850
  169SOPE   O2119037   0.365   1.526   6.776 -0.1017 -0.3084 -0.4726
  169SOPE   C2119038   0.240   1.533   6.796 -0.4958  0.0945 -0.0679
  169SOPE   O2219039   0.155   1.455   6.764 -0.3506 -0.4236 -0.1567
  169SOPE   C2219040   0.219   1.659   6.879 -0.9651 -0.5872 -0.0300
  169SOPE   H2R19041   0.199   1.739   6.803 -2.5883 -0.0299  0.9406
  169SOPE   H2S19042   0.305   1.678   6.946 -0.8608 -2.2192  0.3374
  169SOPE    C319043   0.552   1.378   6.743  0.1101 -0.5589  0.0910
  169SOPE    HX19044   0.621   1.466   6.747 -1.1168  0.5742 -2.0674
  169SOPE    HY19045   0.611   1.311   6.676  3.9574  0.9213  1.7000
  169SOPE   O3119046   0.542   1.336   6.879 -0.2451  0.3070 -0.1128
  169SOPE   C3119047   0.546   1.204   6.903 -0.7563 -0.0542  0.7382
  169SOPE   O3219048   0.538   1.116   6.821 -0.4633  0.0888  0.4924
  169SOPE   C3219049   0.557   1.189   7.053 -0.8165  0.1555 -1.0081
  169SOPE   H2X19050   0.664   1.166   7.071 -1.5999 -1.3010  2.6606
  169SOPE   H2Y19051   0.509   1.095   7.087  1.9386 -0.4102  1.7294
  169SOPE   C2319052   0.093   1.640   6.964 -1.1396 -0.0540  0.3717
  169SOPE   H3R19053   0.102   1.547   7.024  0.3029  0.9644  1.8335
  169SOPE   H3S19054   0.007   1.629   6.895 -2.1413  0.3214  1.5193
  169SOPE   C2419055   0.053   1.758   7.051 -0.3562  0.0803  0.5423
  169SOPE   H4R19056   0.032   1.842   6.981 -1.3204  2.2116  3.2212
  169SOPE   H4S19057  -0.038   1.729   7.107 -0.4971 -1.4641 -0.4377
  169SOPE   C2519058   0.141   1.798   7.169 -0.6027  0.4272 -0.2683
  169SOPE   H5R19059   0.227   1.851   7.123  0.0985 -0.6712 -0.2477
  169SOPE   H5S19060   0.079   1.866   7.231  0.5898 -1.8224  3.7035
  169SOPE   C2619061   0.174   1.684   7.267  0.1461  0.2620  0.2798
  169SOPE   H6R19062   0.085   1.625   7.300 -0.9043 -0.2522 -3.0629
  169SOPE   H6S19063   0.234   1.615   7.204  0.0180  0.1635  0.2644
  169SOPE   C2719064   0.265   1.717   7.390 -0.4763  0.1285 -0.8070
  169SOPE   H7R19065   0.298   1.619   7.431  0.7206  0.9550  0.2752
  169SOPE   H7S19066   0.355   1.765   7.347 -0.7630  1.2957 -0.1461
  169SOPE   C2819067   0.209   1.806   7.506  0.1329  0.8516 -0.0236
  169SOPE   H8R19068   0.173   1.903   7.465 -0.1458  0.2366 -1.2784
  169SOPE   H8S19069   0.121   1.755   7.550  1.2522 -0.8608  0.3419
  169SOPE   C2919070   0.305   1.833   7.618  0.0120  0.9989 -0.0646
  169SOPE   H9119071   0.405   1.867   7.587  0.7177 -0.6620  0.2831
  169SOPE  C21019072   0.292   1.797   7.747  0.2049  0.6077 -0.6358
  169SOPE  H10119073   0.367   1.829   7.821  0.1289 -1.4586  0.3911
  169SOPE  C21119074   0.182   1.731   7.827 -0.6266  1.1893  0.0913
  169SOPE  H11R19075   0.209   1.625   7.846 -2.0092  0.9494  0.8674
  169SOPE  H11S19076   0.085   1.738   7.773 -1.6832 -0.5781  1.6365
  169SOPE  C21219077   0.170   1.790   7.970  0.1126 -0.2016  0.2629
  169SOPE  H12R19078   0.255   1.760   8.035  0.4862 -1.2669 -0.6914
  169SOPE  H12S19079   0.077   1.749   8.015  0.8696 -0.4533  1.6534
  169SOPE  C21319080   0.159   1.943   7.974  0.2133  0.2886  0.2399
  169SOPE  H13R19081   0.084   1.969   7.895 -1.1488 -2.1419  0.6185
  169SOPE  H13S19082   0.257   1.993   7.960  1.4619 -1.1630  3.0689
  169SOPE  C21419083   0.118   1.987   8.109 -0.0930 -0.6360  0.0869
  169SOPE  H14R19084   0.044   1.929   8.168 -0.0551  0.0620  0.8403
  169SOPE  H14S19085   0.070   2.086   8.097  1.6560  0.1811 -0.5431
  169SOPE  C21519086   0.238   2.008   8.203 -0.4558 -0.1211  0.0509
  169SOPE  H15R19087   0.308   2.089   8.175 -0.5024 -0.3268 -0.6611
  169SOPE  H15S19088   0.284   1.907   8.202 -1.0926 -0.4145 -0.3987
  169SOPE  C21619089   0.195   2.028   8.351  0.3683  0.4639  0.1317
  169SOPE  H16R19090   0.124   1.944   8.370 -1.6889  1.5197 -2.1878
  169SOPE  H16S19091   0.144   2.126   8.357 -0.0455  0.4665 -2.3526
  169SOPE  C21719092   0.314   2.010   8.451  0.2553  0.9550  0.3976
  169SOPE  H17R19093   0.286   2.073   8.538 -1.7971 -1.0965  1.3425
  169SOPE  H17S19094   0.405   2.053   8.403  0.0481 -1.2410 -2.1912
  169SOPE  C21819095   0.340   1.873   8.504  0.6514  0.9650  0.7975
  169SOPE  H18R19096   0.441   1.862   8.548 -0.1605  0.3627  2.5814
  169SOPE  H18S19097   0.352   1.798   8.422 -0.1707 -0.2146  1.7206
  169SOPE  H18T19098   0.261   1.852   8.579  1.2429  1.0019  1.4364
  169SOPE   C3319099   0.525   1.303   7.159 -0.7769 -0.3925  0.0888
  169SOPE   H3X19100   0.458   1.379   7.115  1.7751  2.1854  0.3319
  169SOPE   H3Y19101   0.621   1.358   7.175 -0.8966 -0.2567  0.3540
  169SOPE   C3419102   0.465   1.250   7.288 -0.0923 -0.0618 -0.2518
  169SOPE   H4X19103   0.505   1.148   7.307  1.3949  0.1814 -1.8522
  169SOPE   H4Y19104   0.355   1.238   7.280 -0.0938 -1.4342  1.2307
  169SOPE   C3519105   0.485   1.339   7.415  0.1036  0.1751  0.4191
  169SOPE   H5X19106   0.427   1.434   7.410 -1.9156 -1.0649 -1.2098
  169SOPE   H5Y19107   0.594   1.363   7.417 -0.1109  1.2118  0.1697
  169SOPE   C3619108   0.448   1.262   7.544 -0.6363 -0.0563 -0.3558
  169SOPE   H6X19109   0.477   1.156   7.531 -0.5623  0.2425 -3.1117
  169SOPE   H6Y19110   0.337   1.269   7.542 -0.5970  0.4362 -1.7223
  169SOPE   C3719111   0.510   1.328   7.678 -0.1239  0.1597  0.5989
  169SOPE   H7X19112   0.485   1.436   7.675  0.2059  0.3739  3.0774
  169SOPE   H7Y19113   0.620   1.314   7.678 -0.3672 -3.6130  3.8739
  169SOPE   C3819114   0.455   1.263   7.802  0.0283 -0.3947 -0.2641
  169SOPE   H8X19115   0.345   1.272   7.809  0.0193 -0.8262  0.2808
  169SOPE   H8Y19116   0.486   1.156   7.798  0.1093 -0.4501  1.1814
  169SOPE   C3919117   0.506   1.332   7.928  0.4729 -0.5021 -0.7107
  169SOPE   H9X19118   0.445   1.421   7.954  1.5978  0.0072  0.2760
  169SOPE   H9Y19119   0.604   1.382   7.912  0.0301  1.2463  1.4816
  169SOPE  C31019120   0.507   1.239   8.054 -0.5562 -0.1778  0.0865
  169SOPE  H10X19121   0.581   1.158   8.037 -0.5052 -0.3214  0.9513
  169SOPE  H10Y19122   0.404   1.198   8.060 -0.0989 -1.2625  1.1371
  169SOPE  C31119123   0.548   1.315   8.182 -0.2762 -0.1257 -0.3348
  169SOPE  H11X19124   0.467   1.389   8.193  0.0226 -0.0302  1.5908
  169SOPE  H11Y19125   0.638   1.377   8.161 -0.2217  0.0816  0.4667
  169SOPE  C31219126   0.561   1.227   8.308  0.4864 -0.0183 -0.5370
  169SOPE  H12X19127   0.634   1.268   8.380  0.0051 -1.8442  1.0864
  169SOPE  H12Y19128   0.599   1.129   8.272 -0.3646  1.0216 -4.7832
  169SOPE  C31319129   0.423   1.210   8.376  0.1601  0.2176  0.1768
  169SOPE  H13X19130   0.360   1.145   8.312  0.9495 -1.2931  0.8949
  169SOPE  H13Y19131   0.365   1.305   8.375 -0.5834 -0.1198  2.9074
  169SOPE  C31419132   0.422   1.164   8.516 -0.2716  0.2094 -0.2872
  169SOPE  H14X19133   0.501   1.208   8.581 -0.3528  1.2237 -0.8646
  169SOPE  H14Y19134   0.433   1.054   8.531 -0.8450  0.3202  1.0877
  169SOPE  C31519135   0.286   1.204   8.582  0.6996 -0.6930  0.7213
  169SOPE  H15X19136   0.204   1.160   8.521  0.1929 -1.4363  1.8952
  169SOPE  H15Y19137   0.282   1.315   8.580 -0.4406 -0.7178  0.7272
  169SOPE  C31619138   0.266   1.151   8.722  0.2914  0.1783 -0.2953
  169SOPE  H16X19139   0.334   1.200   8.796  0.7966  0.1247 -0.7213
  169SOPE  H16Y19140   0.301   1.046   8.718 -0.2751  0.0030 -0.6845
  169SOPE  C31719141   0.125   1.172   8.779 -0.2036  0.3768  0.0152
  169SOPE  H17X19142   0.108   1.092   8.854 -0.0896  0.2567 -0.0856
  169SOPE  H17Y19143   0.049   1.148   8.702  1.1844  0.6275 -1.4789
  169SOPE  C31819144   0.110   1.305   8.841  0.1303  0.1313  0.4499
  169SOPE  H18X19145   0.139   1.385   8.768 -1.9269 -1.7490 -2.6841
  169SOPE  H18Y19146   0.172   1.307   8.933 -0.8071 -0.3859  1.1136
  169SOPE  H18Z19147   0.005   1.332   8.863  0.2099  1.1072 -0.2715
  170SOPE     N19148   6.607   3.319   5.949  0.7476  0.2971  0.7038
  170SOPE   HN119149   6.540   3.396   5.968  0.5617  0.0734  0.9717
  170SOPE   HN219150   6.691   3.361   5.904 -1.1379  2.3273 -1.1385
  170SOPE   HN319151   6.561   3.249   5.889 -1.6023  3.1328 -1.0667
  170SOPE   C1219152   6.656   3.260   6.084 -0.0404 -0.0534  0.2254
  170SOPE  H12A19153   6.721   3.341   6.124  1.7125 -1.6576  0.7417
  170SOPE  H12B19154   6.715   3.170   6.059 -0.6012 -0.4558  0.3317
  170SOPE   C1119155   6.536   3.219   6.157  0.0813 -0.3606  0.4826
  170SOPE  H11A19156   6.556   3.152   6.244  1.1012  0.1342  0.6437
  170SOPE  H11B19157   6.461   3.163   6.098 -1.0471  1.5466  0.0243
  170SOPE     P19158   6.513   3.420   6.324  0.0126  0.3357 -0.1871
  170SOPE   O1319159   6.383   3.473   6.376 -0.4546 -0.5689 -0.1624
  170SOPE   O1419160   6.617   3.516   6.291  0.1283  0.5025  0.3650
  170SOPE   O1219161   6.468   3.344   6.195 -0.4337 -0.1920 -0.4781
  170SOPE   O1119162   6.563   3.311   6.428 -0.0110  0.8052  0.2442
  170SOPE    C119163   6.689   3.327   6.499 -0.3658 -0.1824 -1.0573
  170SOPE    HA19164   6.737   3.427   6.502  0.4110 -0.5626 -0.0014
  170SOPE    HB19165   6.767   3.256   6.465  0.1114  1.0038 -2.5473
  170SOPE    C219166   6.667   3.295   6.651  0.2237 -0.3085  0.6688
  170SOPE    HS19167   6.631   3.190   6.658  0.8401 -0.5042  1.0040
  170SOPE   O2119168   6.570   3.394   6.704  0.6207 -0.0827 -0.1055
  170SOPE   C2119169   6.508   3.349   6.814 -0.5930  0.0004 -0.1494
  170SOPE   O2219170   6.521   3.232   6.852  0.2197 -0.0996 -0.1537
  170SOPE   C2219171   6.428   3.462   6.886 -0.4695  0.9119 -0.6668
  170SOPE   H2R19172   6.384   3.534   6.814 -2.4615 -0.0184 -0.4378
  170SOPE   H2S19173   6.498   3.512   6.957 -1.6872  0.9134  0.5607
  170SOPE    C319174   6.794   3.305   6.737 -0.3941 -0.1384  0.8796
  170SOPE    HX19175   6.829   3.411   6.736  1.3997 -0.6951  0.3471
  170SOPE    HY19176   6.879   3.245   6.697  0.9571  2.2319 -0.0086
  170SOPE   O3119177   6.774   3.288   6.876  0.1907 -0.8639  0.1357
  170SOPE   C3119178   6.787   3.166   6.923 -0.1299 -0.5049 -0.4327
  170SOPE   O3219179   6.810   3.064   6.864 -0.4680 -0.0534  0.6638
  170SOPE   C3219180   6.743   3.165   7.067 -0.5581  0.3122  0.0805
  170SOPE   H2X19181   6.632   3.153   7.072 -0.5236 -0.8293 -1.3501
  170SOPE   H2Y19182   6.767   3.260   7.120 -5.1132  0.9069  1.5370
  170SOPE   C2319183   6.304   3.408   6.970 -0.4014 -0.4015 -0.5597
  170SOPE   H3R19184   6.269   3.496   7.028  3.2082  1.9155 -1.5455
  170SOPE   H3S19185   6.347   3.326   7.032 -0.3770 -1.8708 -2.4475
  170SOPE   C2419186   6.191   3.358   6.881  1.0076 -0.4877  0.0098
  170SOPE   H4R19187   6.156   3.431   6.805 -0.6939  0.0263  1.2445
  170SOPE   H4S19188   6.231   3.270   6.826 -1.8213 -3.1409  1.9288
  170SOPE   C2519189   6.070   3.305   6.946  0.3245  0.0762 -0.7305
  170SOPE   H5R19190   5.996   3.272   6.869 -0.1530 -1.9615  0.5227
  170SOPE   H5S19191   6.098   3.221   7.013 -1.4482  0.1641  0.1759
  170SOPE   C2619192   6.004   3.413   7.031 -0.5086 -0.3180 -0.3690
  170SOPE   H6R19193   6.073   3.433   7.115 -0.3327  0.3138 -0.6561
  170SOPE   H6S19194   5.995   3.507   6.973 -1.6254  0.2409  0.6689
  170SOPE   C2719195   5.862   3.383   7.075 -0.0852  0.5778 -0.8437
  170SOPE   H7R19196   5.821   3.480   7.110 -0.2036  0.9762 -2.0363
  170SOPE   H7S19197   5.809   3.355   6.981 -3.3682 -1.5969  1.4161
  170SOPE   C2819198   5.855   3.270   7.177 -0.4303  0.5118  0.2886
  170SOPE   H8R19199   5.909   3.179   7.147 -0.7714  0.1555  0.7380
  170SOPE   H8S19200   5.914   3.301   7.266  2.2810  1.1245 -1.6058
  170SOPE   C2919201   5.718   3.234   7.225  0.1516  0.5210 -0.0608
  170SOPE   H9119202   5.651   3.212   7.141  1.2834  0.4232 -0.9628
  170SOPE  C21019203   5.669   3.221   7.350 -0.4371 -0.2803  0.3609
  170SOPE  H10119204   5.564   3.195   7.366 -0.6065  0.5109  0.5614
  170SOPE  C21119205   5.751   3.220   7.482  0.3339 -0.6879 -0.4515
  170SOPE  H11R19206   5.859   3.223   7.457  0.5173 -1.8171  0.1528
  170SOPE  H11S19207   5.729   3.124   7.534  2.3218 -0.0870  1.6462
  170SOPE  C21219208   5.714   3.331   7.577  0.5247  0.3702 -0.3316
  170SOPE  H12R19209   5.603   3.329   7.577  0.4857 -1.5107  1.4846
  170SOPE  H12S19210   5.740   3.427   7.529  2.0293 -0.4886 -1.3193
  170SOPE  C21319211   5.745   3.317   7.732  0.4715  0.5908  0.0727
  170SOPE  H13R19212   5.690   3.390   7.794  1.8967 -0.0328  2.1797
  170SOPE  H13S19213   5.855   3.326   7.738  0.7846 -1.0978 -1.9546
  170SOPE  C21419214   5.696   3.180   7.789 -0.8146  0.8370 -0.8549
  170SOPE  H14R19215   5.755   3.093   7.753  0.7353  1.4485  0.1077
  170SOPE  H14S19216   5.593   3.160   7.753 -1.1204  0.3710  0.2339
  170SOPE  C21519217   5.705   3.166   7.947 -0.5946 -0.4926 -0.6618
  170SOPE  H15R19218   5.813   3.184   7.966  0.2239 -3.3828 -1.9354
  170SOPE  H15S19219   5.678   3.059   7.963  1.4306 -0.8998  0.3282
  170SOPE  C21619220   5.611   3.261   8.021 -0.3338  0.4993  0.4428
  170SOPE  H16R19221   5.506   3.227   8.012 -0.0869 -0.0803 -0.3930
  170SOPE  H16S19222   5.625   3.361   7.973  0.3246  1.0913  1.8209
  170SOPE  C21719223   5.665   3.288   8.165  0.3181  0.6780  0.1002
  170SOPE  H17R19224   5.640   3.394   8.191 -1.2098 -0.0898  1.9946
  170SOPE  H17S19225   5.775   3.277   8.161  0.3651  1.4003 -1.3176
  170SOPE  C21819226   5.611   3.209   8.281 -0.6818  0.4637 -0.5194
  170SOPE  H18R19227   5.502   3.228   8.282 -0.2535  3.9718  2.0651
  170SOPE  H18S19228   5.647   3.257   8.375 -0.9260  0.0750 -0.2274
  170SOPE  H18T19229   5.648   3.104   8.284  1.7701  1.2043 -1.6040
  170SOPE   C3319230   6.810   3.040   7.134 -0.1212 -0.2504  0.1986
  170SOPE   H3X19231   6.920   3.029   7.117  0.3512  1.8421  1.5567
  170SOPE   H3Y19232   6.746   2.963   7.087 -3.0962  2.3491 -0.3315
  170SOPE   C3419233   6.782   3.009   7.282  0.4723 -0.4705 -0.2984
  170SOPE   H4X19234   6.678   3.033   7.311  1.1488 -0.1042  1.9723
  170SOPE   H4Y19235   6.854   3.076   7.334 -0.1764  0.3502 -0.4335
  170SOPE   C3519236   6.813   2.865   7.331 -0.0687 -0.0919 -0.5319
  170SOPE   H5X19237   6.920   2.846   7.310 -0.0076  0.1919 -0.4899
  170SOPE   H5Y19238   6.755   2.791   7.272 -2.1263 -0.0181  1.2780
  170SOPE   C3619239   6.771   2.850   7.477  0.3357 -0.1030  0.1295
  170SOPE   H6X19240   6.773   2.739   7.483  2.1121 -0.2114 -1.5298
  170SOPE   H6Y19241   6.668   2.889   7.492  0.6828  1.4510 -1.2490
  170SOPE   C3719242   6.868   2.909   7.580  0.3876  0.0382 -0.1299
  170SOPE   H7X19243   6.974   2.907   7.548  0.0620  2.8844 -1.6524
  170SOPE   H7Y19244   6.862   2.850   7.674  1.3650 -0.5926 -0.4549
  170SOPE   C3819245   6.850   3.051   7.614  0.2063  0.3675  0.3711
  170SOPE   H8X19246   6.741   3.071   7.616 -0.0833 -1.0174 -0.3998
  170SOPE   H8Y19247   6.895   3.114   7.534 -2.8495  1.6489 -0.4588
  170SOPE   C3919248   6.911   3.089   7.747  0.4552  0.1242 -0.1487
  170SOPE   H9X19249   6.941   3.196   7.756 -1.5774  0.6609  1.0198
  170SOPE   H9Y19250   7.000   3.025   7.766 -0.4650 -1.7100 -1.7368
  170SOPE  C31019251   6.809   3.042   7.859  0.3031  0.1588  0.2961
  170SOPE  H10X19252   6.881   3.035   7.944  1.1419  1.4792 -0.2760
  170SOPE  H10Y19253   6.774   2.937   7.854  1.0771 -0.0479 -2.4420
  170SOPE  C31119254   6.697   3.138   7.878 -0.3097  0.6426 -0.2949
  170SOPE  H11X19255   6.634   3.135   7.787  0.3716 -0.2405 -0.7524
  170SOPE  H11Y19256   6.727   3.241   7.905  0.8361  0.1672  0.2939
  170SOPE  C31219257   6.607   3.095   8.004  0.1543  0.1221  0.0133
  170SOPE  H12X19258   6.673   3.084   8.093 -1.0918  0.7157  1.0270
  170SOPE  H12Y19259   6.560   2.998   7.980 -1.2642  0.8690 -0.2998
  170SOPE  C31319260   6.497   3.193   8.041 -0.0244 -0.4026 -0.0676
  170SOPE  H13X19261   6.413   3.167   7.973 -0.3823  2.0083 -0.6542
  170SOPE  H13Y19262   6.529   3.297   8.018 -2.1554  0.1928 -0.5445
  170SOPE  C31419263   6.460   3.182   8.181  0.2738  0.5727  0.5879
  170SOPE  H14X19264   6.543   3.202   8.253 -0.7700  1.6532  1.5450
  170SOPE  H14Y19265   6.424   3.081   8.210  1.5173 -0.7959 -2.2610
  170SOPE  C31519266   6.357   3.283   8.208  0.9177 -0.4114 -0.2238
  170SOPE  H15X19267   6.273   3.273   8.136  0.1001 -1.2157  0.8155
  170SOPE  H15Y19268   6.401   3.382   8.186  3.4339 -1.3166  0.4086
  170SOPE  C31619269   6.310   3.270   8.348 -0.2681  0.0773 -0.6758
  170SOPE  H16X19270   6.396   3.288   8.415 -1.9540 -0.4340  1.7615
  170SOPE  H16Y19271   6.273   3.171   8.383 -0.6199  0.5450  0.3239
  170SOPE  C31719272   6.192   3.365   8.386 -0.0977  0.5830 -0.4078
  170SOPE  H17X19273   6.230   3.469   8.374 -0.5335  0.5330 -2.6536
  170SOPE  H17Y19274   6.176   3.353   8.495  1.7329  0.0445 -0.1542
  170SOPE  C31819275   6.062   3.345   8.303  0.2240 -0.6091  0.2919
  170SOPE  H18X19276   6.073   3.343   8.192  0.8942  1.5446  0.2636
  170SOPE  H18Y19277   5.998   3.434   8.320  0.3067 -0.2258 -1.2563
  170SOPE  H18Z19278   6.010   3.253   8.338 -1.0351  0.3042  0.8848
  171SOPE     N19279   5.503   0.970   6.414  0.6473  0.4649  0.3038
  171SOPE   HN119280   5.456   0.944   6.325 -0.2525  1.8312  0.3638
  171SOPE   HN219281   5.505   1.073   6.408 -0.1829  0.4156 -3.0217
  171SOPE   HN319282   5.602   0.944   6.394  0.6881  1.9611 -1.7971
  171SOPE   C1219283   5.436   0.920   6.537 -0.1285 -0.5310  0.3771
  171SOPE  H12A19284   5.344   0.981   6.550  1.0289  0.8480  2.8825
  171SOPE  H12B19285   5.502   0.952   6.621 -1.8657 -1.3590  2.1485
  171SOPE   C1119286   5.423   0.765   6.542 -0.1631 -0.0251 -0.1590
  171SOPE  H11A19287   5.335   0.741   6.606 -0.6276  1.1528 -0.3343
  171SOPE  H11B19288   5.518   0.722   6.581  0.0685 -0.9021 -1.6235
  171SOPE     P19289   5.338   0.561   6.407 -0.1888 -0.5924 -0.2925
  171SOPE   O1319290   5.407   0.477   6.307  0.4817  0.4846 -0.2085
  171SOPE   O1419291   5.200   0.593   6.380  0.4658 -0.8207 -0.0934
  171SOPE   O1219292   5.413   0.701   6.412 -0.1947  0.5719  0.4697
  171SOPE   O1119293   5.358   0.513   6.556  0.0834  0.6200 -0.0184
  171SOPE    C119294   5.273   0.403   6.600 -0.0838 -0.3620 -0.0361
  171SOPE    HA19295   5.311   0.340   6.683 -1.6977  1.1369  1.9504
  171SOPE    HB19296   5.262   0.336   6.512  1.7942  1.8549 -2.0857
  171SOPE    C219297   5.130   0.445   6.652  0.4449  0.6407  0.2350
  171SOPE    HS19298   5.060   0.470   6.570 -0.5550  2.1848  1.5006
  171SOPE   O2119299   5.148   0.559   6.737 -0.5194  0.3967  0.8419
  171SOPE   C2119300   5.050   0.641   6.747  0.1250  0.3310  1.0139
  171SOPE   O2219301   4.941   0.628   6.692 -0.2893  0.1016 -0.3444
  171SOPE   C2219302   5.097   0.752   6.845  0.2167 -0.1447  0.3631
  171SOPE   H2R19303   5.103   0.846   6.785 -1.5517  0.0695  0.4470
  171SOPE   H2S19304   5.201   0.732   6.878  1.3091  0.6636 -2.3484
  171SOPE    C319305   5.059   0.334   6.733  0.7649 -0.0491 -0.0967
  171SOPE    HX19306   5.061   0.240   6.674 -0.8808 -0.8472  1.0299
  171SOPE    HY19307   4.954   0.369   6.745  2.0202  4.4742 -0.1988
  171SOPE   O3119308   5.124   0.316   6.861  0.1699  0.5961  0.5906
  171SOPE   C3119309   5.058   0.239   6.947 -0.8145  0.4679  0.0854
  171SOPE   O3219310   4.962   0.167   6.921 -0.5042 -0.0879  0.1400
  171SOPE   C3219311   5.135   0.228   7.075 -0.1383 -0.1254  0.3505
  171SOPE   H2X19312   5.212   0.308   7.083  0.9442 -0.9547 -1.2505
  171SOPE   H2Y19313   5.196   0.136   7.083 -1.1372 -0.6835  1.9732
  171SOPE   C2319314   5.001   0.748   6.970  0.4079  0.3540  0.1350
  171SOPE   H3R19315   5.016   0.648   7.016 -2.0010 -0.1168  0.0280
  171SOPE   H3S19316   4.906   0.760   6.914 -1.2833 -1.8021  2.2924
  171SOPE   C2419317   5.025   0.868   7.056  0.5501 -0.7690 -1.1878
  171SOPE   H4R19318   5.124   0.859   7.107  0.0871  1.9304  0.4060
  171SOPE   H4S19319   5.011   0.956   6.990  1.2001 -0.3018 -0.7112
  171SOPE   C2519320   4.926   0.882   7.178  0.2913  0.1358  0.1902
  171SOPE   H5R19321   4.823   0.871   7.136  0.3126 -2.8272  0.6887
  171SOPE   H5S19322   4.939   0.793   7.243  0.6742 -0.1574 -0.2782
  171SOPE   C2619323   4.951   1.009   7.253 -0.4990 -0.6257 -0.0112
  171SOPE   H6R19324   5.051   1.005   7.301 -0.5834  1.6283  0.4820
  171SOPE   H6S19325   4.943   1.104   7.196  0.5057 -0.5683 -0.0675
  171SOPE   C2719326   4.850   1.029   7.368 -0.0605 -0.2899 -0.4525
  171SOPE   H7R19327   4.744   1.023   7.333 -0.0922 -2.0676 -0.1749
  171SOPE   H7S19328   4.862   0.944   7.438 -0.3687  2.2911  2.9874
  171SOPE   C2819329   4.869   1.153   7.451  0.1221  0.0997 -0.2956
  171SOPE   H8R19330   4.972   1.162   7.492  0.3010 -0.0720 -0.6992
  171SOPE   H8S19331   4.866   1.246   7.390  2.3312  1.8744  2.0819
  171SOPE   C2919332   4.767   1.181   7.560  0.1158 -0.2507 -0.2691
  171SOPE   H9119333   4.665   1.210   7.531  0.4364  0.3680 -0.8067
  171SOPE  C21019334   4.790   1.168   7.690  0.5696 -0.3217 -0.4962
  171SOPE  H10119335   4.714   1.195   7.764  1.1491 -0.6955  0.2462
  171SOPE  C21119336   4.917   1.127   7.757 -0.0381 -0.6576  0.6171
  171SOPE  H11R19337   5.005   1.130   7.689 -0.8255  2.0583 -0.4220
  171SOPE  H11S19338   4.914   1.021   7.789 -0.1399 -0.9488 -0.3194
  171SOPE  C21219339   4.942   1.228   7.866 -0.1191 -0.1702 -0.3163
  171SOPE  H12R19340   4.881   1.209   7.956  1.9653  1.3361  1.5508
  171SOPE  H12S19341   4.932   1.329   7.820  1.1481 -0.9580 -2.4666
  171SOPE  C21319342   5.090   1.211   7.927  0.0779 -0.5130 -0.5946
  171SOPE  H13R19343   5.168   1.199   7.849 -1.5022  0.7146 -2.4477
  171SOPE  H13S19344   5.086   1.118   7.988 -1.3859 -0.6641 -0.8833
  171SOPE  C21419345   5.116   1.327   8.019 -1.1532 -0.2950  0.3660
  171SOPE  H14R19346   5.042   1.340   8.101 -0.1644 -1.8750  1.5652
  171SOPE  H14S19347   5.114   1.420   7.959 -1.7370 -2.0917 -2.6012
  171SOPE  C21519348   5.263   1.333   8.083  0.8735  0.1025  0.1581
  171SOPE  H15R19349   5.270   1.423   8.148  0.1113 -0.7783  1.5184
  171SOPE  H15S19350   5.349   1.327   8.014  0.6329 -1.1457 -0.0538
  171SOPE  C21619351   5.290   1.224   8.186  0.2035  0.7602 -0.6559
  171SOPE  H16R19352   5.280   1.127   8.133 -3.9412 -0.0442  1.1892
  171SOPE  H16S19353   5.213   1.232   8.266 -1.8727  2.0785 -2.6681
  171SOPE  C21719354   5.431   1.226   8.244 -0.5390 -0.7278 -0.1721
  171SOPE  H17R19355   5.458   1.332   8.258  0.5130 -1.0662  0.4712
  171SOPE  H17S19356   5.492   1.171   8.169 -0.8190  0.1449 -1.0646
  171SOPE  C21819357   5.449   1.149   8.376 -0.2352  0.3519 -0.1077
  171SOPE  H18R19358   5.554   1.165   8.407  0.1541  0.1269 -1.2474
  171SOPE  H18S19359   5.409   1.046   8.360 -1.8187  1.0918 -1.2022
  171SOPE  H18T19360   5.381   1.201   8.447  0.0695 -0.2603  0.6398
  171SOPE   C3319361   5.057   0.237   7.209  0.1094  0.2888 -0.1420
  171SOPE   H3X19362   4.961   0.290   7.195  0.1837  0.3173 -0.5319
  171SOPE   H3Y19363   5.128   0.283   7.282  1.8512 -3.2465  0.6195
  171SOPE   C3419364   5.031   0.097   7.265  0.2236 -0.5203  0.6985
  171SOPE   H4X19365   5.121   0.049   7.308  0.4004 -0.9639 -0.1372
  171SOPE   H4Y19366   4.992   0.027   7.187 -0.0609 -1.6172  1.7901
  171SOPE   C3519367   4.925   0.098   7.379 -0.3545  0.1329  0.9033
  171SOPE   H5X19368   4.875  -0.000   7.372 -1.0117  0.5477 -0.5572
  171SOPE   H5Y19369   4.853   0.180   7.360  0.7836  0.7259 -1.1946
  171SOPE   C3619370   5.002   0.110   7.512  0.6239 -0.0580 -0.7154
  171SOPE   H6X19371   5.071   0.196   7.501 -0.8343  1.3630  0.7269
  171SOPE   H6Y19372   5.059   0.018   7.538 -2.0103 -1.2788  1.2076
  171SOPE   C3719373   4.908   0.140   7.627 -0.4248  0.1217 -0.0086
  171SOPE   H7X19374   4.864   0.041   7.653  2.1479 -1.5950 -1.7238
  171SOPE   H7Y19375   4.826   0.203   7.586 -3.0584 -1.9893  1.5819
  171SOPE   C3819376   4.983   0.209   7.738 -0.6535 -0.4639  0.2037
  171SOPE   H8X19377   5.015   0.311   7.706  1.4187 -0.3318  2.4343
  171SOPE   H8Y19378   5.076   0.153   7.759  0.6983  1.1879 -1.0616
  171SOPE   C3919379   4.895   0.233   7.855  0.5031 -0.5504 -0.7739
  171SOPE   H9X19380   4.857   0.136   7.895 -0.1321 -0.1246 -0.3120
  171SOPE   H9Y19381   4.801   0.287   7.829 -0.0171 -0.6395  0.7922
  171SOPE  C31019382   4.968   0.297   7.972  0.1275 -0.4703 -1.1358
  171SOPE  H10X19383   5.036   0.375   7.931  2.8732 -1.4281  1.2403
  171SOPE  H10Y19384   5.039   0.216   8.000 -1.2687 -1.3782 -0.0485
  171SOPE  C31119385   4.885   0.342   8.085 -0.0771 -0.5325  0.2257
  171SOPE  H11X19386   4.812   0.264   8.116  0.1757 -0.4349  1.0938
  171SOPE  H11Y19387   4.823   0.433   8.067 -1.1182 -1.5968 -1.8226
  171SOPE  C31219388   4.984   0.374   8.199  0.6736 -0.0454  0.1154
  171SOPE  H12X19389   5.048   0.455   8.157  0.6847  0.2082  0.6229
  171SOPE  H12Y19390   5.053   0.290   8.222 -0.8676 -1.6998 -0.9755
  171SOPE  C31319391   4.914   0.419   8.330  0.2759 -0.7219  0.1449
  171SOPE  H13X19392   4.844   0.344   8.371 -2.4910  2.3079  1.4246
  171SOPE  H13Y19393   4.854   0.511   8.312 -1.0827 -0.7976  3.6397
  171SOPE  C31419394   5.018   0.465   8.432 -0.3817 -0.5022 -0.3979
  171SOPE  H14X19395   5.075   0.541   8.374 -2.5068  0.7616 -0.9354
  171SOPE  H14Y19396   5.092   0.387   8.462  2.3900  1.7729 -0.8429
  171SOPE  C31519397   4.957   0.504   8.568  0.4125 -0.0321 -0.0453
  171SOPE  H15X19398   4.855   0.544   8.546  1.4480  2.6474 -0.3591
  171SOPE  H15Y19399   5.018   0.589   8.605 -0.5484 -0.3867  2.5378
  171SOPE  C31619400   4.949   0.385   8.669 -0.5236  0.5470 -0.7338
  171SOPE  H16X19401   5.049   0.336   8.677 -0.4688  0.7408 -0.1944
  171SOPE  H16Y19402   4.877   0.310   8.627 -1.5032  1.1975 -0.2431
  171SOPE  C31719403   4.909   0.423   8.813 -0.0048 -0.1598  0.2363
  171SOPE  H17X19404   4.897   0.335   8.881  2.2293 -0.9486 -0.3129
  171SOPE  H17Y19405   4.806   0.461   8.828  0.4986  2.1012 -1.6120
  171SOPE  C31819406   5.010   0.518   8.883  0.3141  0.1991 -0.4651
  171SOPE  H18X19407   5.112   0.486   8.853  0.1363 -0.2927 -0.5512
  171SOPE  H18Y19408   4.991   0.517   8.993  3.6731 -0.4630  0.2105
  171SOPE  H18Z19409   4.999   0.624   8.851 -1.3636 -0.2922 -1.6583
  172SOPE     N19410   0.549   0.164   6.447  0.2600 -0.2578 -0.1339
  172SOPE   HN119411   0.554   0.134   6.546 -0.7788  1.8138  0.6067
  172SOPE   HN219412   0.622   0.101   6.408  0.2866 -1.5351  1.8621
  172SOPE   HN319413   0.568   0.266   6.446 -2.2016  0.4371  3.7905
  172SOPE   C1219414   0.422   0.140   6.382  0.0028 -0.3839  0.4638
  172SOPE  H12A19415   0.382   0.039   6.407  1.1921 -1.1025 -0.4288
  172SOPE  H12B19416   0.434   0.151   6.272  0.2308  0.9533  0.6012
  172SOPE   C1119417   0.321   0.244   6.425  0.6298 -0.5521  0.1642
  172SOPE  H11A19418   0.292   0.232   6.532 -2.2974  2.2484 -0.1434
  172SOPE  H11B19419   0.232   0.213   6.366  0.3535 -0.7617  0.6831
  172SOPE     P19420   0.256   0.489   6.388 -0.1162  0.1747 -0.1275
  172SOPE   O1319421   0.153   0.444   6.287  0.5839 -0.6762  0.0822
  172SOPE   O1419422   0.313   0.621   6.359  0.1780 -0.6311  0.0452
  172SOPE   O1219423   0.364   0.372   6.397  0.2584  0.0148  0.6385
  172SOPE   O1119424   0.195   0.492   6.532 -0.6645  0.2545 -0.2381
  172SOPE    C119425   0.269   0.535   6.641 -0.1444 -0.6475 -0.3259
  172SOPE    HA19426   0.369   0.572   6.609 -0.3856 -0.4607 -0.8650
  172SOPE    HB19427   0.283   0.451   6.713 -2.7514 -1.1567 -0.3324
  172SOPE    C219428   0.190   0.646   6.722  0.4904  0.6827 -0.4902
  172SOPE    HS19429   0.257   0.688   6.801 -0.8387  0.1582  0.9764
  172SOPE   O2119430   0.071   0.584   6.784  0.0490  0.2678 -0.0160
  172SOPE   C2119431   0.089   0.500   6.886 -0.8108 -0.7310 -0.4362
  172SOPE   O2219432   0.195   0.470   6.941 -0.3407 -0.4565  0.1244
  172SOPE   C2219433  -0.052   0.455   6.935 -0.0092  0.2996 -0.4656
  172SOPE   H2R19434  -0.032   0.380   7.014 -2.6268 -1.2807 -1.1580
  172SOPE   H2S19435  -0.106   0.406   6.851  0.2099  0.1294 -0.5091
  172SOPE    C319436   0.144   0.770   6.642  0.6741 -0.0439 -0.1595
  172SOPE    HX19437   0.058   0.728   6.585 -0.7092 -0.1877  1.9271
  172SOPE    HY19438   0.223   0.792   6.567  1.6362 -0.6894  0.6424
  172SOPE   O3119439   0.101   0.886   6.720  0.3026  0.0750 -0.0589
  172SOPE   C3119440   0.195   0.975   6.747  0.0782 -0.1787  0.4650
  172SOPE   O3219441   0.315   0.964   6.733 -0.0605  0.0334  0.4073
  172SOPE   C3219442   0.117   1.087   6.823  0.2852  0.0571  0.0688
  172SOPE   H2X19443   0.009   1.088   6.796 -0.2506 -1.1391  1.9716
  172SOPE   H2Y19444   0.164   1.185   6.798  0.1933  0.6452  2.0540
  172SOPE   C2319445  -0.144   0.565   6.990 -0.2469 -0.0112  0.8816
  172SOPE   H3R19446  -0.246   0.545   6.951 -0.3021  0.0176  1.0096
  172SOPE   H3S19447  -0.111   0.667   6.959  1.0805 -0.3480  1.1193
  172SOPE   C2419448  -0.148   0.571   7.147 -0.3510  0.1900  0.0276
  172SOPE   H4R19449  -0.190   0.474   7.182  1.3297 -0.2277  0.9372
  172SOPE   H4S19450  -0.041   0.585   7.170 -0.4414  2.3421 -0.6434
  172SOPE   C2519451  -0.235   0.680   7.207 -0.4271 -0.4740  0.3267
  172SOPE   H5R19452  -0.205   0.778   7.164 -1.7651  0.0240  0.4761
  172SOPE   H5S19453  -0.343   0.668   7.181 -0.6505  1.7796  0.0438
  172SOPE   C2619454  -0.234   0.686   7.358 -0.1781 -0.5467 -0.8815
  172SOPE   H6R19455  -0.278   0.587   7.384 -1.9433  0.3419 -0.2643
  172SOPE   H6S19456  -0.125   0.689   7.377 -0.4562 -0.6671  0.9524
  172SOPE   C2719457  -0.299   0.796   7.441  0.4177 -0.4974  0.3949
  172SOPE   H7R19458  -0.238   0.887   7.419  0.9492 -0.7596  0.7565
  172SOPE   H7S19459  -0.406   0.809   7.416  0.7528  0.1850 -0.7439
  172SOPE   C2819460  -0.287   0.766   7.592  0.4925 -0.2914  0.1985
  172SOPE   H8R19461  -0.350   0.677   7.609  1.9157 -1.4426 -0.3541
  172SOPE   H8S19462  -0.188   0.725   7.623  0.1554 -0.7659  0.6620
  172SOPE   C2919463  -0.340   0.877   7.681  0.1522  0.1698  0.6104
  172SOPE   H9119464  -0.378   0.959   7.618  0.5408  0.8492  1.2360
  172SOPE  C21019465  -0.326   0.870   7.815 -0.0504 -1.0095  0.3365
  172SOPE  H10119466  -0.377   0.952   7.867  1.8744  0.7689 -0.4046
  172SOPE  C21119467  -0.263   0.749   7.888 -0.1394 -0.5647  0.5584
  172SOPE  H11R19468  -0.172   0.784   7.940  1.1242 -1.0254 -1.2421
  172SOPE  H11S19469  -0.220   0.676   7.816  1.0582  1.6429 -1.1067
  172SOPE  C21219470  -0.342   0.665   7.985  0.4611  0.3846 -0.2997
  172SOPE  H12R19471  -0.292   0.567   8.000  0.7520 -0.0653 -3.5143
  172SOPE  H12S19472  -0.439   0.628   7.945 -0.4523  0.6795  1.5429
  172SOPE  C21319473  -0.369   0.725   8.120 -0.8760  0.4921 -0.3570
  172SOPE  H13R19474  -0.435   0.815   8.123 -2.6325 -0.7644 -0.0347
  172SOPE  H13S19475  -0.272   0.762   8.160 -1.4115  1.5125  0.0509
  172SOPE  C21419476  -0.442   0.625   8.211 -0.2751  0.3391  0.5743
  172SOPE  H14R19477  -0.398   0.524   8.196  0.0030  0.7085 -1.3238
  172SOPE  H14S19478  -0.548   0.607   8.183 -0.2573  2.3193 -1.0501
  172SOPE  C21519479  -0.445   0.667   8.364 -0.6857 -0.8196 -0.1267
  172SOPE  H15R19480  -0.413   0.774   8.370 -0.9188 -0.7730  0.3596
  172SOPE  H15S19481  -0.365   0.600   8.402  1.5390  0.7794 -1.7085
  172SOPE  C21619482  -0.570   0.639   8.440 -0.2116  0.6557  0.0366
  172SOPE  H16R19483  -0.593   0.531   8.430  0.2079  0.5041  0.7357
  172SOPE  H16S19484  -0.657   0.697   8.399 -1.4055  0.0724  1.6428
  172SOPE  C21719485  -0.556   0.681   8.587 -0.1685 -0.1883  0.2419
  172SOPE  H17R19486  -0.541   0.791   8.590 -1.9673  0.1284 -0.6752
  172SOPE  H17S19487  -0.464   0.635   8.628 -0.2016 -0.4960 -0.0196
  172SOPE  C21819488  -0.683   0.639   8.666 -0.5845 -0.0755  0.2105
  172SOPE  H18R19489  -0.768   0.710   8.661  0.4787  1.3479  1.4021
  172SOPE  H18S19490  -0.665   0.631   8.775 -1.9419 -2.5786  0.3285
  172SOPE  H18T19491  -0.703   0.535   8.632 -0.3516 -0.1342  0.2508
  172SOPE   C3319492   0.129   1.064   6.974 -0.7154 -0.2775 -0.7515
  172SOPE   H3X19493   0.076   1.141   7.034  0.4253 -0.5478  0.6627
  172SOPE   H3Y19494   0.235   1.089   6.992 -1.3501  1.1190  1.3248
  172SOPE   C3419495   0.089   0.918   7.010 -0.1828 -0.3601 -0.6707
  172SOPE   H4X19496   0.157   0.844   6.964 -1.2044 -2.6810  1.3322
  172SOPE   H4Y19497  -0.015   0.894   6.976 -0.2896 -0.4376 -0.2899
  172SOPE   C3519498   0.089   0.887   7.164 -0.0201  0.6745  0.4337
  172SOPE   H5X19499   0.078   0.777   7.161  2.5814  0.3311  1.0777
  172SOPE   H5Y19500   0.002   0.943   7.204  0.1388  0.8183  0.5782
  172SOPE   C3619501   0.219   0.917   7.240  0.3838 -0.4177 -0.1159
  172SOPE   H6X19502   0.286   0.977   7.174 -0.8618  1.2121  0.0344
  172SOPE   H6Y19503   0.273   0.822   7.260  0.2678 -0.1903  1.3632
  172SOPE   C3719504   0.195   0.993   7.369 -0.0584 -0.5250  0.1786
  172SOPE   H7X19505   0.129   1.082   7.356  0.6110 -0.1703 -0.9139
  172SOPE   H7Y19506   0.290   1.039   7.402 -0.9884 -0.8747  3.7328
  172SOPE   C3819507   0.140   0.910   7.481 -0.4870 -0.2584  0.6139
  172SOPE   H8X19508   0.215   0.834   7.513 -0.4498 -0.6067 -0.2954
  172SOPE   H8Y19509   0.055   0.848   7.445 -1.2033  1.1916 -0.2739
  172SOPE   C3919510   0.099   1.003   7.599 -0.5240  0.3285  0.2901
  172SOPE   H9X19511   0.035   1.085   7.558 -0.0751  0.6164  0.1637
  172SOPE   H9Y19512   0.189   1.053   7.642  0.4353 -1.3606  0.3200
  172SOPE  C31019513   0.019   0.925   7.706  0.4694 -0.0335  0.2948
  172SOPE  H10X19514  -0.045   0.858   7.645  1.2129  1.6379 -2.4909
  172SOPE  H10Y19515  -0.043   0.993   7.769 -1.0726 -0.4924 -0.6895
  172SOPE  C31119516   0.112   0.842   7.797  0.3211 -0.1159 -0.1210
  172SOPE  H11X19517   0.175   0.777   7.733 -0.9635  0.4778 -2.1175
  172SOPE  H11Y19518   0.038   0.775   7.845 -0.2133 -1.0121 -2.0855
  172SOPE  C31219519   0.184   0.931   7.902  0.1316  0.0784  0.5652
  172SOPE  H12X19520   0.122   1.007   7.953 -0.0039  0.1688  0.2683
  172SOPE  H12Y19521   0.268   0.974   7.843  0.2549 -0.6451  0.2043
  172SOPE  C31319522   0.245   0.848   8.021 -0.3380  0.2356  0.7675
  172SOPE  H13X19523   0.318   0.771   7.986 -0.8934  0.4634 -0.9874
  172SOPE  H13Y19524   0.160   0.788   8.060 -0.5169 -0.1192 -0.1453
  172SOPE  C31419525   0.307   0.927   8.141  0.4730  0.5118  0.4532
  172SOPE  H14X19526   0.243   1.011   8.175 -2.0662 -0.3371 -1.8909
  172SOPE  H14Y19527   0.399   0.975   8.101  1.8268 -0.7405  1.9320
  172SOPE  C31519528   0.349   0.828   8.254 -0.6387 -0.6021  0.2604
  172SOPE  H15X19529   0.429   0.875   8.316  0.2585  0.4607 -1.6183
  172SOPE  H15Y19530   0.400   0.742   8.204 -1.8641 -1.5753  0.6300
  172SOPE  C31619531   0.248   0.766   8.348 -0.5278  0.8667  0.1700
  172SOPE  H16X19532   0.299   0.720   8.435 -1.1474 -2.1854 -0.9257
  172SOPE  H16Y19533   0.198   0.684   8.290 -0.4935 -0.7326  2.2855
  172SOPE  C31719534   0.132   0.851   8.395  0.1798  0.3490 -0.2078
  172SOPE  H17X19535   0.052   0.833   8.320 -1.7320 -0.1522  1.8561
  172SOPE  H17Y19536   0.164   0.957   8.404 -1.9123  0.9079  1.4287
  172SOPE  C31819537   0.085   0.806   8.534 -0.2228 -0.1973  0.1017
  172SOPE  H18X19538   0.168   0.825   8.605  0.5878  0.0883 -0.9080
  172SOPE  H18Y19539   0.070   0.696   8.529  1.1300 -0.5106  1.8260
  172SOPE  H18Z19540  -0.007   0.866   8.551 -1.1295 -1.4105 -0.3632
  173SAPI   C1219541   2.497   4.791  10.898  0.4503  0.3206  0.2079
  173SAPI    H219542   2.490   4.757  10.793  0.1048  1.0810 -0.0229
  173SAPI    O219543   2.367   4.781  10.952 -0.1723 -0.2640 -0.2927
  173SAPI   HO219544   2.330   4.869  10.945 -1.0514 -0.5534  0.6267
  173SAPI   C1319545   2.591   4.695  10.978 -0.0562  0.6819 -0.3949
  173SAPI    H319546   2.693   4.704  10.935  1.0105 -0.6309  1.7289
  173SAPI    O319547   2.553   4.556  10.970 -0.1013  0.3554 -0.1709
  173SAPI   HO319548   2.571   4.512  11.053 -1.7174  2.8178  1.6237
  173SAPI   C1419549   2.598   4.740  11.120 -0.7341 -0.3398  0.6887
  173SAPI    H419550   2.492   4.739  11.151 -0.8354  0.9920  0.4320
  173SAPI    O419551   2.681   4.658  11.204  0.7770 -0.0813  0.1143
  173SAPI   HO419552   2.636   4.649  11.288  2.4004  0.7135  1.1191
  173SAPI   C1519553   2.648   4.882  11.136  0.4465  0.3230 -0.8046
  173SAPI    H519554   2.752   4.881  11.097  0.4193  0.8486 -0.8891
  173SAPI    O519555   2.667   4.921  11.270  0.2488  0.6697  0.4830
  173SAPI   HO519556   2.725   4.997  11.277 -0.1426  1.0149  0.0626
  173SAPI   C1619557   2.554   4.974  11.059  0.4160  0.0088  0.6322
  173SAPI    H619558   2.455   4.977  11.109 -0.6419  2.5355 -1.3618
  173SAPI    O619559   2.598   5.108  11.070  0.5871  0.0069 -0.2113
  173SAPI   HO619560   2.621   5.145  10.984  0.5003  1.1617  0.2442
  173SAPI   C1119561   2.538   4.931  10.912 -0.0049 -0.0193  0.2113
  173SAPI    H119562   2.641   4.932  10.870 -0.3247 -0.7062 -0.6336
  173SAPI     P19563   2.508   5.144  10.747  0.0099 -0.1717  0.0559
  173SAPI   O1319564   2.627   5.207  10.811  0.4173  0.7761  0.0226
  173SAPI   O1419565   2.399   5.235  10.713  0.1678 -0.3945  0.2243
  173SAPI   O1219566   2.454   5.010  10.831  0.5549  0.1028  0.1067
  173SAPI   O1119567   2.565   5.079  10.614  0.1177 -0.1287  0.3656
  173SAPI    C119568   2.472   5.014  10.522 -0.2791 -0.2671 -0.7308
  173SAPI    HA19569   2.374   4.980  10.563  0.6303 -0.3325  1.4819
  173SAPI    HB19570   2.437   5.095  10.454 -0.9915  3.2345  3.4094
  173SAPI    C219571   2.533   4.888  10.456 -0.2144 -0.0253 -0.2698
  173SAPI    HS19572   2.550   4.824  10.546  2.2259  0.7845 -0.0713
  173SAPI   O2119573   2.662   4.933  10.403  0.4206  0.3690  0.1697
  173SAPI   C2119574   2.747   4.832  10.383 -1.0085  0.4053 -0.6674
  173SAPI   O2219575   2.723   4.712  10.388  0.1734  0.2024 -0.2083
  173SAPI   C2219576   2.888   4.886  10.346  0.7108 -0.3438  0.4133
  173SAPI   H2R19577   2.879   4.994  10.322 -1.3840  0.1237  2.9250
  173SAPI   H2S19578   2.953   4.880  10.436 -0.0847 -0.2910  1.0044
  173SAPI    C319579   2.439   4.814  10.357  0.2624  0.4392  0.0933
  173SAPI    HX19580   2.360   4.766  10.419  0.0323  2.3832  1.4172
  173SAPI    HY19581   2.497   4.733  10.309  4.2630  2.6113  0.8367
  173SAPI   O3119582   2.384   4.905  10.259 -0.0996 -0.2375  0.2607
  173SAPI   C3119583   2.373   4.860  10.135  0.6401  0.1298 -0.1326
  173SAPI   O3219584   2.390   4.746  10.098 -0.2932 -0.0112  0.3619
  173SAPI   C3219585   2.321   4.975  10.050 -0.3439 -1.0649 -0.0610
  173SAPI   H2X19586   2.411   5.037  10.031 -2.2712  1.4929 -1.3870
  173SAPI   H2Y19587   2.248   5.026  10.116  1.0564 -1.2166  1.7235
  173SAPI   C2319588   2.966   4.803  10.244  0.2873 -0.3634  0.2671
  173SAPI   H3R19589   2.961   4.696  10.272  2.3155 -1.3939 -2.8612
  173SAPI   H3S19590   3.074   4.826  10.248  0.6051 -1.9415  2.0490
  173SAPI   C2419591   2.917   4.835  10.092  0.0458  0.5544  0.1601
  173SAPI   H4R19592   2.973   4.768  10.023  1.1626  0.0134  1.5306
  173SAPI   H4S19593   2.950   4.933  10.053  0.2420  0.3930 -0.0782
  173SAPI   C2519594   2.769   4.810  10.070 -0.2116 -0.3097 -0.1841
  173SAPI   H5R19595   2.727   4.727  10.129 -0.6461  1.6587  2.4359
  173SAPI   C2619596   2.691   4.870   9.973 -0.5574  0.9304 -0.6647
  173SAPI   H6R19597   2.582   4.854   9.978 -0.3864  0.1501  3.1623
  173SAPI   C2719598   2.735   4.974   9.883  0.3738 -0.4892  0.1819
  173SAPI   H7R19599   2.779   4.927   9.792 -0.3522 -0.0121 -0.4313
  173SAPI   H7S19600   2.822   5.023   9.930 -0.0130  1.0619 -0.6630
  173SAPI   C2819601   2.625   5.075   9.825 -0.2651  0.2688  0.1281
  173SAPI   H8R19602   2.548   5.043   9.752  0.3237  0.9621 -0.8194
  173SAPI   C2919603   2.614   5.198   9.875  0.1406  0.5806 -0.4888
  173SAPI   H9R19604   2.540   5.265   9.828  0.0704  0.0381 -1.1651
  173SAPI  C21019605   2.701   5.256   9.987  0.5411  0.0638  0.2303
  173SAPI  H10R19606   2.684   5.366   9.996  0.0679  0.0368 -0.2934
  173SAPI  H10S19607   2.809   5.262   9.960 -0.0574  0.4656 -2.4034
  173SAPI  C21119608   2.683   5.198  10.124 -0.0287  0.3423 -0.1101
  173SAPI  H11R19609   2.761   5.131  10.165 -1.9761 -0.8570  1.9136
  173SAPI  C21219610   2.577   5.220  10.212  0.4369  1.0234 -0.1510
  173SAPI  H12R19611   2.569   5.159  10.303  0.7497  1.5145  0.2135
  173SAPI  C21319612   2.455   5.309  10.186 -0.1838  0.8361  0.1541
  173SAPI  H13R19613   2.372   5.279  10.254  1.1810 -0.4064  1.3415
  173SAPI  H13S19614   2.421   5.301  10.080  0.7250  3.5178 -0.4165
  173SAPI  C21419615   2.486   5.453  10.207 -0.9087 -0.5429 -0.2752
  173SAPI  H14R19616   2.563   5.471  10.283  0.1760  0.4343 -1.5437
  173SAPI  C21519617   2.421   5.557  10.148  0.1493 -0.0918 -0.1593
  173SAPI  H15R19618   2.459   5.658  10.168  0.8974 -0.1905 -1.0130
  173SAPI  C21619619   2.303   5.533  10.053 -0.0933  0.3279  0.3466
  173SAPI  H16R19620   2.237   5.622  10.045 -1.5410 -0.7317  0.0270
  173SAPI  H16S19621   2.248   5.440  10.078  1.4396 -0.3019  1.5357
  173SAPI  C21719622   2.352   5.514   9.900  0.2249 -0.3159 -0.2418
  173SAPI  H17R19623   2.441   5.447   9.898  0.4027 -0.1050  0.4997
  173SAPI  H17S19624   2.385   5.606   9.848  0.9232 -0.3863  0.0715
  173SAPI  C21819625   2.239   5.437   9.817  0.2959 -0.4920  0.5982
  173SAPI  H18R19626   2.168   5.520   9.800  0.7345 -0.2571 -0.1540
  173SAPI  H18S19627   2.193   5.362   9.885  0.7774 -1.7937 -0.4495
  173SAPI  C21919628   2.285   5.372   9.682 -0.3259  0.1624 -0.1639
  173SAPI  H19R19629   2.188   5.357   9.630 -1.3386  1.4108  1.2739
  173SAPI  H19S19630   2.328   5.276   9.716  0.5592  0.6527  0.1316
  173SAPI  C22019631   2.378   5.460   9.600  1.1021  0.4037 -1.0911
  173SAPI  H20R19632   2.379   5.423   9.495 -2.8148 -4.8875  0.2925
  173SAPI  H20S19633   2.483   5.455   9.635  1.8675  1.1885 -3.1017
  173SAPI  H20T19634   2.343   5.565   9.603  1.5980  0.5869 -1.6354
  173SAPI   C3319635   2.266   4.921   9.919 -0.9972  0.8534  0.5755
  173SAPI   H3X19636   2.181   4.857   9.949  0.7324 -1.3054  1.1814
  173SAPI   H3Y19637   2.330   4.842   9.874  1.0652  2.5212  0.4121
  173SAPI   C3419638   2.226   5.018   9.804 -0.7083 -0.2767 -0.2542
  173SAPI   H4X19639   2.309   5.080   9.763  0.8741 -0.5755  2.2758
  173SAPI   H4Y19640   2.144   5.081   9.844  0.8182  1.1653  0.7527
  173SAPI   C3519641   2.163   4.933   9.686 -0.4675 -0.2810  0.0779
  173SAPI   H5X19642   2.120   5.013   9.622  1.3193 -0.2961 -1.2125
  173SAPI   H5Y19643   2.085   4.865   9.725 -0.5236 -1.1312 -1.4312
  173SAPI   C3619644   2.269   4.863   9.598  0.3806 -0.1450  0.4761
  173SAPI   H6X19645   2.309   4.769   9.641 -1.2296 -0.7549  0.7083
  173SAPI   H6Y19646   2.357   4.930   9.586  1.2212 -0.5899  3.3715
  173SAPI   C3719647   2.196   4.824   9.470 -0.0668  0.2595 -0.4325
  173SAPI   H7X19648   2.164   4.919   9.422  0.6884  2.1945  2.5936
  173SAPI   H7Y19649   2.110   4.756   9.487 -0.2716  0.7564  0.6308
  173SAPI   C3819650   2.293   4.758   9.368 -0.1510 -0.4098 -0.6642
  173SAPI   H8X19651   2.337   4.670   9.419 -0.1755  0.4741  0.9251
  173SAPI   H8Y19652   2.373   4.834   9.355  0.5875 -0.7922  1.3691
  173SAPI   C3919653   2.231   4.728   9.233  0.2365 -0.2002  0.3482
  173SAPI   H9X19654   2.231   4.816   9.165  0.5207 -0.5188 -0.0650
  173SAPI   H9Y19655   2.125   4.696   9.237 -0.0604  0.6752 -0.0924
  173SAPI  C31019656   2.314   4.616   9.162 -0.6639 -0.4201  0.2579
  173SAPI  H10X19657   2.319   4.526   9.227 -0.4942  0.3255  1.3009
  173SAPI  H10Y19658   2.418   4.652   9.145 -0.0638 -1.3500  1.7519
  173SAPI  C31119659   2.270   4.571   9.021 -0.5911  0.1086  0.5965
  173SAPI  H11X19660   2.178   4.512   9.039 -0.5362  0.4852  2.3671
  173SAPI  H11Y19661   2.341   4.501   8.972  1.4114  0.6264  2.5581
  173SAPI  C31219662   2.248   4.694   8.927  0.2913 -0.5182 -0.1101
  173SAPI  H12X19663   2.170   4.767   8.958  0.2128  0.2783 -2.0299
  173SAPI  H12Y19664   2.219   4.649   8.829  0.6303  0.5977 -0.7422
  173SAPI  C31319665   2.381   4.767   8.899  0.1617  0.2487 -0.2317
  173SAPI  H13X19666   2.454   4.690   8.867 -0.5280 -0.0665 -1.0910
  173SAPI  H13Y19667   2.410   4.821   8.992  0.4407  1.7529 -1.1547
  173SAPI  C31419668   2.389   4.869   8.788 -0.4864 -0.4090 -0.7890
  173SAPI  H14X19669   2.389   4.820   8.688 -2.6152 -0.0548 -1.0175
  173SAPI  H14Y19670   2.487   4.921   8.794 -1.2130  0.9996 -0.6975
  173SAPI  C31519671   2.271   4.971   8.790 -0.1464 -0.0608 -0.1661
  173SAPI  H15X19672   2.179   4.911   8.772  0.1494 -0.1169 -1.6199
  173SAPI  H15Y19673   2.275   5.040   8.703 -1.0712 -1.4825 -1.3791
  173SAPI  C31619674   2.259   5.048   8.931  0.0204  0.0365 -0.0362
  173SAPI  H16X19675   2.355   5.093   8.963  0.0089  2.1291 -2.5448
  173SAPI  H16Y19676   2.223   4.972   9.003  1.4623  0.4617  1.1866
  173SAPI  C31719677   2.155   5.160   8.920 -0.1566  0.6820 -0.2801
  173SAPI  H17X19678   2.116   5.182   9.021  1.9729  2.5094  0.2425
  173SAPI  H17Y19679   2.068   5.143   8.853 -0.9248  2.9992  0.0289
  173SAPI  C31819680   2.228   5.290   8.869  0.3477  0.0328 -0.3143
  173SAPI  H18X19681   2.250   5.261   8.764  0.5473 -2.3244  0.3343
  173SAPI  H18Y19682   2.328   5.294   8.918  0.3104  1.6511 -0.3027
  173SAPI  H18Z19683   2.163   5.379   8.885 -1.3135 -1.5591  2.7747
  174SAPI   C1219684   6.347   5.731  10.790 -0.5538  0.2287 -0.1696
  174SAPI    H219685   6.376   5.653  10.717 -0.7568 -0.0476  0.0447
  174SAPI    O219686   6.473   5.765  10.855  0.3356  0.1153 -0.1311
  174SAPI   HO219687   6.529   5.687  10.861  1.6773  1.0718  0.3344
  174SAPI   C1319688   6.289   5.853  10.722 -0.2251  0.1326 -0.2850
  174SAPI    H319689   6.196   5.824  10.668  1.1141 -1.1127 -2.0506
  174SAPI    O319690   6.380   5.906  10.622  0.6556 -0.0641  0.1722
  174SAPI   HO319691   6.400   5.999  10.636  0.7032 -0.1578  0.7099
  174SAPI   C1419692   6.252   5.958  10.826 -0.6307  0.1912  0.0371
  174SAPI    H419693   6.338   5.994  10.885 -0.5669 -0.9008  0.6396
  174SAPI    O419694   6.195   6.074  10.770 -0.0503 -0.4810  0.8202
  174SAPI   HO419695   6.222   6.154  10.815  0.0645 -0.3469  0.5175
  174SAPI   C1519696   6.146   5.899  10.924  0.4809  0.0151  0.0209
  174SAPI    H519697   6.061   5.859  10.865  1.8025 -1.7935 -0.7401
  174SAPI    O519698   6.096   5.992  11.019  0.0114 -0.0358  0.7756
  174SAPI   HO519699   6.000   5.994  11.014  0.0451 -0.9856 -1.4191
  174SAPI   C1619700   6.193   5.769  11.000 -0.0655  0.3708  0.5460
  174SAPI    H619701   6.268   5.782  11.081  0.8890  0.7412 -0.3768
  174SAPI    O619702   6.077   5.719  11.064  0.1349 -0.0151  0.2722
  174SAPI   HO619703   6.106   5.677  11.145 -0.2758 -0.4739  0.1890
  174SAPI   C1119704   6.242   5.667  10.892 -0.3102  0.2841  0.2663
  174SAPI    H119705   6.157   5.643  10.824  1.4595 -0.2085 -1.9356
  174SAPI     P19706   6.216   5.399  10.926  0.4367 -0.1952 -0.0364
  174SAPI   O1319707   6.073   5.417  10.943  0.6642 -0.0574 -1.0624
  174SAPI   O1419708   6.271   5.284  11.002  0.1476  0.8650 -0.1648
  174SAPI   O1219709   6.299   5.540  10.955 -0.6302  0.1936 -0.3968
  174SAPI   O1119710   6.240   5.377  10.772 -0.2771 -0.1731  0.2800
  174SAPI    C119711   6.361   5.331  10.717  0.1083 -1.4049  0.1274
  174SAPI    HA19712   6.442   5.377  10.779  0.5400 -1.6659 -0.2371
  174SAPI    HB19713   6.379   5.222  10.731 -0.5248 -1.6598 -0.9691
  174SAPI    C219714   6.380   5.357  10.567 -0.3088  0.7783  0.0711
  174SAPI    HS19715   6.489   5.365  10.546  0.0221  2.3641  2.1103
  174SAPI   O2119716   6.301   5.471  10.523 -0.2068  0.8607 -0.3527
  174SAPI   C2119717   6.341   5.527  10.420  0.0270  0.0172 -0.1091
  174SAPI   O2219718   6.454   5.525  10.375 -0.3253 -0.5872  0.0743
  174SAPI   C2219719   6.222   5.600  10.356  0.6521  0.2277 -0.6460
  174SAPI   H2R19720   6.129   5.541  10.354  0.1187  0.8342  2.0390
  174SAPI   H2S19721   6.198   5.688  10.420  0.2230  0.0205 -0.5231
  174SAPI    C319722   6.334   5.234  10.485 -0.6636 -0.2170 -0.4574
  174SAPI    HX19723   6.228   5.226  10.519 -0.1021  0.2313  1.5482
  174SAPI    HY19724   6.385   5.140  10.514  0.1699  0.2567 -0.3500
  174SAPI   O3119725   6.334   5.257  10.349 -0.3371 -0.1277  0.1553
  174SAPI   C3119726   6.449   5.232  10.289  0.5268  0.3333  0.2159
  174SAPI   O3219727   6.548   5.184  10.343  0.7472  0.4784  0.1428
  174SAPI   C3219728   6.432   5.261  10.135  0.4117  0.2356 -0.5404
  174SAPI   H2X19729   6.490   5.350  10.101  1.6173 -1.1649 -2.3974
  174SAPI   H2Y19730   6.325   5.277  10.111  0.0238 -0.2746  0.7636
  174SAPI   C2319731   6.249   5.655  10.211  0.6524  0.0076 -0.3027
  174SAPI   H3R19732   6.238   5.564  10.147  0.2933  1.0904 -1.8324
  174SAPI   H3S19733   6.353   5.695  10.212  1.0542 -0.8565 -2.1233
  174SAPI   C2419734   6.141   5.762  10.165  0.5472 -0.6438 -0.5494
  174SAPI   H4R19735   6.126   5.832  10.250 -0.5382 -0.4788 -0.8541
  174SAPI   H4S19736   6.048   5.701  10.161  0.8387 -1.1599  0.3820
  174SAPI   C2519737   6.181   5.834  10.035 -0.8860  0.1454 -0.6274
  174SAPI   H5R19738   6.157   5.942  10.042 -0.5129  0.1204  2.6601
  174SAPI   C2619739   6.233   5.782   9.920  1.3541 -0.4010 -0.4276
  174SAPI   H6R19740   6.246   5.845   9.830 -1.4748  1.3696  0.2647
  174SAPI   C2719741   6.279   5.642   9.886 -0.1374 -0.8114  0.4175
  174SAPI   H7R19742   6.229   5.557   9.937  0.4068 -1.5672 -0.2732
  174SAPI   H7S19743   6.387   5.632   9.910 -0.1326 -2.6189 -0.1791
  174SAPI   C2819744   6.263   5.608   9.733  0.3638 -0.8184 -0.3538
  174SAPI   H8R19745   6.171   5.562   9.694  0.1694 -0.9055  0.1983
  174SAPI   C2919746   6.355   5.646   9.642 -0.4631 -0.0342  0.9143
  174SAPI   H9R19747   6.342   5.617   9.537  1.2214  1.2271  0.3044
  174SAPI  C21019748   6.480   5.724   9.668 -0.4537 -0.4898  0.2949
  174SAPI  H10R19749   6.554   5.659   9.718 -0.2909  0.6092  1.5489
  174SAPI  H10S19750   6.455   5.800   9.745  0.3749 -1.0056  1.0840
  174SAPI  C21119751   6.533   5.790   9.540 -0.1675 -0.1752  0.1428
  174SAPI  H11R19752   6.504   5.896   9.537  1.5522  0.3067 -0.2308
  174SAPI  C21219753   6.609   5.739   9.442  0.3188  1.1940  0.4683
  174SAPI  H12R19754   6.645   5.801   9.358  2.1429 -0.5191 -0.0890
  174SAPI  C21319755   6.655   5.600   9.423  0.4301  0.1768 -0.8794
  174SAPI  H13R19756   6.656   5.541   9.517 -1.1037 -2.2532 -2.2825
  174SAPI  H13S19757   6.763   5.591   9.398  1.0669 -0.6557  1.8186
  174SAPI  C21419758   6.568   5.526   9.325 -0.3502  0.4239 -0.1741
  174SAPI  H14R19759   6.477   5.491   9.375 -0.4656  1.6111  0.4793
  174SAPI  C21519760   6.571   5.514   9.185  0.2740 -0.0457 -0.3959
  174SAPI  H15R19761   6.478   5.483   9.135 -0.0357  0.9794 -0.4872
  174SAPI  C21619762   6.683   5.564   9.099 -0.7087  0.0311 -0.9505
  174SAPI  H16R19763   6.756   5.485   9.070  0.4529  0.2761  1.1299
  174SAPI  H16S19764   6.745   5.635   9.157  1.7056 -3.1079  0.6055
  174SAPI  C21719765   6.626   5.632   8.978 -0.4950  0.1253 -0.0152
  174SAPI  H17R19766   6.701   5.701   8.933  0.2706  0.0179  1.0429
  174SAPI  H17S19767   6.544   5.690   9.028 -1.2381  0.7155 -1.8393
  174SAPI  C21819768   6.574   5.540   8.873 -0.0415 -0.0110  0.4409
  174SAPI  H18R19769   6.622   5.441   8.885  1.0143  0.4042 -0.2282
  174SAPI  H18S19770   6.614   5.574   8.775  2.9953 -1.3703  1.1060
  174SAPI  C21919771   6.422   5.544   8.873  0.3060 -0.1042  0.1522
  174SAPI  H19R19772   6.383   5.534   8.977  1.0207 -1.1518  0.3371
  174SAPI  H19S19773   6.403   5.441   8.835  0.3115  0.1246 -0.4848
  174SAPI  C22019774   6.357   5.658   8.793  0.1872 -0.4209  0.3230
  174SAPI  H20R19775   6.377   5.760   8.832  0.3859 -1.3586  2.8103
  174SAPI  H20S19776   6.246   5.652   8.798  0.1537 -0.9987 -0.8230
  174SAPI  H20T19777   6.392   5.654   8.687 -0.6388 -3.6443  0.0592
  174SAPI   C3319778   6.483   5.155  10.034 -0.0938  0.5651  0.3945
  174SAPI   H3X19779   6.410   5.071  10.037 -1.2026  1.4954  0.3663
  174SAPI   H3Y19780   6.586   5.121  10.058  0.6249  2.1901 -0.2325
  174SAPI   C3419781   6.486   5.217   9.894 -0.3074 -0.2016 -0.3981
  174SAPI   H4X19782   6.573   5.285   9.890 -1.7707  2.1791  3.1505
  174SAPI   H4Y19783   6.400   5.285   9.878 -1.3614 -1.4319 -0.1413
  174SAPI   C3519784   6.521   5.108   9.784  0.1622  0.0582  0.3101
  174SAPI   H5X19785   6.458   5.019   9.805  1.4795 -0.5137  2.0968
  174SAPI   H5Y19786   6.625   5.071   9.794 -0.2364 -1.3112 -0.4109
  174SAPI   C3619787   6.489   5.162   9.647 -0.4540  0.1457  0.0495
  174SAPI   H6X19788   6.505   5.271   9.632  0.6447 -0.0499 -0.3166
  174SAPI   H6Y19789   6.379   5.153   9.638 -0.6796  3.1623 -1.6164
  174SAPI   C3719790   6.559   5.084   9.532  0.4038 -0.0859  0.3152
  174SAPI   H7X19791   6.519   4.981   9.515  4.7531 -1.7101 -1.5801
  174SAPI   H7Y19792   6.668   5.077   9.553  0.4058 -1.8073 -0.1320
  174SAPI   C3819793   6.553   5.165   9.393 -0.1540  0.2107 -0.0600
  174SAPI   H8X19794   6.611   5.259   9.410 -2.4166  1.4582  1.1591
  174SAPI   H8Y19795   6.450   5.186   9.358 -0.1804  1.7241  0.8411
  174SAPI   C3919796   6.635   5.082   9.286 -1.1253 -0.3102 -0.1979
  174SAPI   H9X19797   6.587   4.982   9.278  1.0630 -1.3544 -1.4075
  174SAPI   H9Y19798   6.738   5.076   9.327 -1.2088  1.5794  0.3995
  174SAPI  C31019799   6.649   5.155   9.153 -0.6261 -0.4027 -0.1800
  174SAPI  H10X19800   6.679   5.260   9.175 -1.2545 -0.5876  1.7795
  174SAPI  H10Y19801   6.550   5.153   9.103 -2.2309  0.6667  2.6756
  174SAPI  C31119802   6.751   5.093   9.063  0.4865 -0.2143 -0.3895
  174SAPI  H11X19803   6.710   4.993   9.038 -1.8544  0.4962  0.2513
  174SAPI  H11Y19804   6.848   5.079   9.115 -0.2899  1.8716  1.8950
  174SAPI  C31219805   6.775   5.175   8.933 -0.2706 -0.9271 -0.0950
  174SAPI  H12X19806   6.814   5.276   8.958 -1.1809 -0.0707 -1.9225
  174SAPI  H12Y19807   6.684   5.206   8.878 -0.6957  1.8074  1.9449
  174SAPI  C31319808   6.874   5.104   8.843  0.2354 -0.3060  0.9650
  174SAPI  H13X19809   6.876   5.172   8.755 -0.4965  0.8668  1.8353
  174SAPI  H13Y19810   6.824   5.012   8.807  1.6151 -0.9951  0.7546
  174SAPI  C31419811   7.016   5.089   8.896  0.1290  0.3798 -0.4728
  174SAPI  H14X19812   7.012   5.004   8.967 -1.3709  0.1374 -0.8079
  174SAPI  H14Y19813   7.048   5.184   8.945 -3.0698  0.8323  1.0136
  174SAPI  C31519814   7.130   5.050   8.798 -0.3791  0.3191  0.3488
  174SAPI  H15X19815   7.105   4.962   8.735  2.4793  0.2776 -0.8602
  174SAPI  H15Y19816   7.226   5.023   8.846 -0.8801  0.1199  1.2644
  174SAPI  C31619817   7.165   5.167   8.700 -0.0746 -0.2783  0.8223
  174SAPI  H16X19818   7.161   5.265   8.751  1.1425  1.2664 -1.8888
  174SAPI  H16Y19819   7.078   5.178   8.632  1.1927  2.9595 -0.4684
  174SAPI  C31719820   7.289   5.152   8.605 -0.1129  0.3374  0.8211
  174SAPI  H17X19821   7.263   5.072   8.533  0.9857  1.0353 -0.3797
  174SAPI  H17Y19822   7.379   5.115   8.658  0.8514  1.6044  0.1345
  174SAPI  C31819823   7.317   5.284   8.526  1.1636 -0.4957  0.0887
  174SAPI  H18X19824   7.379   5.274   8.434 -0.8997 -0.8702 -1.3277
  174SAPI  H18Y19825   7.349   5.360   8.600  1.2610  1.1869 -1.5974
  174SAPI  H18Z19826   7.217   5.321   8.493  0.7836 -0.6560  1.0485
  175SAPI   C1219827   1.433   0.366   6.367  0.4654  0.8266  0.0223
  175SAPI    H219828   1.392   0.386   6.266  3.9512  0.7576 -1.5813
  175SAPI    O219829   1.319   0.335   6.452 -0.2648 -0.2920 -0.1193
  175SAPI   HO219830   1.271   0.266   6.405  0.1187 -4.3482  4.5765
  175SAPI   C1319831   1.525   0.246   6.350  0.3218  0.1536  0.2121
  175SAPI    H319832   1.602   0.278   6.277  0.0094 -1.5549 -0.9098
  175SAPI    O319833   1.468   0.134   6.280  0.3565  0.3038 -0.0809
  175SAPI   HO319834   1.396   0.102   6.335  0.7417 -0.3622  0.0517
  175SAPI   C1419835   1.580   0.212   6.488  0.3016  0.9242  0.2871
  175SAPI    H419836   1.489   0.191   6.548 -1.6329  3.5496 -1.5066
  175SAPI    O419837   1.665   0.090   6.481  0.1057  0.1625 -0.0624
  175SAPI   HO419838   1.686   0.053   6.566  0.1782 -1.1295 -0.6158
  175SAPI   C1519839   1.656   0.324   6.552  0.1434  0.3045  0.3758
  175SAPI    H519840   1.742   0.336   6.483  1.1250 -2.7969  0.9171
  175SAPI    O519841   1.702   0.276   6.677 -0.6875  0.1254 -0.0123
  175SAPI   HO519842   1.783   0.225   6.682 -0.1936  0.9186  0.3075
  175SAPI   C1619843   1.570   0.449   6.557 -0.6762  0.4218  0.4457
  175SAPI    H619844   1.493   0.433   6.635 -0.4402 -1.7576  0.2961
  175SAPI    O619845   1.657   0.555   6.608 -0.1042  0.4920 -0.0950
  175SAPI   HO619846   1.604   0.634   6.618  1.0463  1.2995 -0.2404
  175SAPI   C1119847   1.509   0.484   6.416 -0.1790  0.1336 -0.0171
  175SAPI    H119848   1.593   0.504   6.346 -0.0387 -1.0500 -0.2075
  175SAPI     P19849   1.466   0.744   6.405  0.3714  0.1186 -0.0879
  175SAPI   O1319850   1.351   0.822   6.368 -0.5976 -0.0243 -0.1238
  175SAPI   O1419851   1.575   0.752   6.310  0.4599 -0.5314  0.4263
  175SAPI   O1219852   1.415   0.589   6.425  0.0878 -0.6109  0.0174
  175SAPI   O1119853   1.515   0.788   6.549  0.3996  0.3852  0.1003
  175SAPI    C119854   1.423   0.814   6.655 -0.2128  0.2921  0.2322
  175SAPI    HA19855   1.322   0.820   6.611  0.2850 -1.5726 -1.2791
  175SAPI    HB19856   1.435   0.738   6.736 -0.8929  0.0709  0.1308
  175SAPI    C219857   1.439   0.954   6.720 -0.2459  0.0220  0.0007
  175SAPI    HS19858   1.344   0.988   6.767  0.0193  3.5588 -1.6533
  175SAPI   O2119859   1.491   1.039   6.618 -0.3098 -0.0131 -0.6542
  175SAPI   C2119860   1.460   1.168   6.634 -0.0292 -0.1288 -0.2730
  175SAPI   O2219861   1.394   1.218   6.721 -0.1839 -0.2166 -0.0137
  175SAPI   C2219862   1.536   1.242   6.526 -0.4522 -0.0684 -0.5942
  175SAPI   H2R19863   1.603   1.171   6.473  2.9237  1.6235  1.0985
  175SAPI   H2S19864   1.460   1.267   6.449 -2.2073  0.6798  1.3052
  175SAPI    C319865   1.543   0.950   6.847  0.5356  0.2719 -0.0400
  175SAPI    HX19866   1.541   1.055   6.883 -0.4739 -0.0908  1.0366
  175SAPI    HY19867   1.645   0.934   6.806  0.0815  1.9616 -1.9869
  175SAPI   O3119868   1.517   0.856   6.949  0.4436 -0.3571 -0.1669
  175SAPI   C3119869   1.422   0.891   7.036 -0.6591 -0.5208 -0.4626
  175SAPI   O3219870   1.362   0.999   7.034  0.8878 -0.3536  0.1941
  175SAPI   C3219871   1.389   0.778   7.131  0.1016  0.1507  0.0452
  175SAPI   H2X19872   1.482   0.728   7.165  0.3671  0.6203  0.0187
  175SAPI   H2Y19873   1.333   0.695   7.085  0.8081 -0.5461  0.4088
  175SAPI   C2319874   1.632   1.353   6.581 -0.0991 -0.1055 -0.4786
  175SAPI   H3R19875   1.584   1.408   6.664  0.6085 -0.9815  0.5387
  175SAPI   H3S19876   1.648   1.428   6.500 -2.6645 -0.9758 -1.9052
  175SAPI   C2419877   1.767   1.305   6.635  0.1895  0.0427  0.1792
  175SAPI   H4R19878   1.829   1.395   6.655 -1.8801  1.8420 -1.0120
  175SAPI   H4S19879   1.820   1.253   6.553  0.1848  2.5039 -1.4964
  175SAPI   C2519880   1.764   1.216   6.753  0.3261  0.4152  0.4944
  175SAPI   H5R19881   1.762   1.110   6.722  1.5536  0.5913 -0.2516
  175SAPI   C2619882   1.763   1.252   6.882 -0.9028  0.4945  0.2748
  175SAPI   H6R19883   1.758   1.164   6.947 -0.0156 -0.9032 -1.4842
  175SAPI   C2719884   1.755   1.393   6.942  0.3211  0.1472 -0.2007
  175SAPI   H7R19885   1.702   1.373   7.038  2.6698 -0.8695  0.9636
  175SAPI   H7S19886   1.694   1.455   6.873  1.1717  1.7833  0.4637
  175SAPI   C2819887   1.888   1.461   6.969 -0.1510  0.4311  0.2844
  175SAPI   H8R19888   1.943   1.486   6.877  0.9928  2.0962  1.3688
  175SAPI   C2919889   1.950   1.489   7.086  0.7463 -0.9356  0.0681
  175SAPI   H9R19890   2.051   1.533   7.090 -0.0801  1.0877 -0.5154
  175SAPI  C21019891   1.890   1.460   7.219  0.3624  0.4110 -0.5916
  175SAPI  H10R19892   1.916   1.354   7.239  0.8716  0.1978 -2.1971
  175SAPI  H10S19893   1.779   1.464   7.232  0.6127  2.2627  1.7275
  175SAPI  C21119894   1.945   1.536   7.332 -0.6784  0.7521 -0.2231
  175SAPI  H11R19895   2.055   1.546   7.342 -0.7310  1.2808 -0.1819
  175SAPI  C21219896   1.881   1.578   7.439 -0.0963  0.3837 -0.4688
  175SAPI  H12R19897   1.933   1.627   7.522  0.7752 -4.0900  1.9477
  175SAPI  C21319898   1.733   1.555   7.473 -0.4795  0.3422  0.7636
  175SAPI  H13R19899   1.684   1.532   7.376 -0.3411 -2.4650  1.2735
  175SAPI  H13S19900   1.673   1.640   7.510 -2.5288 -1.8720  2.9277
  175SAPI  C21419901   1.721   1.439   7.566  0.2360  0.0594 -0.4001
  175SAPI  H14R19902   1.731   1.341   7.517  1.2400 -0.5629  0.9950
  175SAPI  C21519903   1.694   1.436   7.697 -0.0454  0.2783 -0.2245
  175SAPI  H15R19904   1.685   1.343   7.755 -2.4776  1.4660  1.4725
  175SAPI  C21619905   1.673   1.562   7.785 -0.5805  0.1227 -0.2105
  175SAPI  H16R19906   1.572   1.610   7.784  0.4604  2.4452  0.6095
  175SAPI  H16S19907   1.747   1.642   7.766  0.4552 -0.9364 -0.7836
  175SAPI  C21719908   1.700   1.529   7.942 -0.4574  0.1464  0.2933
  175SAPI  H17R19909   1.705   1.627   7.993 -1.3935  0.0058  0.6845
  175SAPI  H17S19910   1.802   1.485   7.948  0.1396  1.5612  0.7205
  175SAPI  C21819911   1.583   1.459   8.019  0.3193  1.0481 -0.0738
  175SAPI  H18R19912   1.575   1.356   7.976 -0.3679  1.0321  0.0792
  175SAPI  H18S19913   1.492   1.515   7.989 -0.3327 -1.6347 -3.9781
  175SAPI  C21919914   1.612   1.451   8.168  0.1752 -0.1533  0.6560
  175SAPI  H19R19915   1.552   1.376   8.224  1.0246 -0.2366  1.4719
  175SAPI  H19S19916   1.571   1.545   8.213 -1.1966  0.1557 -1.1129
  175SAPI  C22019917   1.756   1.419   8.212 -0.4563  0.1054 -0.6080
  175SAPI  H20R19918   1.791   1.345   8.138  0.1499  1.0085 -1.2501
  175SAPI  H20S19919   1.764   1.385   8.318  0.0508  0.3364 -0.5643
  175SAPI  H20T19920   1.822   1.509   8.210  1.8528 -1.4213  1.3645
  175SAPI   C3319921   1.317   0.823   7.256 -0.5038 -0.0390  0.7668
  175SAPI   H3X19922   1.224   0.880   7.236 -0.2894  0.0301 -0.0575
  175SAPI   H3Y19923   1.384   0.898   7.304  0.3556  1.3910 -2.4163
  175SAPI   C3419924   1.288   0.708   7.353 -0.1263 -0.4339  0.1691
  175SAPI   H4X19925   1.379   0.655   7.388 -0.8711 -1.4853  0.5770
  175SAPI   H4Y19926   1.224   0.633   7.303  1.2477 -0.3419 -1.8224
  175SAPI   C3519927   1.226   0.766   7.482  0.2383  0.1795 -0.1823
  175SAPI   H5X19928   1.119   0.792   7.471  0.0826 -0.9089 -1.5596
  175SAPI   H5Y19929   1.280   0.859   7.511 -0.0905 -0.5199  2.9271
  175SAPI   C3619930   1.259   0.683   7.610 -1.0252  0.0382  0.1425
  175SAPI   H6X19931   1.367   0.666   7.625 -1.2475 -1.8891 -0.1742
  175SAPI   H6Y19932   1.218   0.581   7.593  1.2279 -0.5768 -2.2021
  175SAPI   C3719933   1.188   0.748   7.729 -0.6866 -0.6322  0.9420
  175SAPI   H7X19934   1.079   0.753   7.707 -0.0250  2.4876 -2.7836
  175SAPI   H7Y19935   1.233   0.849   7.735  0.3186 -0.9853 -0.1948
  175SAPI   C3819936   1.214   0.671   7.858  0.3210  0.2215  0.1931
  175SAPI   H8X19937   1.323   0.649   7.866 -0.1060 -1.7265  1.7039
  175SAPI   H8Y19938   1.170   0.569   7.854  1.0321 -0.1627  1.4991
  175SAPI   C3919939   1.178   0.746   7.992 -0.0951 -0.1473 -0.0037
  175SAPI   H9X19940   1.068   0.763   7.992  0.1090  1.4334 -0.5365
  175SAPI   H9Y19941   1.240   0.838   7.991 -0.6898  0.2844 -1.7980
  175SAPI  C31019942   1.233   0.668   8.114  0.5182  0.7746  0.0686
  175SAPI  H10X19943   1.337   0.635   8.094 -0.1428 -1.2480 -0.2223
  175SAPI  H10Y19944   1.181   0.570   8.123  0.8255  0.3926 -1.8348
  175SAPI  C31119945   1.216   0.746   8.243 -0.1561 -0.0398 -0.3489
  175SAPI  H11X19946   1.109   0.758   8.270  0.6620  1.6447  2.6491
  175SAPI  H11Y19947   1.249   0.852   8.235 -0.6901  0.2682  1.2290
  175SAPI  C31219948   1.288   0.673   8.361  0.3550 -0.1395  0.0982
  175SAPI  H12X19949   1.387   0.655   8.314 -0.9009 -1.0478 -2.3747
  175SAPI  H12Y19950   1.243   0.574   8.384 -1.1204  0.2576 -0.9517
  175SAPI  C31319951   1.289   0.770   8.478  0.5854  0.9522 -0.0616
  175SAPI  H13X19952   1.326   0.866   8.438  1.2343  1.7320  2.2448
  175SAPI  H13Y19953   1.352   0.732   8.563  0.5852  2.2110  0.5158
  175SAPI  C31419954   1.153   0.797   8.533  0.2484  0.5952 -0.0359
  175SAPI  H14X19955   1.093   0.704   8.530  0.2308  0.6173 -0.4277
  175SAPI  H14Y19956   1.104   0.862   8.457  0.3115  2.4013  1.4008
  175SAPI  C31519957   1.143   0.853   8.675 -0.2112 -0.0411  0.7909
  175SAPI  H15X19958   1.181   0.789   8.758 -0.0093  0.0661  0.7830
  175SAPI  H15Y19959   1.033   0.863   8.682 -0.1561  0.9804  0.2748
  175SAPI  C31619960   1.209   0.992   8.689  0.4119  0.0382  0.1601
  175SAPI  H16X19961   1.143   1.036   8.612  0.0400  0.6944  0.8345
  175SAPI  H16Y19962   1.317   0.988   8.661  1.0691 -0.6585  2.4867
  175SAPI  C31719963   1.205   1.038   8.829  1.0146 -0.0427  0.2838
  175SAPI  H17X19964   1.295   1.003   8.885  1.0683  1.0887  0.9295
  175SAPI  H17Y19965   1.112   1.009   8.882  0.2334 -0.3805 -1.2118
  175SAPI  C31819966   1.211   1.192   8.840  1.0425  0.1244  0.6048
  175SAPI  H18X19967   1.209   1.212   8.950 -1.6779 -3.3708  1.4019
  175SAPI  H18Y19968   1.126   1.246   8.793  1.2540  0.0636  0.1492
  175SAPI  H18Z19969   1.296   1.234   8.783 -2.0989  2.1258 -3.1203
  176SAPI   C1219970   0.072   5.858   6.105  0.2426  0.5091 -0.5558
  176SAPI    H219971   0.122   5.770   6.151  3.5449  2.5805  0.1906
  176SAPI    O219972   0.166   5.937   6.046  0.1033 -0.5713  0.3081
  176SAPI   HO219973   0.231   5.978   6.104 -2.1901  3.2921  0.5152
  176SAPI   C1319974  -0.027   5.804   6.002  0.7897 -0.7569 -0.2862
  176SAPI    H319975  -0.099   5.742   6.060 -0.5588 -0.0807 -1.2053
  176SAPI    O319976   0.035   5.728   5.908 -0.7298  0.7106 -0.0218
  176SAPI   HO319977  -0.022   5.704   5.835 -1.7865 -0.3423  1.0961
  176SAPI   C1419978  -0.096   5.921   5.927  0.0000 -0.7374 -0.1584
  176SAPI    H419979  -0.013   5.978   5.880  0.9881 -1.9552  0.0577
  176SAPI    O419980  -0.186   5.871   5.828  0.1663 -0.1977  0.0788
  176SAPI   HO419981  -0.160   5.925   5.753 -0.0067 -0.5091 -0.2047
  176SAPI   C1519982  -0.170   6.010   6.031  0.3083  0.9751  0.4746
  176SAPI    H519983  -0.258   5.959   6.075  0.3574 -2.0199 -2.4512
  176SAPI    O519984  -0.214   6.126   5.967  0.8550  0.0994 -0.1110
  176SAPI   HO519985  -0.273   6.163   6.032  0.9928  1.6881 -0.8246
  176SAPI   C1619986  -0.088   6.050   6.153  0.1881 -0.0600 -0.6172
  176SAPI    H619987  -0.020   6.123   6.103 -0.5375 -0.0755 -1.6605
  176SAPI    O619988  -0.166   6.121   6.252 -0.4961  0.0796 -0.2687
  176SAPI   HO619989  -0.115   6.189   6.296 -3.0124  0.0696  3.0693
  176SAPI   C1119990  -0.010   5.938   6.216 -0.0322 -0.6802  0.4592
  176SAPI    H119991  -0.087   5.866   6.251 -1.1137 -0.8504 -2.0539
  176SAPI     P19992   0.117   5.925   6.458  0.0195  0.1345 -0.0182
  176SAPI   O1319993   0.265   5.945   6.477 -0.3380 -0.1889  0.6503
  176SAPI   O1419994   0.066   5.789   6.451  0.0177  0.4018  0.1804
  176SAPI   O1219995   0.080   5.998   6.318 -0.2208 -0.5139  0.0248
  176SAPI   O1119996   0.039   6.000   6.583  0.1133 -0.6496 -0.4120
  176SAPI    C119997   0.051   6.145   6.593  0.2168  0.1206  0.2514
  176SAPI    HA19998   0.157   6.177   6.606 -0.6395  3.1690  0.5577
  176SAPI    HB19999   0.010   6.188   6.499 -1.5717  0.7618  1.2781
  176SAPI    C220000  -0.050   6.212   6.696 -0.1384  0.1017 -0.2624
  176SAPI    HS20001  -0.046   6.322   6.684 -0.5523  0.3378  1.4436
  176SAPI   O2120002  -0.026   6.167   6.832  0.1639 -0.3718 -0.1122
  176SAPI   C2120003   0.060   6.243   6.894  0.5364  0.4017  0.3000
  176SAPI   O2220004   0.120   6.337   6.843 -0.2409 -0.0607 -0.5529
  176SAPI   C2220005   0.071   6.200   7.043 -0.4568  0.1754  1.1968
  176SAPI   H2R20006   0.145   6.117   7.041  0.2168  0.7664 -1.2094
  176SAPI   H2S20007   0.122   6.282   7.097 -2.2923  0.9923  1.7802
  176SAPI    C320008  -0.197   6.175   6.663 -1.5151 -0.1949  0.2948
  176SAPI    HX20009  -0.192   6.065   6.682  0.8456 -0.2294 -0.1955
  176SAPI    HY20010  -0.217   6.196   6.556  0.4429  0.1566 -0.0429
  176SAPI   O3120011  -0.285   6.230   6.762  0.5512  0.7600 -0.1075
  176SAPI   C3120012  -0.402   6.165   6.758 -0.2837 -0.0343 -0.3976
  176SAPI   O3220013  -0.440   6.092   6.662  0.5988 -0.4208 -0.0347
  176SAPI   C3220014  -0.477   6.202   6.888  0.7227  0.0692  0.3752
  176SAPI   H2X20015  -0.508   6.308   6.887  0.2238 -0.0294  2.4227
  176SAPI   H2Y20016  -0.401   6.193   6.968  0.1857  1.6730  1.0925
  176SAPI   C2320017  -0.061   6.171   7.107  0.5040  0.5033  0.2730
  176SAPI   H3R20018  -0.116   6.095   7.047  1.2741 -1.9969  2.5453
  176SAPI   H3S20019  -0.115   6.267   7.101 -0.6464 -0.1285  0.2306
  176SAPI   C2420020  -0.051   6.110   7.247  0.5762 -0.1483  0.6102
  176SAPI   H4R20021  -0.007   6.185   7.316  0.9192  1.7484 -1.5460
  176SAPI   H4S20022   0.028   6.033   7.236  1.7586  1.0141  0.7888
  176SAPI   C2520023  -0.193   6.052   7.282  0.2112 -0.1437 -0.0157
  176SAPI   H5R20024  -0.254   6.033   7.192  0.5561 -0.8256 -0.1101
  176SAPI   C2620025  -0.239   6.033   7.408  0.0219  0.2085 -0.1284
  176SAPI   H6R20026  -0.337   5.993   7.438  0.3621  0.4786  1.4687
  176SAPI   C2720027  -0.159   6.053   7.534 -0.1057  0.4021 -0.7157
  176SAPI   H7R20028  -0.057   6.081   7.500  0.2347 -0.8536 -0.7855
  176SAPI   H7S20029  -0.154   5.950   7.574  0.5601  0.6043 -0.2693
  176SAPI   C2820030  -0.220   6.152   7.623  0.1337 -0.7332 -0.1965
  176SAPI   H8R20031  -0.266   6.236   7.568 -0.4795  1.1794  2.9836
  176SAPI   C2920032  -0.206   6.157   7.756  0.0311  0.0263  0.4839
  176SAPI   H9R20033  -0.234   6.248   7.811 -0.1512 -0.6269  1.5011
  176SAPI  C21020034  -0.118   6.060   7.839  0.1774 -0.3839  0.3834
  176SAPI  H10R20035  -0.065   6.109   7.923  1.2897 -0.4798 -0.2407
  176SAPI  H10S20036  -0.033   6.020   7.779  1.5249  0.2299  1.8111
  176SAPI  C21120037  -0.208   5.949   7.887  0.1280 -0.6209 -0.2027
  176SAPI  H11R20038  -0.266   5.905   7.804 -1.9161  0.8570  0.3474
  176SAPI  C21220039  -0.237   5.911   8.015  0.3949  0.1277  0.9197
  176SAPI  H12R20040  -0.299   5.821   8.026 -0.0078  0.4357  1.2153
  176SAPI  C21320041  -0.193   5.972   8.145 -0.4173 -0.2236 -0.4641
  176SAPI  H13R20042  -0.281   6.004   8.205 -2.5493 -2.2311 -2.3060
  176SAPI  H13S20043  -0.147   6.070   8.119 -1.2594 -0.0142 -1.2296
  176SAPI  C21420044  -0.095   5.886   8.223 -0.8607  0.0596  0.4845
  176SAPI  H14R20045   0.011   5.899   8.200 -0.4321  2.1126  3.0491
  176SAPI  C21520046  -0.117   5.782   8.301 -0.3058 -0.5266 -0.6741
  176SAPI  H15R20047  -0.040   5.725   8.354 -0.2781 -1.3118 -1.5334
  176SAPI  C21620048  -0.258   5.734   8.320  0.4581  0.7288 -0.1249
  176SAPI  H16R20049  -0.338   5.771   8.252  0.4506  2.0014  0.5557
  176SAPI  H16S20050  -0.295   5.766   8.419 -2.5041  1.4491 -1.3369
  176SAPI  C21720051  -0.278   5.581   8.311 -0.3870 -0.0760 -1.0874
  176SAPI  H17R20052  -0.237   5.535   8.219  1.5709 -1.5757  0.4483
  176SAPI  H17S20053  -0.388   5.565   8.306 -0.5156  1.0049 -1.8055
  176SAPI  C21820054  -0.230   5.493   8.427  0.3923 -0.2021  0.1143
  176SAPI  H18R20055  -0.243   5.547   8.523 -2.2707  1.2665 -0.9890
  176SAPI  H18S20056  -0.123   5.469   8.410  0.1429 -0.8116 -0.6325
  176SAPI  C21920057  -0.321   5.369   8.442  0.5414  0.0114  0.1469
  176SAPI  H19R20058  -0.333   5.316   8.344 -1.4023  1.3359 -0.3887
  176SAPI  H19S20059  -0.424   5.400   8.470 -0.0120 -1.0075 -0.6740
  176SAPI  C22020060  -0.271   5.259   8.535 -0.0692  0.0943 -0.5169
  176SAPI  H20R20061  -0.334   5.168   8.524 -0.2166  0.1705 -0.3177
  176SAPI  H20S20062  -0.265   5.288   8.642  1.8950 -0.4223 -0.4525
  176SAPI  H20T20063  -0.171   5.227   8.500  0.4440  2.0058 -0.9109
  176SAPI   C3320064  -0.583   6.098   6.929 -0.2990  0.5430 -0.3885
  176SAPI   H3X20065  -0.531   6.004   6.956 -1.3314 -0.5897 -2.1522
  176SAPI   H3Y20066  -0.649   6.084   6.840 -1.5142  1.0591  0.4055
  176SAPI   C3420067  -0.672   6.136   7.050 -0.3260  0.0040  1.0052
  176SAPI   H4X20068  -0.757   6.065   7.058  1.1901 -1.9800  0.1780
  176SAPI   H4Y20069  -0.708   6.240   7.032 -0.0377 -0.1035 -0.2651
  176SAPI   C3520070  -0.587   6.134   7.177 -1.1309  0.5994 -0.0484
  176SAPI   H5X20071  -0.509   6.211   7.159 -1.1008  0.5411 -0.1741
  176SAPI   H5Y20072  -0.535   6.036   7.186 -2.1068  0.2170  1.9285
  176SAPI   C3620073  -0.662   6.166   7.303 -0.1312  0.8220 -0.9504
  176SAPI   H6X20074  -0.756   6.108   7.308  0.1501  0.3990 -0.5898
  176SAPI   H6Y20075  -0.682   6.276   7.301 -0.1656  0.9463  2.1858
  176SAPI   C3720076  -0.586   6.115   7.425  0.0745  0.0672  0.1190
  176SAPI   H7X20077  -0.481   6.151   7.418  0.2065  0.6787  3.4451
  176SAPI   H7Y20078  -0.582   6.004   7.426  0.0295  0.0600  1.7549
  176SAPI   C3820079  -0.646   6.157   7.562 -0.1719  0.4015 -0.9013
  176SAPI   H8X20080  -0.752   6.122   7.565  0.4406 -1.5792 -0.6099
  176SAPI   H8Y20081  -0.641   6.267   7.563 -0.6027  0.4255 -0.0452
  176SAPI   C3920082  -0.568   6.103   7.684 -0.3599 -0.2818  0.0622
  176SAPI   H9X20083  -0.500   6.184   7.717 -1.9678  1.8249 -1.5046
  176SAPI   H9Y20084  -0.496   6.022   7.658  1.1449  0.8505  0.5834
  176SAPI  C31020085  -0.661   6.054   7.798 -0.5698 -0.6301  1.1470
  176SAPI  H10X20086  -0.717   5.964   7.765 -0.4702 -0.3850  0.2859
  176SAPI  H10Y20087  -0.736   6.135   7.812 -0.4406 -0.1794 -0.5655
  176SAPI  C31120088  -0.579   6.033   7.922  0.1320  0.3022 -0.5004
  176SAPI  H11X20089  -0.545   6.134   7.954  0.0904  1.0329 -2.5810
  176SAPI  H11Y20090  -0.488   5.971   7.907  1.2912  1.0411  2.7158
  176SAPI  C31220091  -0.666   5.973   8.038 -0.6385 -1.0063 -0.2965
  176SAPI  H12X20092  -0.742   5.906   7.992 -2.2965  0.6681 -0.1414
  176SAPI  H12Y20093  -0.722   6.059   8.081  1.3533 -0.2893  1.0028
  176SAPI  C31320094  -0.578   5.891   8.143  0.8362 -0.3901 -0.1225
  176SAPI  H13X20095  -0.504   5.966   8.180  0.2893  0.9405 -1.6002
  176SAPI  H13Y20096  -0.524   5.813   8.086  1.3395 -0.4043  0.3637
  176SAPI  C31420097  -0.648   5.826   8.269 -0.5453  0.3172  0.1857
  176SAPI  H14X20098  -0.698   5.903   8.332 -1.1317  0.3048 -0.2531
  176SAPI  H14Y20099  -0.565   5.779   8.326  0.1522 -1.6426 -2.2830
  176SAPI  C31520100  -0.758   5.724   8.241 -0.0557 -0.0537  0.5333
  176SAPI  H15X20101  -0.723   5.666   8.153  0.6793 -0.1903  0.9021
  176SAPI  H15Y20102  -0.854   5.772   8.214  1.0413  2.1387  0.2693
  176SAPI  C31620103  -0.782   5.627   8.356 -0.6914 -0.3400 -0.3866
  176SAPI  H16X20104  -0.683   5.604   8.400  0.1646  4.6139  0.8115
  176SAPI  H16Y20105  -0.837   5.534   8.330 -0.1087 -0.9839  0.6278
  176SAPI  C31720106  -0.856   5.708   8.470 -0.2413  0.1806 -0.3291
  176SAPI  H17X20107  -0.953   5.744   8.431 -1.3606 -3.2886 -1.0907
  176SAPI  H17Y20108  -0.798   5.798   8.499 -0.2543  0.3108 -0.7047
  176SAPI  C31820109  -0.876   5.623   8.608  0.5059 -0.5227 -0.5041
  176SAPI  H18X20110  -0.926   5.525   8.594 -0.9445  0.3857 -1.9897
  176SAPI  H18Y20111  -0.945   5.679   8.675  1.4560  1.1618 -0.8669
  176SAPI  H18Z20112  -0.774   5.606   8.649  0.4214 -1.4139 -0.6437
  177SLPC     N20113   2.881   4.344  10.892 -0.1904  0.6664 -0.2940
  177SLPC   C1320114   2.803   4.383  10.772 -0.0356  0.6348  0.6367
  177SLPC  H13A20115   2.773   4.302  10.706  3.2231  0.3669 -0.7571
  177SLPC  H13B20116   2.709   4.420  10.808 -0.2423  0.3864  0.3584
  177SLPC  H13C20117   2.849   4.456  10.707 -2.4673  2.9073  1.3260
  177SLPC   C1420118   2.804   4.243  10.965  0.0028  0.4535 -0.2932
  177SLPC  H14A20119   2.706   4.279  10.994  0.5681 -0.6089  3.3766
  177SLPC  H14B20120   2.790   4.148  10.916 -1.8166 -1.2519  3.1625
  177SLPC  H14C20121   2.856   4.242  11.059  2.1478  1.9107 -1.3770
  177SLPC   C1520122   2.889   4.462  10.979  0.2686  0.2529  0.4754
  177SLPC  H15A20123   2.910   4.431  11.080  1.3972 -1.4001 -0.2225
  177SLPC  H15B20124   2.963   4.535  10.950  1.1422 -0.9047 -0.3179
  177SLPC  H15C20125   2.794   4.514  10.979 -0.2421 -0.6140 -0.7496
  177SLPC   C1220126   3.019   4.299  10.843 -0.0448  0.4838 -0.1140
  177SLPC  H12A20127   3.059   4.384  10.790 -2.1283  0.6289 -1.5647
  177SLPC  H12B20128   3.013   4.205  10.789 -1.3909  0.9093 -0.7282
  177SLPC   C1120129   3.126   4.254  10.956 -0.4585 -0.6977 -0.0973
  177SLPC  H11A20130   3.193   4.180  10.907 -0.2144 -1.0733  0.7787
  177SLPC  H11B20131   3.069   4.197  11.032 -1.2762 -0.4184 -0.4917
  177SLPC     P20132   3.286   4.462  10.895  0.3008  0.3305  0.4046
  177SLPC   O1320133   3.189   4.551  10.823  0.0446  0.3357 -0.3254
  177SLPC   O1420134   3.385   4.540  10.973  0.0216  0.3785 -0.3752
  177SLPC   O1220135   3.204   4.371  11.000 -0.1086  0.1539 -0.2972
  177SLPC   O1120136   3.352   4.347  10.809 -0.8461  0.4326 -0.0847
  177SLPC    C120137   3.314   4.326  10.674 -0.3935  0.0643 -0.3177
  177SLPC    HA20138   3.285   4.220  10.658 -0.8632 -0.2483  2.1379
  177SLPC    HB20139   3.235   4.394  10.638 -1.2648 -1.5113 -1.5100
  177SLPC    C220140   3.435   4.335  10.588 -0.3498  0.5723  0.3318
  177SLPC    HS20141   3.509   4.265  10.632  0.4627 -0.0078 -1.8164
  177SLPC   O2120142   3.492   4.468  10.592 -0.2026 -0.6880 -0.0701
  177SLPC   C2120143   3.620   4.476  10.543 -0.9098  0.4093  0.0084
  177SLPC   O2220144   3.693   4.376  10.534 -0.0792  0.2517 -0.2629
  177SLPC   C2220145   3.657   4.622  10.508 -0.9732 -0.0500 -0.1493
  177SLPC   H2R20146   3.582   4.658  10.434 -0.4349  0.2491 -0.5615
  177SLPC   H2S20147   3.658   4.681  10.601 -1.1233  1.8788 -1.3179
  177SLPC    C320148   3.397   4.281  10.444  0.8069 -0.1455  0.2701
  177SLPC    HX20149   3.369   4.174  10.456  1.2555 -0.4369 -1.1640
  177SLPC    HY20150   3.491   4.278  10.385 -1.8142 -1.2071 -4.3538
  177SLPC   O3120151   3.286   4.357  10.384 -0.5627  0.0266  0.2268
  177SLPC   C3120152   3.328   4.445  10.297 -0.8498  0.4265  0.1450
  177SLPC   O3220153   3.443   4.496  10.288  0.3523  0.4836  0.2578
  177SLPC   C3220154   3.211   4.465  10.202  0.2095 -0.0086 -0.4126
  177SLPC   H2X20155   3.159   4.548  10.255  0.4088 -1.4252  2.1631
  177SLPC   H2Y20156   3.140   4.380  10.204  1.3836 -1.0404 -1.1741
  177SLPC   C2320157   3.799   4.635  10.451  0.7473  0.7367 -0.4991
  177SLPC   H3R20158   3.876   4.578  10.506  0.8928  0.1629 -1.2808
  177SLPC   H3S20159   3.827   4.743  10.452 -1.0004  1.2371  1.5962
  177SLPC   C2420160   3.804   4.584  10.299  0.2946  0.0986  0.1393
  177SLPC   H4R20161   3.752   4.486  10.294  0.6993 -0.2155  1.6306
  177SLPC   H4S20162   3.911   4.568  10.277  0.2332  0.4836 -0.4686
  177SLPC   C2520163   3.754   4.682  10.192 -1.0095  0.0469  0.2033
  177SLPC   H5R20164   3.806   4.779  10.203  0.8372 -0.6645 -1.6728
  177SLPC   H5S20165   3.649   4.710  10.214 -1.2525 -0.5962 -0.1045
  177SLPC   C2620166   3.770   4.626  10.049 -0.2611 -0.3703  0.5567
  177SLPC   H6R20167   3.768   4.516  10.036 -0.6651 -0.4104  0.9290
  177SLPC   H6S20168   3.867   4.676  10.027  0.0828 -0.9960  0.6212
  177SLPC   C2720169   3.663   4.674   9.952 -0.0885  0.0857 -0.1436
  177SLPC   H7R20170   3.664   4.785   9.956 -4.2024  0.3893 -2.3188
  177SLPC   H7S20171   3.564   4.635   9.983 -0.1943 -1.0236 -1.7239
  177SLPC   C2820172   3.695   4.629   9.805  0.3122 -0.1776 -0.1724
  177SLPC   H8R20173   3.717   4.520   9.799 -0.5192 -0.2617 -2.9629
  177SLPC   H8S20174   3.783   4.685   9.767 -1.4643  1.9739 -1.3417
  177SLPC   C2920175   3.582   4.656   9.714 -1.0705 -0.0993  0.0052
  177SLPC   H9R20176   3.499   4.585   9.726 -0.4978 -0.7284  0.2691
  177SLPC  C21020177   3.574   4.750   9.617  0.6165  0.6522 -0.5205
  177SLPC  H10R20178   3.487   4.743   9.550  2.5327  0.3354 -3.1055
  177SLPC  C21120179   3.673   4.856   9.578 -0.6509  0.1814 -0.6084
  177SLPC  H11R20180   3.607   4.940   9.547 -1.4731 -0.1021  0.3589
  177SLPC  H11S20181   3.721   4.890   9.673  1.0744 -0.4041 -1.2262
  177SLPC  C21220182   3.771   4.816   9.466 -0.1583  0.4050  0.7195
  177SLPC  H12R20183   3.865   4.769   9.500 -0.7992 -0.9830  0.6513
  177SLPC  C21320184   3.751   4.826   9.329 -0.5985 -0.1159 -0.6733
  177SLPC  H13R20185   3.834   4.795   9.264  2.0785  0.4961  2.1965
  177SLPC  C21420186   3.629   4.896   9.276  0.0439 -0.8572  0.0047
  177SLPC  H14R20187   3.597   4.974   9.347  1.1716 -0.9368  0.6190
  177SLPC  H14S20188   3.548   4.820   9.286 -1.6521  0.8475 -0.2911
  177SLPC  C21520189   3.658   4.962   9.139 -0.3423 -0.0836  0.0565
  177SLPC  H15R20190   3.752   5.019   9.156  0.0162 -0.7145  0.2225
  177SLPC  H15S20191   3.579   5.030   9.102  1.3019  1.0412 -1.6306
  177SLPC  C21620192   3.677   4.857   9.027 -0.0027  0.1626  0.1138
  177SLPC  H16R20193   3.593   4.785   9.026 -0.4792  0.7072 -1.0743
  177SLPC  H16S20194   3.767   4.794   9.042  1.3029  1.0278 -3.2722
  177SLPC  C21720195   3.683   4.933   8.892  0.3065  0.2852  0.7368
  177SLPC  H17R20196   3.769   5.004   8.890  2.0692 -1.6527  2.2127
  177SLPC  H17S20197   3.597   5.002   8.888  0.3608  0.3734  1.0519
  177SLPC  C21820198   3.684   4.822   8.783 -0.1243  0.3294  0.1626
  177SLPC  H18R20199   3.636   4.728   8.821 -0.1204  0.4669  0.5160
  177SLPC  H18S20200   3.789   4.798   8.755 -0.4996  1.6672 -2.6704
  177SLPC  H18T20201   3.646   4.850   8.683  1.9361  0.3383 -0.6587
  177SLPC   C3320202   3.265   4.477  10.059 -0.2293 -0.0841  0.5177
  177SLPC   H3X20203   3.339   4.400  10.030  0.2107  1.3160 -2.3984
  177SLPC   H3Y20204   3.330   4.567  10.067  1.5244 -1.1609 -0.8904
  177SLPC   C3420205   3.159   4.509   9.948 -0.2260  0.9484  0.7214
  177SLPC   H4X20206   3.102   4.599   9.977 -2.4556  0.1088 -0.8130
  177SLPC   H4Y20207   3.091   4.421   9.947  0.1556  0.6489 -0.1269
  177SLPC   C3520208   3.207   4.520   9.809  0.2513 -0.2830 -0.2243
  177SLPC   H5X20209   3.271   4.434   9.781  1.2288  0.1015  0.7784
  177SLPC   H5Y20210   3.272   4.609   9.796 -2.5770  1.7187 -1.7108
  177SLPC   C3620211   3.101   4.546   9.701 -0.2770  0.4992  0.0008
  177SLPC   H6X20212   3.035   4.627   9.737  0.9514  0.0376  3.6202
  177SLPC   H6Y20213   3.042   4.452   9.690  0.3689  0.2846 -2.1631
  177SLPC   C3720214   3.161   4.591   9.571  0.7993  0.1887  1.1079
  177SLPC   H7X20215   3.231   4.514   9.533 -0.9437 -0.2586 -1.4809
  177SLPC   H7Y20216   3.235   4.672   9.588  0.6469  0.2525  1.4893
  177SLPC   C3820217   3.053   4.617   9.460 -0.0673 -0.2066 -0.5439
  177SLPC   H8X20218   2.967   4.672   9.503  1.4479  1.7902  0.0885
  177SLPC   H8Y20219   3.007   4.524   9.419  0.7165 -1.4677  1.2773
  177SLPC   C3920220   3.118   4.701   9.344  0.4081  0.5058  0.1700
  177SLPC   H9X20221   3.181   4.778   9.392  1.4221  0.9223 -1.7385
  177SLPC   H9Y20222   3.037   4.747   9.284  0.8249 -1.1782 -1.8009
  177SLPC  C31020223   3.210   4.630   9.241 -0.0225  0.1395 -0.2121
  177SLPC  H10X20224   3.155   4.569   9.167 -2.6684  2.3450 -0.2461
  177SLPC  H10Y20225   3.279   4.557   9.287  0.6022  0.1322 -1.1317
  177SLPC  C31120226   3.290   4.733   9.170 -0.2387  0.0168  0.4087
  177SLPC  H11X20227   3.351   4.680   9.093 -0.5588  0.9442 -0.5041
  177SLPC  H11Y20228   3.353   4.784   9.245 -1.2405  0.1703  1.1594
  177SLPC  C31220229   3.201   4.830   9.099  0.4359 -0.0836  0.1926
  177SLPC  H12X20230   3.162   4.902   9.174  1.3442  2.2023 -1.3799
  177SLPC  H12Y20231   3.125   4.773   9.041  0.0514 -0.9631  1.5221
  177SLPC  C31320232   3.272   4.928   8.993 -0.4476  0.0250 -0.2249
  177SLPC  H13X20233   3.290   4.865   8.904 -1.0549 -0.2170 -0.1788
  177SLPC  H13Y20234   3.369   4.967   9.031 -0.4175  0.8844 -1.1435
  177SLPC  C31420235   3.186   5.046   8.954  0.4766 -0.0473  0.7260
  177SLPC  H14X20236   3.133   5.103   9.034  1.2635  1.6039  0.1207
  177SLPC  H14Y20237   3.107   5.009   8.885  0.1555  1.1933  0.4006
  177SLPC  C31520238   3.258   5.155   8.870 -0.6993 -0.4782 -0.5657
  177SLPC  H15X20239   3.286   5.125   8.767  0.2347  0.6408 -0.6641
  177SLPC  H15Y20240   3.355   5.177   8.919 -1.1574 -0.9947  0.6024
  177SLPC  C31620241   3.172   5.282   8.857 -0.6740 -0.8389 -0.0552
  177SLPC  H16X20242   3.238   5.355   8.805  1.6029 -1.7124  1.4721
  177SLPC  H16Y20243   3.153   5.308   8.963 -1.7056 -0.9640 -0.1977
  177SLPC  C31720244   3.050   5.253   8.776 -0.2046 -0.7891 -0.2042
  177SLPC  H17X20245   2.995   5.349   8.771  1.3005  0.1391  0.3747
  177SLPC  H17Y20246   2.989   5.176   8.830  2.0880 -3.0591 -0.6470
  177SLPC  C31820247   3.065   5.203   8.634 -0.1831 -0.9265 -0.2944
  177SLPC  H18X20248   3.118   5.106   8.634  1.7399  0.0320 -2.1021
  177SLPC  H18Y20249   3.119   5.278   8.572 -2.0729  0.7407 -0.0254
  177SLPC  H18Z20250   2.965   5.180   8.592 -1.7917  1.3352  2.0003
  178SLPC     N20251   2.971   1.645  11.005  0.0303 -0.2688  0.3276
  178SLPC   C1320252   3.090   1.682  10.916 -0.2429 -0.3443  0.1210
  178SLPC  H13A20253   3.062   1.775  10.868 -1.2160  0.5733  2.3385
  178SLPC  H13B20254   3.180   1.705  10.971  0.6943  1.1885 -1.9198
  178SLPC  H13C20255   3.119   1.611  10.840 -2.0845 -0.9109 -0.0851
  178SLPC   C1420256   2.927   1.778  11.068  0.4957  0.0603 -0.5847
  178SLPC  H14A20257   2.897   1.847  10.991 -0.2694 -1.0309 -1.2952
  178SLPC  H14B20258   2.850   1.761  11.142  0.1287  1.4800 -0.6174
  178SLPC  H14C20259   3.008   1.823  11.123  0.0433 -1.7152  1.6487
  178SLPC   C1520260   3.015   1.551  11.121  0.0770  0.4841 -0.0762
  178SLPC  H15A20261   3.096   1.591  11.182 -0.3685  1.9639 -0.4264
  178SLPC  H15B20262   2.925   1.517  11.170 -0.0819  0.9171 -0.0630
  178SLPC  H15C20263   3.064   1.471  11.068 -0.6024  0.1052 -0.1347
  178SLPC   C1220264   2.857   1.590  10.924  0.4474 -0.6995  0.1998
  178SLPC  H12A20265   2.889   1.507  10.863  0.9263  0.0990 -0.6702
  178SLPC  H12B20266   2.842   1.669  10.852 -1.5108  1.3194  2.6671
  178SLPC   C1120267   2.719   1.550  10.992  0.3116 -1.0609 -0.0068
  178SLPC  H11A20268   2.754   1.474  11.065  3.6288 -0.0891 -0.4021
  178SLPC  H11B20269   2.647   1.502  10.923  0.7976  0.6463 -1.7863
  178SLPC     P20270   2.505   1.705  11.041  0.1787  0.2663  0.5941
  178SLPC   O1320271   2.420   1.615  11.124  0.7193 -0.7730  0.0325
  178SLPC   O1420272   2.495   1.846  11.082 -0.7130 -0.0397 -0.2196
  178SLPC   O1220273   2.656   1.669  11.057 -0.3560 -0.4409  0.6706
  178SLPC   O1120274   2.442   1.691  10.895 -0.3591  0.4231 -0.1186
  178SLPC    C120275   2.502   1.775  10.791  0.2668 -0.1739 -0.7560
  178SLPC    HA20276   2.459   1.877  10.802 -0.4990 -0.6101  0.3645
  178SLPC    HB20277   2.612   1.786  10.805 -0.0641  1.6951  0.7956
  178SLPC    C220278   2.482   1.723  10.649 -0.2643 -0.1781 -0.0374
  178SLPC    HS20279   2.373   1.703  10.634  0.0075 -1.3185 -0.6268
  178SLPC   O2120280   2.558   1.608  10.637  0.9172  0.4070 -0.0638
  178SLPC   C2120281   2.518   1.518  10.548 -0.3055  0.1201 -0.3669
  178SLPC   O2220282   2.417   1.532  10.477  1.0971  0.0077 -0.3500
  178SLPC   C2220283   2.610   1.396  10.554  0.4632 -0.2491 -0.5067
  178SLPC   H2R20284   2.716   1.429  10.550 -0.5420  3.3782 -0.4273
  178SLPC   H2S20285   2.598   1.348  10.654 -0.3711 -1.9511 -1.3726
  178SLPC    C320286   2.527   1.831  10.544  0.2175 -0.1727 -0.2347
  178SLPC    HX20287   2.628   1.875  10.560 -0.4962  1.8563 -1.0377
  178SLPC    HY20288   2.457   1.916  10.559 -0.7380 -0.8226 -0.8920
  178SLPC   O3120289   2.522   1.791  10.400  0.1075  0.4790  0.4217
  178SLPC   C3120290   2.402   1.773  10.352 -0.6667 -0.1566 -0.2069
  178SLPC   O3220291   2.296   1.788  10.411  0.5152 -0.4068  0.0905
  178SLPC   C3220292   2.405   1.730  10.209  0.2630 -0.3812  0.2418
  178SLPC   H2X20293   2.454   1.631  10.199  1.4792  0.1338  0.8635
  178SLPC   H2Y20294   2.459   1.805  10.148 -0.3255  0.8155  1.1310
  178SLPC   C2320295   2.570   1.296  10.439 -0.4229 -0.0582  0.0171
  178SLPC   H3R20296   2.462   1.273  10.426 -1.0789  1.6578  1.8959
  178SLPC   H3S20297   2.615   1.197  10.465  1.8933  1.2338  1.2406
  178SLPC   C2420298   2.617   1.340  10.297 -0.2800 -0.3194 -0.1479
  178SLPC   H4R20299   2.720   1.378  10.314  0.2119 -1.6451 -0.0176
  178SLPC   H4S20300   2.550   1.415  10.250 -0.0295  0.0657  0.1038
  178SLPC   C2520301   2.640   1.232  10.187  0.3037 -0.1954 -0.4193
  178SLPC   H5R20302   2.723   1.174  10.233  0.3104 -0.6332 -0.9660
  178SLPC   H5S20303   2.690   1.282  10.101  2.4851  1.0138  1.4403
  178SLPC   C2620304   2.520   1.153  10.134  0.5947  0.8207  0.3018
  178SLPC   H6R20305   2.489   1.078  10.210 -1.2988 -0.3621 -1.5136
  178SLPC   H6S20306   2.538   1.091  10.044 -1.9197  0.8967 -0.3330
  178SLPC   C2720307   2.393   1.239  10.102  0.0441  0.0324 -0.5391
  178SLPC   H7R20308   2.423   1.328  10.043  0.2055  1.4945  1.6207
  178SLPC   H7S20309   2.366   1.278  10.203 -4.4538  0.7502 -1.8136
  178SLPC   C2820310   2.276   1.164  10.032 -0.0502  0.3232  0.4186
  178SLPC   H8R20311   2.250   1.075  10.092  2.1222 -2.8645 -2.9569
  178SLPC   H8S20312   2.319   1.127   9.937 -0.6394 -0.0086  0.2803
  178SLPC   C2920313   2.157   1.254  10.011 -0.9457  0.5060  0.6009
  178SLPC   H9R20314   2.138   1.334  10.083  1.4463  1.5349  0.1658
  178SLPC  C21020315   2.088   1.252   9.895  0.5071 -0.3977  0.3834
  178SLPC  H10R20316   2.004   1.322   9.881  1.1034  0.3514  0.5249
  178SLPC  C21120317   2.095   1.170   9.772 -0.4583 -0.4073 -0.5541
  178SLPC  H11R20318   1.995   1.167   9.722  0.1339 -0.6131 -1.7579
  178SLPC  H11S20319   2.117   1.066   9.806 -0.9320 -0.9044 -1.7044
  178SLPC  C21220320   2.205   1.223   9.679  0.0151 -0.5794 -0.8970
  178SLPC  H12R20321   2.292   1.250   9.741 -0.0498  0.4118 -1.2315
  178SLPC  C21320322   2.214   1.242   9.549  0.1773  0.5569  0.3075
  178SLPC  H13R20323   2.304   1.296   9.514  0.9491 -0.7600  0.1934
  178SLPC  C21420324   2.111   1.202   9.448 -0.2106  0.3989  0.7975
  178SLPC  H14R20325   2.023   1.143   9.481 -1.5471  1.1605 -1.2199
  178SLPC  H14S20326   2.145   1.131   9.370  1.5242 -0.0698  1.9309
  178SLPC  C21520327   2.044   1.323   9.373 -0.1123  0.6077 -0.2170
  178SLPC  H15R20328   1.998   1.397   9.443 -2.7275  0.2652 -1.4652
  178SLPC  H15S20329   1.955   1.288   9.317  0.4281  0.7190 -1.1567
  178SLPC  C21620330   2.139   1.394   9.270 -0.1570 -0.0399  0.4942
  178SLPC  H16R20331   2.174   1.334   9.184 -3.3202  1.9795 -2.4704
  178SLPC  H16S20332   2.232   1.427   9.321  0.9700  0.3801 -1.7148
  178SLPC  C21720333   2.088   1.525   9.213 -0.1695  0.1451 -0.5905
  178SLPC  H17R20334   2.068   1.595   9.297  2.3359 -1.6373  1.6519
  178SLPC  H17S20335   1.996   1.506   9.153 -1.0807 -0.8159  1.0288
  178SLPC  C21820336   2.185   1.602   9.121  0.4336  0.5187 -0.5585
  178SLPC  H18R20337   2.137   1.695   9.087  0.0761  0.3160 -0.6111
  178SLPC  H18S20338   2.198   1.535   9.033  0.9409 -0.8441  0.5004
  178SLPC  H18T20339   2.284   1.622   9.169  0.5917  0.2149 -0.7539
  178SLPC   C3320340   2.266   1.729  10.150 -0.0776  0.1133  0.4615
  178SLPC   H3X20341   2.216   1.828  10.144  1.8616  1.1063 -0.1663
  178SLPC   H3Y20342   2.199   1.664  10.210 -0.3232 -0.6010 -0.5468
  178SLPC   C3420343   2.277   1.665  10.000 -0.1205 -0.1848  0.2141
  178SLPC   H4X20344   2.337   1.572  10.003  1.2618  0.6995  2.4937
  178SLPC   H4Y20345   2.344   1.725   9.934 -0.0153 -0.8012 -0.2483
  178SLPC   C3520346   2.137   1.643   9.933 -0.1108 -0.5300 -0.5450
  178SLPC   H5X20347   2.066   1.726   9.954 -1.1116 -0.6423 -3.1210
  178SLPC   H5Y20348   2.094   1.558   9.990  0.0270  0.6685  1.4440
  178SLPC   C3620349   2.138   1.610   9.784 -0.1647  0.1303  1.2230
  178SLPC   H6X20350   2.034   1.575   9.763 -0.1051  0.4529  0.3934
  178SLPC   H6Y20351   2.216   1.553   9.730 -0.1128  0.2517  1.1708
  178SLPC   C3720352   2.152   1.740   9.705  0.4848  0.3713  0.3407
  178SLPC   H7X20353   2.238   1.796   9.750 -0.3425  0.1546  2.2937
  178SLPC   H7Y20354   2.058   1.785   9.743 -0.2509 -0.7629 -0.1224
  178SLPC   C3820355   2.143   1.741   9.554  0.0691 -0.3128 -0.6058
  178SLPC   H8X20356   2.046   1.699   9.517 -1.1020  1.5268  0.2533
  178SLPC   H8Y20357   2.228   1.690   9.505 -0.6821 -1.7097 -0.5089
  178SLPC   C3920358   2.145   1.892   9.508  0.6241  0.5770 -0.0350
  178SLPC   H9X20359   2.231   1.941   9.558  1.6629 -0.1303 -1.0714
  178SLPC   H9Y20360   2.052   1.938   9.549  0.2567  1.1232 -1.4242
  178SLPC  C31020361   2.131   1.899   9.358 -0.5111  0.5754 -0.2380
  178SLPC  H10X20362   2.034   1.851   9.331 -0.2760 -0.5801  0.8282
  178SLPC  H10Y20363   2.216   1.853   9.304  0.8782  0.7365  1.7128
  178SLPC  C31120364   2.122   2.047   9.318  0.5181  0.0433 -0.1806
  178SLPC  H11X20365   2.221   2.087   9.348 -0.1980  0.3968  1.9390
  178SLPC  H11Y20366   2.046   2.106   9.374 -0.5719 -1.6688  0.1992
  178SLPC  C31220367   2.106   2.079   9.166  0.0209 -0.2554  0.2390
  178SLPC  H12X20368   2.064   2.179   9.142  0.8300 -0.3735 -1.8888
  178SLPC  H12Y20369   2.023   2.014   9.130 -0.7721  0.9878 -0.2646
  178SLPC  C31320370   2.224   2.058   9.062 -0.1679 -0.4104 -0.2413
  178SLPC  H13X20371   2.276   1.965   9.092  1.4968  0.6863  0.3944
  178SLPC  H13Y20372   2.298   2.140   9.076 -2.5605  1.4203  3.3894
  178SLPC  C31420373   2.185   2.042   8.918  0.3753 -0.3927  0.7228
  178SLPC  H14X20374   2.118   2.124   8.885 -0.2438 -1.1402  0.0720
  178SLPC  H14Y20375   2.117   1.954   8.907  2.0378 -1.6933  0.3560
  178SLPC  C31520376   2.307   2.019   8.823  0.2969 -0.2069  0.3671
  178SLPC  H15X20377   2.277   2.013   8.716  0.1898 -0.3678  0.4050
  178SLPC  H15Y20378   2.384   2.098   8.829 -2.2216  2.6294 -1.6477
  178SLPC  C31620379   2.371   1.891   8.872  0.3144 -0.2389 -0.8178
  178SLPC  H16X20380   2.286   1.822   8.893  0.8877 -0.4766  0.8593
  178SLPC  H16Y20381   2.429   1.906   8.966  0.5177  1.5303 -1.1917
  178SLPC  C31720382   2.459   1.824   8.763  0.2282  0.3628 -0.1929
  178SLPC  H17X20383   2.397   1.818   8.671 -1.3479 -0.2792  0.8782
  178SLPC  H17Y20384   2.477   1.721   8.801  1.3267  0.4948 -0.2990
  178SLPC  C31820385   2.589   1.894   8.738 -0.5470 -0.2913 -0.3846
  178SLPC  H18X20386   2.579   1.995   8.692 -0.8617 -0.3687 -0.4840
  178SLPC  H18Y20387   2.660   1.836   8.676 -0.1686  0.9599 -1.1572
  178SLPC  H18Z20388   2.652   1.906   8.829  1.0425 -0.6012 -1.4013
  179SLPC     N20389   2.648   3.509  10.731  0.0569  0.2780 -0.3997
  179SLPC   C1320390   2.695   3.367  10.746  0.4029 -0.0612 -0.2486
  179SLPC  H13A20391   2.699   3.338  10.850  2.0590 -1.1965 -0.5897
  179SLPC  H13B20392   2.637   3.298  10.687 -1.8396 -0.1807  1.9696
  179SLPC  H13C20393   2.793   3.369  10.700  0.6551  3.4222  0.1461
  179SLPC   C1420394   2.741   3.600  10.799 -0.3444 -0.4115 -0.5192
  179SLPC  H14A20395   2.745   3.574  10.904 -1.2004 -0.2642 -0.4424
  179SLPC  H14B20396   2.842   3.592  10.761 -0.5405 -0.4651 -1.0322
  179SLPC  H14C20397   2.700   3.700  10.789  1.3506  0.1784 -2.1180
  179SLPC   C1520398   2.504   3.520  10.791  0.0411 -0.3078 -0.0230
  179SLPC  H15A20399   2.494   3.493  10.895  3.5908  0.5143  0.6531
  179SLPC  H15B20400   2.469   3.622  10.776 -0.8587 -0.6244 -0.1511
  179SLPC  H15C20401   2.432   3.464  10.733  0.6331 -2.0318  0.8576
  179SLPC   C1220402   2.638   3.543  10.583 -0.3357 -0.3320  0.4489
  179SLPC  H12A20403   2.730   3.534  10.527 -0.6646 -0.8411 -0.0215
  179SLPC  H12B20404   2.608   3.647  10.575  0.3255 -0.2191 -1.1212
  179SLPC   C1120405   2.527   3.466  10.493  0.6139  0.6690  0.2915
  179SLPC  H11A20406   2.533   3.356  10.505 -0.1712  0.5717 -0.0999
  179SLPC  H11B20407   2.551   3.498  10.389  0.8397  1.2342  0.5135
  179SLPC     P20408   2.330   3.626  10.483  0.1143 -0.2754 -0.1571
  179SLPC   O1320409   2.200   3.643  10.557  0.0866 -0.8009  0.6062
  179SLPC   O1420410   2.424   3.742  10.487 -0.5291 -0.2614 -0.3038
  179SLPC   O1220411   2.397   3.493  10.539 -0.0828 -0.4464  0.1803
  179SLPC   O1120412   2.297   3.587  10.328 -0.0489  0.3286 -0.2840
  179SLPC    C120413   2.266   3.454  10.294  0.3596 -0.4297 -0.0500
  179SLPC    HA20414   2.344   3.385  10.332 -0.1251 -0.7281  0.4167
  179SLPC    HB20415   2.171   3.408  10.329 -0.7245  1.1735 -0.7754
  179SLPC    C220416   2.263   3.431  10.141 -0.3470 -0.3909 -0.0976
  179SLPC    HS20417   2.237   3.325  10.124 -1.5179 -0.2334  0.5770
  179SLPC   O2120418   2.390   3.478  10.084 -0.2188  0.3416 -0.4890
  179SLPC   C2120419   2.481   3.382  10.082  0.1469 -0.7406  0.1408
  179SLPC   O2220420   2.454   3.275  10.131  0.1104  0.4969  0.6080
  179SLPC   C2220421   2.617   3.437  10.031 -0.1116  0.4245 -0.3039
  179SLPC   H2R20422   2.630   3.541  10.067 -0.4418 -0.0229  1.1766
  179SLPC   H2S20423   2.691   3.370  10.080 -0.5959  2.0347  2.8570
  179SLPC    C320424   2.139   3.517  10.088 -0.2839 -0.1670 -0.5400
  179SLPC    HX20425   2.147   3.627  10.105  0.2770 -0.1753 -0.7148
  179SLPC    HY20426   2.039   3.489  10.127  0.0500 -2.7861 -1.3287
  179SLPC   O3120427   2.131   3.496   9.953 -0.5338  0.0418  0.0264
  179SLPC   C3120428   2.090   3.373   9.904 -0.2231 -0.5730  0.0990
  179SLPC   O3220429   2.063   3.276   9.972 -0.3743  0.5625  0.4180
  179SLPC   C3220430   2.080   3.382   9.758 -0.1306 -0.1762  0.3796
  179SLPC   H2X20431   1.984   3.432   9.734  0.3798  0.3291 -0.6457
  179SLPC   H2Y20432   2.076   3.282   9.711  0.7203 -0.2158  0.3864
  179SLPC   C2320433   2.638   3.434   9.878 -0.8107  0.5833 -0.1665
  179SLPC   H3R20434   2.623   3.331   9.838  0.8414  1.2141 -2.6606
  179SLPC   H3S20435   2.744   3.463   9.859 -0.5898 -0.6125 -0.9094
  179SLPC   C2420436   2.562   3.544   9.805  0.8719 -0.7089  1.1727
  179SLPC   H4R20437   2.582   3.643   9.851  0.1868 -0.4661  0.9623
  179SLPC   H4S20438   2.453   3.522   9.799  0.9448 -1.1014  1.2110
  179SLPC   C2520439   2.597   3.544   9.653  0.1183  0.2121  0.4180
  179SLPC   H5R20440   2.594   3.443   9.605 -1.1266  0.2607  0.3525
  179SLPC   H5S20441   2.706   3.559   9.643 -0.0215  1.2924  0.3910
  179SLPC   C2620442   2.524   3.652   9.572 -0.5519  0.4436 -0.4436
  179SLPC   H6R20443   2.463   3.716   9.639 -1.2866 -1.3543  0.6838
  179SLPC   H6S20444   2.444   3.618   9.503  1.5239 -1.0902 -2.2607
  179SLPC   C2720445   2.618   3.741   9.478  0.3616  0.1017 -0.1111
  179SLPC   H7R20446   2.709   3.690   9.439 -0.7098 -2.0172  0.0206
  179SLPC   H7S20447   2.652   3.836   9.524  0.2275  0.9258 -1.6388
  179SLPC   C2820448   2.539   3.795   9.353  0.3461 -0.5995 -0.9086
  179SLPC   H8R20449   2.577   3.899   9.343 -1.3970  0.0544 -1.0187
  179SLPC   H8S20450   2.435   3.818   9.383  0.2894  0.4160 -1.8577
  179SLPC   C2920451   2.547   3.714   9.232 -0.3394 -0.0016  0.8321
  179SLPC   H9R20452   2.500   3.616   9.241  1.3141 -0.8726  0.4418
  179SLPC  C21020453   2.618   3.737   9.121 -0.0618 -0.2556  0.3614
  179SLPC  H10R20454   2.605   3.669   9.036  1.5389 -2.3530  1.6857
  179SLPC  C21120455   2.706   3.854   9.085 -0.4420 -0.6349 -0.0014
  179SLPC  H11R20456   2.791   3.846   9.156 -2.8300 -2.1319  2.9478
  179SLPC  H11S20457   2.643   3.940   9.116  2.0387  1.0997  0.5236
  179SLPC  C21220458   2.750   3.868   8.935 -0.0037  0.0384  0.2492
  179SLPC  H12R20459   2.850   3.828   8.913  0.2106  0.0814  1.0835
  179SLPC  C21320460   2.678   3.926   8.836 -0.6438 -0.0155 -0.8246
  179SLPC  H13R20461   2.720   3.920   8.734 -0.1576 -0.4517 -0.5991
  179SLPC  C21420462   2.549   3.992   8.843  0.3290  0.9266  0.2151
  179SLPC  H14R20463   2.499   3.963   8.938 -3.9433 -1.6408 -2.4319
  179SLPC  H14S20464   2.493   3.935   8.765  2.7745 -2.1664  0.4923
  179SLPC  C21520465   2.558   4.145   8.848 -0.1556  0.2614  0.7356
  179SLPC  H15R20466   2.644   4.180   8.909  0.8390 -2.3953  1.0264
  179SLPC  H15S20467   2.467   4.192   8.890 -1.4563 -0.8977 -0.6569
  179SLPC  C21620468   2.565   4.208   8.707 -0.2977  0.0368 -0.5126
  179SLPC  H16R20469   2.485   4.162   8.645 -0.1577 -2.3655  0.9597
  179SLPC  H16S20470   2.668   4.186   8.674  0.1301 -0.7120  1.2055
  179SLPC  C21720471   2.543   4.358   8.716  0.2916  0.2347  0.4301
  179SLPC  H17R20472   2.609   4.405   8.792 -0.1377 -1.2816  1.8186
  179SLPC  H17S20473   2.440   4.376   8.754  0.3842  0.1299  0.7371
  179SLPC  C21820474   2.545   4.425   8.580 -0.4053 -0.2704  0.6064
  179SLPC  H18R20475   2.504   4.367   8.495  1.4253  0.8304 -1.1227
  179SLPC  H18S20476   2.653   4.439   8.554 -1.3055  1.2888 -3.0237
  179SLPC  H18T20477   2.491   4.522   8.570 -0.7559 -0.4645  0.6298
  179SLPC   C3320478   2.184   3.460   9.681  0.3593  0.0221 -0.1275
  179SLPC   H3X20479   2.283   3.412   9.698  1.1678  2.2922  2.3252
  179SLPC   H3Y20480   2.192   3.569   9.704  0.5354 -0.4327  2.3056
  179SLPC   C3420481   2.147   3.445   9.529  0.8935 -0.5928  0.3468
  179SLPC   H4X20482   2.105   3.345   9.507 -0.2425  0.1613 -1.1214
  179SLPC   H4Y20483   2.243   3.462   9.476  1.2110  2.3137  1.6416
  179SLPC   C3520484   2.053   3.559   9.487  0.1371  0.0384 -0.1274
  179SLPC   H5X20485   2.096   3.656   9.520 -0.5657 -0.4594  2.4329
  179SLPC   H5Y20486   1.958   3.545   9.542 -0.1473  1.7025 -0.1475
  179SLPC   C3620487   2.018   3.565   9.342 -0.3172  0.5540  0.2711
  179SLPC   H6X20488   1.927   3.627   9.329 -0.9238 -0.6700 -1.5920
  179SLPC   H6Y20489   1.984   3.464   9.310  0.5646 -0.3692  2.0870
  179SLPC   C3720490   2.136   3.606   9.249  0.7425  0.4151 -0.0530
  179SLPC   H7X20491   2.230   3.554   9.278 -0.2920 -2.2323 -1.2115
  179SLPC   H7Y20492   2.156   3.715   9.259  0.8729  0.5424 -1.4329
  179SLPC   C3820493   2.107   3.580   9.103 -0.6083 -0.6845  0.8675
  179SLPC   H8X20494   2.024   3.644   9.067 -0.1388  0.4922  1.8015
  179SLPC   H8Y20495   2.067   3.479   9.079  0.5292 -0.5413 -2.0531
  179SLPC   C3920496   2.237   3.599   9.023 -0.4000 -0.3778  0.2774
  179SLPC   H9X20497   2.317   3.543   9.077  0.9162 -0.3750 -1.5722
  179SLPC   H9Y20498   2.256   3.708   9.020 -1.0596 -0.2837 -1.9678
  179SLPC  C31020499   2.235   3.547   8.882 -0.3256  0.2420 -0.5849
  179SLPC  H10X20500   2.162   3.615   8.832 -1.3935 -1.2799 -1.1896
  179SLPC  H10Y20501   2.182   3.449   8.881  0.3941 -0.1544 -0.1724
  179SLPC  C31120502   2.370   3.551   8.823  0.4309 -0.4722  0.2967
  179SLPC  H11X20503   2.433   3.478   8.878  1.8457 -0.1392 -0.8429
  179SLPC  H11Y20504   2.409   3.655   8.817  1.9895 -0.8752  2.3254
  179SLPC  C31220505   2.355   3.509   8.672 -1.1211  0.6226  0.3224
  179SLPC  H12X20506   2.291   3.574   8.608  0.4417  1.7063 -0.1977
  179SLPC  H12Y20507   2.305   3.410   8.674 -0.5602  0.3392  0.4708
  179SLPC  C31320508   2.498   3.496   8.598 -0.4903 -0.0030  0.6468
  179SLPC  H13X20509   2.474   3.448   8.500 -1.5113 -0.8937  1.3189
  179SLPC  H13Y20510   2.559   3.427   8.659  1.0124  1.1149  0.4578
  179SLPC  C31420511   2.586   3.620   8.568 -0.0249 -0.3763 -0.5186
  179SLPC  H14X20512   2.616   3.666   8.665  1.5636 -0.6541 -0.8513
  179SLPC  H14Y20513   2.517   3.694   8.522  1.8839  1.5058 -0.4925
  179SLPC  C31520514   2.704   3.584   8.481 -0.0216  0.0567  0.3338
  179SLPC  H15X20515   2.653   3.534   8.396 -2.4338 -3.8218  3.7413
  179SLPC  H15Y20516   2.764   3.510   8.537  0.5810  2.0238  2.4394
  179SLPC  C31620517   2.805   3.696   8.458  0.5283 -0.4882 -0.1647
  179SLPC  H16X20518   2.904   3.655   8.427  1.3028  0.7854  0.5277
  179SLPC  H16Y20519   2.820   3.751   8.553 -1.1997  1.9507 -1.2055
  179SLPC  C31720520   2.753   3.806   8.350 -0.2367  0.5822 -0.9868
  179SLPC  H17X20521   2.827   3.889   8.349  0.9950 -0.4841 -0.2152
  179SLPC  H17Y20522   2.657   3.845   8.391 -0.3064  1.2965 -1.7995
  179SLPC  C31820523   2.750   3.751   8.216  0.2203 -0.2141 -0.1483
  179SLPC  H18X20524   2.713   3.647   8.208 -1.3246  0.4799 -3.5732
  179SLPC  H18Y20525   2.855   3.745   8.180  0.2118  0.5626 -0.3267
  179SLPC  H18Z20526   2.703   3.809   8.134 -0.0636  1.8771  1.3898
  180SLPC     N20527   2.848   0.598  10.855  0.3156  0.7391 -0.1023
  180SLPC   C1320528   2.702   0.628  10.893 -0.2800  0.4374  0.1690
  180SLPC  H13A20529   2.645   0.655  10.806 -1.3999 -0.0197  0.7389
  180SLPC  H13B20530   2.665   0.541  10.945  1.7377 -0.6944 -0.1922
  180SLPC  H13C20531   2.709   0.716  10.956 -0.9290  2.7687 -2.8100
  180SLPC   C1420532   2.859   0.460  10.791  0.5305  0.1022  0.0785
  180SLPC  H14A20533   2.818   0.452  10.691  0.5922 -0.9297  0.1216
  180SLPC  H14B20534   2.964   0.436  10.784  1.0080  1.3313  2.1604
  180SLPC  H14C20535   2.804   0.387  10.848  1.6856 -0.9821 -0.1488
  180SLPC   C1520536   2.933   0.586  10.983  0.5361 -0.0643 -0.3253
  180SLPC  H15A20537   2.900   0.665  11.048 -0.2401  0.2399 -1.0767
  180SLPC  H15B20538   2.923   0.493  11.037 -1.0547  0.0443 -0.3917
  180SLPC  H15C20539   3.036   0.598  10.952  0.0725 -1.2044 -2.5073
  180SLPC   C1220540   2.901   0.714  10.779  0.4659  0.2276 -0.1763
  180SLPC  H12A20541   2.838   0.726  10.692  0.1995  1.7608  0.2013
  180SLPC  H12B20542   3.005   0.687  10.762  0.1524 -0.4435 -1.0929
  180SLPC   C1120543   2.914   0.855  10.858  0.4444 -0.6951 -0.2682
  180SLPC  H11A20544   2.820   0.863  10.918  1.1346  3.4816  0.5215
  180SLPC  H11B20545   2.924   0.935  10.781  0.7698  1.3857  1.8296
  180SLPC     P20546   3.108   0.992  10.982 -0.4029  0.3877 -0.0685
  180SLPC   O1320547   3.004   1.076  11.044 -0.0616 -0.1831 -0.4717
  180SLPC   O1420548   3.218   0.953  11.067 -0.6983  1.1088  0.2756
  180SLPC   O1220549   3.032   0.853  10.934  0.2504 -0.6247  0.2453
  180SLPC   O1120550   3.156   1.061  10.842  0.1407 -0.0351 -0.1747
  180SLPC    C120551   3.239   0.983  10.763  0.6527  0.2935  0.3050
  180SLPC    HA20552   3.338   0.957  10.805  0.8986 -0.6662 -0.8053
  180SLPC    HB20553   3.184   0.890  10.735  0.0163  0.7084  0.1379
  180SLPC    C220554   3.277   1.052  10.625 -0.0532 -0.6307  0.4244
  180SLPC    HS20555   3.305   1.153  10.660  1.8859 -1.4666  1.4317
  180SLPC   O2120556   3.162   1.061  10.537 -0.1338 -0.4337  0.1997
  180SLPC   C2120557   3.100   1.177  10.529 -0.3957  0.0591  0.3190
  180SLPC   O2220558   3.138   1.285  10.575 -0.1383 -0.0285 -0.2893
  180SLPC   C2220559   2.963   1.161  10.458  0.3521  0.5641 -0.4327
  180SLPC   H2R20560   2.902   1.082  10.506  1.3211 -0.5617 -0.9906
  180SLPC   H2S20561   2.902   1.253  10.470  0.1891  0.5037 -0.7800
  180SLPC    C320562   3.391   0.983  10.551 -0.1484 -0.3877 -0.3889
  180SLPC    HX20563   3.355   0.879  10.545  1.3262 -0.9723  0.3377
  180SLPC    HY20564   3.487   0.973  10.606 -0.3747  1.6687  0.4843
  180SLPC   O3120565   3.408   1.037  10.416 -0.3345 -0.6669 -0.3462
  180SLPC   C3120566   3.479   1.153  10.409 -0.8451 -0.1119  0.4280
  180SLPC   O3220567   3.548   1.190  10.499  0.0254 -0.3710 -0.4266
  180SLPC   C3220568   3.469   1.201  10.264 -0.0768 -0.0183  0.2591
  180SLPC   H2X20569   3.392   1.154  10.199 -0.8626  1.2392  0.2575
  180SLPC   H2Y20570   3.569   1.189  10.216 -0.3953  1.2002 -0.7589
  180SLPC   C2320571   2.995   1.129  10.312 -0.2766 -0.0886 -0.4833
  180SLPC   H3R20572   2.904   1.086  10.264  0.4569 -2.2578 -0.0243
  180SLPC   H3S20573   3.072   1.049  10.317 -0.1212  0.1357  1.3282
  180SLPC   C2420574   3.034   1.255  10.240  0.3446  0.1350 -0.3463
  180SLPC   H4R20575   3.124   1.304  10.283  0.4743 -0.3708 -0.0422
  180SLPC   H4S20576   2.943   1.314  10.263 -0.0168 -0.0483 -1.2452
  180SLPC   C2520577   3.058   1.219  10.090  0.2976 -0.1154  0.5155
  180SLPC   H5R20578   3.001   1.127  10.066 -0.0086  0.4503 -1.0917
  180SLPC   H5S20579   3.164   1.193  10.068 -0.2744 -3.0306  0.8749
  180SLPC   C2620580   3.013   1.327   9.991 -0.6599  0.0679  0.7346
  180SLPC   H6R20581   3.087   1.408  10.009 -1.4995  0.9898  0.1312
  180SLPC   H6S20582   2.914   1.367  10.022 -0.9624  1.2147 -1.5141
  180SLPC   C2720583   3.005   1.286   9.840 -0.5358  0.0118  0.1868
  180SLPC   H7R20584   2.939   1.198   9.822 -0.3350  0.0155 -0.6013
  180SLPC   H7S20585   3.101   1.245   9.803 -0.3252  1.3105 -0.7432
  180SLPC   C2820586   2.966   1.406   9.751 -0.4559 -0.2982  0.2329
  180SLPC   H8R20587   3.050   1.479   9.757 -0.7055  1.0068 -5.8035
  180SLPC   H8S20588   2.877   1.452   9.798 -0.7084 -0.7054  0.1608
  180SLPC   C2920589   2.937   1.375   9.605  0.0018  0.0734 -0.0032
  180SLPC   H9R20590   3.012   1.413   9.534 -1.6724  0.6768 -1.5031
  180SLPC  C21020591   2.832   1.308   9.560  0.0280  0.4845 -0.2346
  180SLPC  H10R20592   2.817   1.303   9.451 -2.3012  2.2319 -0.0698
  180SLPC  C21120593   2.718   1.245   9.644  0.2441  0.3691  0.4504
  180SLPC  H11R20594   2.623   1.298   9.623 -0.1076  0.0493  1.1901
  180SLPC  H11S20595   2.735   1.254   9.754 -1.6826  1.1754  0.7103
  180SLPC  C21220596   2.705   1.100   9.601 -0.3080  0.3916 -0.1192
  180SLPC  H12R20597   2.746   1.023   9.667 -1.1460  0.8926  1.0066
  180SLPC  C21320598   2.641   1.057   9.492 -0.6886 -0.3037 -0.2378
  180SLPC  H13R20599   2.607   0.953   9.492  0.1549 -0.6063  1.3302
  180SLPC  C21420600   2.570   1.136   9.389 -0.6398 -0.4424 -0.0164
  180SLPC  H14R20601   2.594   1.244   9.399 -0.7663 -0.1094 -2.6137
  180SLPC  H14S20602   2.460   1.119   9.394 -0.8092 -0.7032 -2.9749
  180SLPC  C21520603   2.609   1.089   9.249 -0.5077  0.5955 -0.7399
  180SLPC  H15R20604   2.573   0.985   9.235  2.6002 -0.9335  1.4146
  180SLPC  H15S20605   2.720   1.081   9.242 -0.4311 -1.0859  1.4989
  180SLPC  C21620606   2.542   1.157   9.131 -0.3953  0.3113 -1.3941
  180SLPC  H16R20607   2.433   1.171   9.147 -0.7578 -1.4397 -2.0317
  180SLPC  H16S20608   2.547   1.092   9.040 -0.7992 -1.0327 -0.4818
  180SLPC  C21720609   2.613   1.287   9.094 -0.6287  0.1835  0.5442
  180SLPC  H17R20610   2.723   1.275   9.082 -0.1866  0.6665  3.5159
  180SLPC  H17S20611   2.606   1.355   9.181 -0.1468  1.7059 -0.5643
  180SLPC  C21820612   2.561   1.349   8.962  0.2285 -0.1323  0.0959
  180SLPC  H18R20613   2.451   1.333   8.953  0.4716 -1.1903 -1.0622
  180SLPC  H18S20614   2.607   1.298   8.876 -0.0430  0.6318 -0.5203
  180SLPC  H18T20615   2.582   1.458   8.956  0.6132 -0.1095  1.3874
  180SLPC   C3320616   3.442   1.355  10.271 -0.1933  0.1261 -0.2610
  180SLPC   H3X20617   3.521   1.408  10.328 -1.4597  2.3078 -0.4212
  180SLPC   H3Y20618   3.345   1.369  10.325  0.8317  0.9522  1.4568
  180SLPC   C3420619   3.449   1.432  10.137 -0.4330  0.5244 -0.4133
  180SLPC   H4X20620   3.376   1.386  10.067  0.9030  0.1471 -1.6036
  180SLPC   H4Y20621   3.542   1.391  10.093 -0.7278 -0.9563  0.2688
  180SLPC   C3520622   3.427   1.580  10.156 -0.2512  0.0130  0.1332
  180SLPC   H5X20623   3.528   1.619  10.183 -0.5837  0.9906  0.0074
  180SLPC   H5Y20624   3.366   1.587  10.248 -0.2107  0.3910  0.1350
  180SLPC   C3620625   3.359   1.656  10.050  0.5812 -0.1697 -0.2154
  180SLPC   H6X20626   3.342   1.763  10.075  0.0771  0.4278 -2.8921
  180SLPC   H6Y20627   3.263   1.601  10.045  1.1433 -1.0897 -1.7853
  180SLPC   C3720628   3.421   1.637   9.914  0.4483  0.0670  1.2472
  180SLPC   H7X20629   3.523   1.594   9.913  0.3921 -0.1321  2.7008
  180SLPC   H7Y20630   3.430   1.740   9.871 -3.1658 -0.0818 -0.2187
  180SLPC   C3820631   3.328   1.559   9.821 -0.8401  0.5528 -0.0628
  180SLPC   H8X20632   3.229   1.609   9.825 -1.4362 -0.4484 -1.4406
  180SLPC   H8Y20633   3.326   1.452   9.851  0.6466  0.2548 -0.8925
  180SLPC   C3920634   3.383   1.565   9.677  0.3906  0.6126  0.0462
  180SLPC   H9X20635   3.480   1.511   9.675 -0.8292 -1.6964  0.1751
  180SLPC   H9Y20636   3.396   1.674   9.663  0.3635  0.6810  0.5157
  180SLPC  C31020637   3.291   1.493   9.573  0.3087 -0.2458 -0.8621
  180SLPC  H10X20638   3.194   1.544   9.556 -0.6473 -1.9457 -0.7090
  180SLPC  H10Y20639   3.256   1.398   9.618  2.1001 -0.5531 -0.0426
  180SLPC  C31120640   3.365   1.476   9.447  0.2307  0.1595  0.5548
  180SLPC  H11X20641   3.459   1.426   9.479 -1.2811 -0.8461  3.8619
  180SLPC  H11Y20642   3.381   1.574   9.396  0.6739 -0.0003  0.3751
  180SLPC  C31220643   3.310   1.388   9.333  0.6364  0.6848 -1.2308
  180SLPC  H12X20644   3.205   1.412   9.309  1.1922  1.7920 -2.7464
  180SLPC  H12Y20645   3.303   1.283   9.366  1.2019  1.6487  2.3735
  180SLPC  C31320646   3.392   1.388   9.197 -0.6197  0.0390 -0.5164
  180SLPC  H13X20647   3.392   1.489   9.151 -1.0372  0.0679 -0.4628
  180SLPC  H13Y20648   3.343   1.303   9.144  0.9729 -2.1245  1.3241
  180SLPC  C31420649   3.544   1.341   9.207  0.1766  0.0290  0.1932
  180SLPC  H14X20650   3.546   1.236   9.242  0.8289 -0.5429 -1.5054
  180SLPC  H14Y20651   3.601   1.403   9.280  1.5402 -0.9226 -0.0389
  180SLPC  C31520652   3.627   1.345   9.082 -0.0567 -0.0538 -0.1591
  180SLPC  H15X20653   3.723   1.294   9.104 -0.7751 -0.8220  1.4029
  180SLPC  H15Y20654   3.659   1.444   9.044 -1.6860  0.1887 -0.9990
  180SLPC  C31620655   3.564   1.269   8.968 -0.3766  0.0043 -0.0878
  180SLPC  H16X20656   3.462   1.314   8.960 -0.5258 -0.0100  1.4477
  180SLPC  H16Y20657   3.561   1.161   8.994  1.2449  0.2543  1.3494
  180SLPC  C31720658   3.636   1.290   8.833 -0.6954  0.7503 -0.0988
  180SLPC  H17X20659   3.744   1.266   8.846 -0.5212  0.5043 -1.7070
  180SLPC  H17Y20660   3.626   1.400   8.821  0.7075  0.9574  0.4209
  180SLPC  C31820661   3.571   1.217   8.713  0.2551 -0.4651 -0.3210
  180SLPC  H18X20662   3.646   1.245   8.636 -0.4005 -0.1913 -0.8665
  180SLPC  H18Y20663   3.465   1.247   8.697  0.9123  0.9712 -2.4968
  180SLPC  H18Z20664   3.577   1.106   8.716 -0.5598 -0.5811 -1.8487
  181SLPC     N20665   2.176   5.269  11.325 -0.1983  0.3904  0.0247
  181SLPC   C1320666   2.180   5.230  11.465  0.3500  0.7588 -0.7489
  181SLPC  H13A20667   2.192   5.316  11.529 -0.8663 -0.4325  1.2102
  181SLPC  H13B20668   2.083   5.186  11.488  0.2948  1.6076  0.8136
  181SLPC  H13C20669   2.253   5.155  11.490  1.4955  1.6417 -1.3800
  181SLPC   C1420670   2.136   5.151  11.247 -0.2735 -0.9283 -0.1812
  181SLPC  H14A20671   2.032   5.130  11.262 -0.4565  0.5455  0.8404
  181SLPC  H14B20672   2.142   5.170  11.140  0.2910  0.3292  0.0538
  181SLPC  H14C20673   2.195   5.062  11.261  1.6693  0.1906 -0.6807
  181SLPC   C1520674   2.309   5.322  11.280  0.3944 -0.6081 -0.4052
  181SLPC  H15A20675   2.389   5.251  11.269 -0.3008 -1.2230 -1.8237
  181SLPC  H15B20676   2.296   5.362  11.181  0.0382  2.2883  0.7099
  181SLPC  H15C20677   2.333   5.401  11.349 -2.0348  0.7879 -1.0183
  181SLPC   C1220678   2.059   5.369  11.309 -0.4782 -0.2843  0.6663
  181SLPC  H12A20679   2.042   5.380  11.203  0.1006 -2.1913  0.3431
  181SLPC  H12B20680   2.093   5.464  11.347  0.0306 -1.2555  2.8003
  181SLPC   C1120681   1.917   5.338  11.366  1.4234  0.1933  0.7026
  181SLPC  H11A20682   1.864   5.430  11.334 -1.3350 -0.5265  2.7884
  181SLPC  H11B20683   1.927   5.339  11.477  1.0271 -0.2505  0.7466
  181SLPC     P20684   1.721   5.194  11.253  0.1971 -0.2152 -0.2342
  181SLPC   O1320685   1.682   5.054  11.270 -0.6838 -0.2696  0.4204
  181SLPC   O1420686   1.647   5.292  11.321  0.1987  0.2209  0.1096
  181SLPC   O1220687   1.866   5.215  11.312  1.0377  0.0852  0.3548
  181SLPC   O1120688   1.715   5.249  11.103 -0.1772  0.0125  0.8414
  181SLPC    C120689   1.844   5.256  11.037 -0.2189 -0.0722 -0.3768
  181SLPC    HA20690   1.884   5.360  11.039  0.1027 -0.1955 -0.2711
  181SLPC    HB20691   1.929   5.197  11.078 -0.9725 -1.3823 -0.6308
  181SLPC    C220692   1.829   5.238  10.882 -0.1424  0.3690 -0.3815
  181SLPC    HS20693   1.933   5.235  10.841 -0.6670  0.6916 -1.7681
  181SLPC   O2120694   1.741   5.339  10.830 -0.1847 -0.2256  0.0552
  181SLPC   C2120695   1.795   5.427  10.754  0.4703  0.0756  0.1341
  181SLPC   O2220696   1.912   5.460  10.749  0.3359  0.1582  0.5425
  181SLPC   C2220697   1.694   5.470  10.652 -0.6305  0.3632  0.4448
  181SLPC   H2R20698   1.586   5.458  10.678 -0.6056  0.8536  0.8134
  181SLPC   H2S20699   1.716   5.578  10.636 -0.6436  0.1414 -1.1964
  181SLPC    C320700   1.762   5.100  10.839 -0.4660  0.5351  0.0066
  181SLPC    HX20701   1.654   5.093  10.863 -0.3941 -0.9374 -0.0429
  181SLPC    HY20702   1.798   5.004  10.881 -0.6235  0.6589  0.4283
  181SLPC   O3120703   1.788   5.080  10.694  0.6497 -0.0574  0.1130
  181SLPC   C3120704   1.895   5.021  10.645  0.2989  0.1939 -0.4682
  181SLPC   O3220705   1.972   4.964  10.716 -0.5373 -0.2057 -0.1077
  181SLPC   C3220706   1.909   5.051  10.496 -0.2724  0.8237 -0.0740
  181SLPC   H2X20707   1.834   5.127  10.465 -1.0158 -1.0177 -3.2710
  181SLPC   H2Y20708   1.887   4.959  10.438 -2.7120  0.8452  0.7256
  181SLPC   C2320709   1.717   5.397  10.517  0.4059 -0.0029  0.2299
  181SLPC   H3R20710   1.698   5.288  10.515 -2.2909  0.4271 -0.2009
  181SLPC   H3S20711   1.823   5.407  10.483 -0.0908 -1.9800 -2.1657
  181SLPC   C2420712   1.632   5.457  10.411  0.4996 -0.1828  0.1286
  181SLPC   H4R20713   1.531   5.481  10.451 -0.2483  1.0031 -2.2373
  181SLPC   H4S20714   1.611   5.379  10.335  0.6301  0.0313 -0.1337
  181SLPC   C2520715   1.683   5.594  10.353 -0.4085 -0.5929 -0.5082
  181SLPC   H5R20716   1.789   5.579  10.320 -0.4626  1.6861 -1.9485
  181SLPC   H5S20717   1.678   5.670  10.434  1.0907 -0.7142 -0.2656
  181SLPC   C2620718   1.595   5.650  10.245  0.3812 -0.2966 -0.4286
  181SLPC   H6R20719   1.639   5.750  10.224 -1.2429  0.0838 -2.2957
  181SLPC   H6S20720   1.492   5.678  10.275  1.2613  1.2225  1.4351
  181SLPC   C2720721   1.592   5.563  10.121 -0.1079  0.7451 -1.0332
  181SLPC   H7R20722   1.552   5.466  10.159 -0.5154  1.9319  1.7741
  181SLPC   H7S20723   1.694   5.545  10.080 -0.1800 -0.1074 -0.8621
  181SLPC   C2820724   1.504   5.620  10.006 -0.0235  0.1636  0.1106
  181SLPC   H8R20725   1.406   5.657  10.044  0.5251  0.7230  1.0053
  181SLPC   H8S20726   1.479   5.540   9.934  0.3443  0.1353  0.0123
  181SLPC   C2920727   1.584   5.738   9.948  0.5575 -0.3371 -0.7590
  181SLPC   H9R20728   1.599   5.821  10.019 -0.9115 -1.9840  1.5994
  181SLPC  C21020729   1.618   5.755   9.820  0.2113 -1.3930  0.7581
  181SLPC  H10R20730   1.681   5.843   9.800  0.5160 -2.2800 -2.7755
  181SLPC  C21120731   1.607   5.662   9.711  0.2762  0.5148 -0.2441
  181SLPC  H11R20732   1.503   5.624   9.706  0.2189  0.6392  0.0531
  181SLPC  H11S20733   1.663   5.567   9.729 -2.3401 -0.4652  3.8370
  181SLPC  C21220734   1.651   5.710   9.575  0.1196  0.6034  0.6469
  181SLPC  H12R20735   1.570   5.745   9.509 -0.0474 -2.2238 -0.8001
  181SLPC  C21320736   1.772   5.719   9.521  0.0566  0.0520  1.1295
  181SLPC  H13R20737   1.781   5.764   9.421 -0.7240 -0.1175  0.9781
  181SLPC  C21420738   1.906   5.675   9.576  0.0694 -0.9538 -0.5278
  181SLPC  H14R20739   1.906   5.623   9.674  1.0945  3.1505  1.8970
  181SLPC  H14S20740   1.963   5.769   9.588 -1.6550  0.2535 -1.3395
  181SLPC  C21520741   1.991   5.587   9.473 -0.1391 -0.2408  0.1497
  181SLPC  H15R20742   1.927   5.501   9.444 -0.7331  0.0412  0.6084
  181SLPC  H15S20743   2.078   5.548   9.530 -0.6048  1.6476  2.2885
  181SLPC  C21620744   2.034   5.661   9.344  0.7591  0.0128 -0.2993
  181SLPC  H16R20745   2.110   5.737   9.376  1.2126 -0.6391  0.2083
  181SLPC  H16S20746   1.939   5.704   9.306  0.0661 -1.0303  0.2302
  181SLPC  C21720747   2.106   5.581   9.240 -0.4261 -0.4638 -0.2767
  181SLPC  H17R20748   2.060   5.481   9.227  1.6523 -1.4989 -0.0165
  181SLPC  H17S20749   2.211   5.563   9.269 -0.0480 -0.8315 -1.7910
  181SLPC  C21820750   2.113   5.663   9.107 -0.4264  0.5119 -1.0948
  181SLPC  H18R20751   2.012   5.667   9.059 -0.8719  2.6197 -0.0836
  181SLPC  H18S20752   2.191   5.616   9.043  1.1759 -1.1933  1.8829
  181SLPC  H18T20753   2.157   5.763   9.126  1.4457 -0.4476 -0.0871
  181SLPC   C3320754   2.051   5.098  10.453 -0.2248 -0.2327  0.3221
  181SLPC   H3X20755   2.126   5.029  10.498  1.1243  0.8147 -0.2565
  181SLPC   H3Y20756   2.070   5.192  10.509 -1.5055  0.7212 -0.7927
  181SLPC   C3420757   2.069   5.127  10.302 -0.4120  0.1884  0.0567
  181SLPC   H4X20758   2.057   5.029  10.250 -1.5531 -1.0567  2.4902
  181SLPC   H4Y20759   2.176   5.154  10.290 -0.5885  0.6214 -0.5833
  181SLPC   C3520760   1.975   5.233  10.232  0.0976  0.0505  0.2263
  181SLPC   H5X20761   2.002   5.336  10.262 -1.4942  1.1410 -1.8503
  181SLPC   H5Y20762   1.872   5.215  10.270  1.5968 -0.8306  4.4225
  181SLPC   C3620763   1.958   5.222  10.079 -0.2433  0.0547  0.4099
  181SLPC   H6X20764   1.934   5.116  10.059  0.4333 -0.0769  0.2668
  181SLPC   H6Y20765   2.046   5.242  10.014 -0.8895 -0.5301 -0.6712
  181SLPC   C3720766   1.839   5.304  10.029 -0.2443  0.3013 -0.5567
  181SLPC   H7X20767   1.834   5.400  10.085 -0.9845  0.0484 -0.1882
  181SLPC   H7Y20768   1.743   5.252  10.049  0.8008 -1.8040 -0.7693
  181SLPC   C3820769   1.848   5.328   9.882  0.4466 -0.5949 -0.8048
  181SLPC   H8X20770   1.938   5.383   9.846 -0.3238 -0.1118 -2.0593
  181SLPC   H8Y20771   1.758   5.389   9.861  2.5656  3.0246 -0.1978
  181SLPC   C3920772   1.838   5.204   9.788  0.0477 -0.3851 -0.2998
  181SLPC   H9X20773   1.766   5.128   9.824  1.1247 -2.1618 -1.7217
  181SLPC   H9Y20774   1.940   5.161   9.800  0.6519  1.5223  2.1360
  181SLPC  C31020775   1.836   5.240   9.641  0.2025  0.1816 -0.3127
  181SLPC  H10X20776   1.919   5.307   9.610 -0.0640  0.6329 -0.0684
  181SLPC  H10Y20777   1.743   5.299   9.623 -0.6736  0.2108  3.3805
  181SLPC  C31120778   1.828   5.116   9.557  0.4063 -0.9409 -0.5645
  181SLPC  H11X20779   1.746   5.050   9.594  1.3678 -3.1512 -2.1546
  181SLPC  H11Y20780   1.926   5.064   9.569  0.8819  0.1019  0.3522
  181SLPC  C31220781   1.821   5.156   9.410  0.3086  0.4153 -0.4833
  181SLPC  H12X20782   1.923   5.187   9.378  1.3544 -0.7102  1.5099
  181SLPC  H12Y20783   1.745   5.235   9.393  0.0336  0.2157 -0.1928
  181SLPC  C31320784   1.775   5.037   9.326  0.1154  0.4162  0.3942
  181SLPC  H13X20785   1.665   5.025   9.322 -0.0449  1.8429 -2.6893
  181SLPC  H13Y20786   1.836   4.948   9.350 -1.7272 -0.6448  1.3563
  181SLPC  C31420787   1.824   5.052   9.173  0.3859 -1.6249  0.7510
  181SLPC  H14X20788   1.931   5.080   9.172 -0.0910  0.2747 -0.2392
  181SLPC  H14Y20789   1.758   5.126   9.125  0.1517 -1.4816  1.2895
  181SLPC  C31520790   1.811   4.921   9.094  0.1099  0.1977 -0.2010
  181SLPC  H15X20791   1.706   4.888   9.110 -0.0382  0.7635  0.0121
  181SLPC  H15Y20792   1.880   4.845   9.136  2.5964  2.9055  0.9108
  181SLPC  C31620793   1.860   4.953   8.954 -0.8068  0.8477  0.0351
  181SLPC  H16X20794   1.971   4.959   8.957 -0.3610 -3.8438  0.6683
  181SLPC  H16Y20795   1.811   5.047   8.923  0.5107  1.7510  0.6437
  181SLPC  C31720796   1.809   4.836   8.861 -0.2650  0.0840  0.0415
  181SLPC  H17X20797   1.869   4.860   8.771 -1.4475 -0.7484 -1.0069
  181SLPC  H17Y20798   1.698   4.842   8.855 -0.3603 -1.7876 -0.9355
  181SLPC  C31820799   1.841   4.689   8.908 -0.2786  0.4324  0.0413
  181SLPC  H18X20800   1.952   4.676   8.915 -0.0951  2.4430  1.6167
  181SLPC  H18Y20801   1.807   4.610   8.837  0.6885  0.6062 -0.6476
  181SLPC  H18Z20802   1.797   4.670   9.008 -1.0044 -1.3707 -0.5749
  182SLPC     N20803   5.836   0.660  10.908  0.2038  0.1747  0.4269
  182SLPC   C1320804   5.904   0.668  10.770  0.4675  0.0742 -0.4833
  182SLPC  H13A20805   5.946   0.765  10.751  2.0540 -0.1445  1.5970
  182SLPC  H13B20806   5.983   0.595  10.757 -0.2389 -0.8810  0.3671
  182SLPC  H13C20807   5.826   0.635  10.702 -0.9171  0.1827  0.9824
  182SLPC   C1420808   5.758   0.791  10.916  0.4708 -0.1762 -0.5103
  182SLPC  H14A20809   5.673   0.793  10.849 -0.6085  1.0516  0.8462
  182SLPC  H14B20810   5.731   0.797  11.020  1.2571  2.5575 -0.3745
  182SLPC  H14C20811   5.823   0.875  10.896  1.0835 -0.0209  1.8423
  182SLPC   C1520812   5.937   0.655  11.013 -0.0221  0.5238 -0.7647
  182SLPC  H15A20813   5.890   0.649  11.110 -0.2745 -0.3910 -0.9365
  182SLPC  H15B20814   6.011   0.577  11.001  0.3997  0.6176  0.9455
  182SLPC  H15C20815   6.002   0.741  11.008  1.6831 -0.7613 -2.2130
  182SLPC   C1220816   5.747   0.537  10.926  0.4108  0.1483  0.1228
  182SLPC  H12A20817   5.684   0.545  11.013 -0.5384 -2.1759 -0.2688
  182SLPC  H12B20818   5.801   0.445  10.942  0.5722  0.2573  0.2066
  182SLPC   C1120819   5.653   0.508  10.809 -0.0499  0.4367  1.2213
  182SLPC  H11A20820   5.596   0.413  10.817 -1.5167  0.9319 -1.7114
  182SLPC  H11B20821   5.701   0.471  10.716 -1.1585 -1.6829  1.4213
  182SLPC     P20822   5.442   0.642  10.904  0.1249 -0.0077 -0.0939
  182SLPC   O1320823   5.424   0.534  11.008 -0.0597 -0.1659  0.1357
  182SLPC   O1420824   5.474   0.778  10.946 -0.0613  0.0663 -0.2893
  182SLPC   O1220825   5.548   0.607  10.791  0.2443  0.0450  0.5424
  182SLPC   O1120826   5.310   0.642  10.831 -0.3817 -0.0554  0.5475
  182SLPC    C120827   5.261   0.750  10.754  0.5904  0.2340 -0.7132
  182SLPC    HA20828   5.160   0.768  10.796  0.8684 -1.2700  0.7090
  182SLPC    HB20829   5.317   0.845  10.759  0.9282  0.1632 -2.4397
  182SLPC    C220830   5.233   0.713  10.609 -0.3242  0.0810  0.3275
  182SLPC    HS20831   5.173   0.620  10.617  0.8650 -0.9180 -1.5195
  182SLPC   O2120832   5.360   0.692  10.542 -0.5023  0.0406 -0.1501
  182SLPC   C2120833   5.359   0.597  10.449 -0.3451 -0.4718  0.0697
  182SLPC   O2220834   5.263   0.531  10.420  0.1200  0.0068  0.7291
  182SLPC   C2220835   5.498   0.577  10.398 -0.5577  0.6815  0.0152
  182SLPC   H2R20836   5.545   0.675  10.372 -0.9761  0.8740 -0.0213
  182SLPC   H2S20837   5.552   0.529  10.483 -1.1436  0.4000  0.2318
  182SLPC    C320838   5.149   0.818  10.535 -0.0001  0.6655 -0.0495
  182SLPC    HX20839   5.215   0.906  10.518  0.6140  0.3459  0.6085
  182SLPC    HY20840   5.070   0.861  10.600  1.6582  1.7833  1.3223
  182SLPC   O3120841   5.079   0.756  10.421  0.5181  0.3096  0.0446
  182SLPC   C3120842   5.124   0.805  10.302 -0.0392  0.7033 -0.1291
  182SLPC   O3220843   5.217   0.876  10.282 -0.0085 -0.1160  0.5274
  182SLPC   C3220844   5.044   0.737  10.188  0.4090 -0.3039 -0.2172
  182SLPC   H2X20845   5.012   0.822  10.123  0.8249  1.1340  1.3803
  182SLPC   H2Y20846   4.948   0.698  10.229 -0.3128  0.9443 -0.6502
  182SLPC   C2320847   5.497   0.479  10.276 -0.0556 -0.6746  0.7099
  182SLPC   H3R20848   5.399   0.426  10.271  0.4907 -1.7624  1.2181
  182SLPC   H3S20849   5.582   0.409  10.289 -0.8117 -1.4523  1.6658
  182SLPC   C2420850   5.521   0.552  10.145 -0.3096  0.1648  0.4888
  182SLPC   H4R20851   5.619   0.602  10.156 -0.8479  1.0961  1.2594
  182SLPC   H4S20852   5.440   0.627  10.135  1.3604  1.7646 -2.4529
  182SLPC   C2520853   5.514   0.444  10.028  0.1565 -0.0627 -0.0944
  182SLPC   H5R20854   5.426   0.380  10.047  0.9312 -1.6327 -1.5279
  182SLPC   H5S20855   5.609   0.388  10.042  1.6763  2.2017 -0.8544
  182SLPC   C2620856   5.514   0.492   9.893  0.3055 -0.3206  0.5200
  182SLPC   H6R20857   5.499   0.405   9.825 -1.4569  0.5681 -0.3107
  182SLPC   H6S20858   5.615   0.534   9.876 -0.1480  0.3258 -0.7251
  182SLPC   C2720859   5.410   0.604   9.870 -0.1897 -0.2661  0.0718
  182SLPC   H7R20860   5.446   0.690   9.931 -0.9976  0.4216 -0.3980
  182SLPC   H7S20861   5.316   0.560   9.909 -0.4331  0.6629  0.5852
  182SLPC   C2820862   5.402   0.649   9.726  0.8924 -1.0943  0.4960
  182SLPC   H8R20863   5.363   0.566   9.663  0.0561 -0.1077 -0.3118
  182SLPC   H8S20864   5.504   0.671   9.689  1.2536  1.3949  2.6787
  182SLPC   C2920865   5.311   0.769   9.707 -0.2998  0.0389  0.3182
  182SLPC   H9R20866   5.274   0.807   9.803 -0.2799  0.0188  0.3339
  182SLPC  C21020867   5.259   0.819   9.596  0.3459  0.7638  0.0412
  182SLPC  H10R20868   5.198   0.911   9.592 -0.1571  0.3800 -2.1928
  182SLPC  C21120869   5.279   0.765   9.456  0.1100  0.9750  0.0791
  182SLPC  H11R20870   5.347   0.679   9.472 -1.5300 -0.2951  0.4830
  182SLPC  H11S20871   5.337   0.834   9.390  0.8715  0.1260 -0.1565
  182SLPC  C21220872   5.154   0.732   9.369 -0.6542  0.0835 -0.0408
  182SLPC  H12R20873   5.134   0.626   9.351  0.0841 -0.4115  1.8458
  182SLPC  C21320874   5.077   0.814   9.302  1.5337  0.2319  0.8260
  182SLPC  H13R20875   4.985   0.772   9.258  1.4617 -0.3897  1.5598
  182SLPC  C21420876   5.095   0.962   9.296 -0.2710  0.2482  0.7234
  182SLPC  H14R20877   5.172   0.995   9.369 -1.0856  0.4665  1.5084
  182SLPC  H14S20878   5.004   1.024   9.310 -0.1911  0.6812 -0.5177
  182SLPC  C21520879   5.160   1.008   9.168 -0.6947  1.0315  0.0734
  182SLPC  H15R20880   5.171   1.117   9.186 -4.0800  2.2121 -3.5335
  182SLPC  H15S20881   5.100   0.985   9.077  1.5044  1.1580 -1.4852
  182SLPC  C21620882   5.305   0.958   9.145  0.5902 -0.0283  0.5751
  182SLPC  H16R20883   5.310   0.849   9.128 -0.8651  0.0885 -0.8365
  182SLPC  H16S20884   5.365   0.989   9.233  0.0998  0.3926  0.7670
  182SLPC  C21720885   5.376   1.012   9.019  0.6038 -0.0301  0.2491
  182SLPC  H17R20886   5.462   0.946   8.998  0.6380  0.0803  0.0318
  182SLPC  H17S20887   5.402   1.118   9.041 -1.6292  0.3190  1.4649
  182SLPC  C21820888   5.286   1.010   8.894  0.3754 -0.1353 -0.9712
  182SLPC  H18R20889   5.248   0.907   8.877  1.1548 -0.9685  1.7227
  182SLPC  H18S20890   5.351   1.053   8.815 -0.3575  3.2358  0.1106
  182SLPC  H18T20891   5.196   1.073   8.912  0.2433 -0.2378 -1.2766
  182SLPC   C3320892   5.131   0.634  10.111 -0.2961  0.0914  0.1277
  182SLPC   H3X20893   5.161   0.550  10.178 -1.6225  0.5734  1.3959
  182SLPC   H3Y20894   5.213   0.694  10.068 -1.0126  1.7133  0.9492
  182SLPC   C3420895   5.065   0.584   9.983  0.5281  0.0816  0.1128
  182SLPC   H4X20896   5.133   0.500   9.957 -0.4335 -0.6117 -0.2292
  182SLPC   H4Y20897   5.071   0.645   9.890 -0.7434 -0.4959 -0.3794
  182SLPC   C3520898   4.926   0.517   9.998  0.3736 -0.0442  0.1948
  182SLPC   H5X20899   4.844   0.592  10.003 -0.0980 -0.6191  3.6604
  182SLPC   H5Y20900   4.917   0.447  10.084  0.5079 -0.3605 -0.0460
  182SLPC   C3620901   4.875   0.432   9.881  0.4745  0.1281 -0.0708
  182SLPC   H6X20902   4.779   0.382   9.904  0.1232  0.5656 -0.5516
  182SLPC   H6Y20903   4.954   0.354   9.878 -0.3244 -0.7079  0.2943
  182SLPC   C3720904   4.872   0.495   9.740 -0.1786 -0.1431  0.2746
  182SLPC   H7X20905   4.883   0.407   9.673 -1.4016  1.1303 -1.6932
  182SLPC   H7Y20906   4.961   0.557   9.716 -0.0565 -0.8837 -1.3140
  182SLPC   C3820907   4.746   0.566   9.708  0.1174 -0.1689 -0.3851
  182SLPC   H8X20908   4.739   0.658   9.768  1.0387  0.7787 -1.6758
  182SLPC   H8Y20909   4.665   0.500   9.746  0.6825 -2.0066 -2.1489
  182SLPC   C3920910   4.720   0.603   9.553  0.2189  0.0624 -0.5424
  182SLPC   H9X20911   4.819   0.645   9.525  1.8773 -1.3299  2.6151
  182SLPC   H9Y20912   4.632   0.669   9.538 -1.8378 -2.3075  0.3461
  182SLPC  C31020913   4.694   0.471   9.470 -0.3635  0.4748 -0.8763
  182SLPC  H10X20914   4.594   0.431   9.498  0.2314  0.9973  2.4472
  182SLPC  H10Y20915   4.769   0.390   9.488  0.3430  1.1619 -0.6474
  182SLPC  C31120916   4.694   0.499   9.314 -0.3662  0.1686 -0.1982
  182SLPC  H11X20917   4.793   0.542   9.288 -1.8473  2.8428 -1.8832
  182SLPC  H11Y20918   4.619   0.581   9.303  1.7849  2.7604  2.7126
  182SLPC  C31220919   4.648   0.382   9.232  0.3381  0.6925  0.1497
  182SLPC  H12X20920   4.542   0.364   9.261 -0.1419  0.2893 -1.7151
  182SLPC  H12Y20921   4.710   0.293   9.255  0.1150  0.2867 -0.7570
  182SLPC  C31320922   4.668   0.416   9.083 -0.0537 -0.4916  0.4673
  182SLPC  H13X20923   4.718   0.326   9.041 -0.6170 -1.5843  2.0241
  182SLPC  H13Y20924   4.726   0.510   9.079  1.1383 -1.1172  2.1223
  182SLPC  C31420925   4.533   0.435   9.013  0.1722 -0.8038  0.7069
  182SLPC  H14X20926   4.472   0.522   9.046 -0.1190  1.2889 -4.4052
  182SLPC  H14Y20927   4.480   0.337   9.017  0.9367 -1.3690 -1.7452
  182SLPC  C31520928   4.554   0.461   8.866 -0.8347  0.2820  0.1612
  182SLPC  H15X20929   4.602   0.372   8.820  0.8487  0.5816  1.2596
  182SLPC  H15Y20930   4.629   0.542   8.854  0.8706 -1.4455 -1.7931
  182SLPC  C31620931   4.422   0.482   8.788  0.6392 -0.3958 -0.1510
  182SLPC  H16X20932   4.374   0.579   8.817  1.2086 -0.1260 -0.0942
  182SLPC  H16Y20933   4.354   0.398   8.813 -2.6376  1.8945 -0.5587
  182SLPC  C31720934   4.439   0.484   8.636  0.0565 -0.3075  0.2628
  182SLPC  H17X20935   4.464   0.384   8.594 -2.2398 -0.7327 -0.2553
  182SLPC  H17Y20936   4.518   0.558   8.612 -0.0009 -0.5810 -0.8449
  182SLPC  C31820937   4.308   0.530   8.564 -0.2529 -0.0170  0.1732
  182SLPC  H18X20938   4.301   0.501   8.457 -0.4055 -1.5381  0.5840
  182SLPC  H18Y20939   4.291   0.640   8.574 -1.8532 -0.2865  0.6238
  182SLPC  H18Z20940   4.222   0.479   8.611 -1.0070 -1.3285 -2.4555
  183SLPC     N20941   1.993   0.266  10.721  0.3300  0.0353 -0.6400
  183SLPC   C1320942   1.867   0.273  10.635 -0.3147 -0.5557  0.6043
  183SLPC  H13A20943   1.885   0.232  10.537 -0.0757  1.8555 -0.4469
  183SLPC  H13B20944   1.780   0.231  10.682 -1.0141 -3.1537 -2.5833
  183SLPC  H13C20945   1.843   0.372  10.598  2.0833 -0.7271 -1.7352
  183SLPC   C1420946   2.010   0.125  10.776 -0.7364  0.6714 -0.1144
  183SLPC  H14A20947   2.103   0.129  10.832  0.2566  1.4334 -1.7466
  183SLPC  H14B20948   1.927   0.109  10.843  0.9139 -0.6233  1.7404
  183SLPC  H14C20949   2.021   0.055  10.695 -1.3945  0.0256  0.3367
  183SLPC   C1520950   1.971   0.355  10.835  0.0080  0.2648 -0.2141
  183SLPC  H15A20951   2.035   0.341  10.920  0.0840  0.9883 -0.1436
  183SLPC  H15B20952   1.969   0.456  10.797  0.2901 -0.0838 -1.1907
  183SLPC  H15C20953   1.872   0.340  10.873 -0.2189  3.6122  0.8240
  183SLPC   C1220954   2.119   0.296  10.643 -0.3973  0.8348  0.2548
  183SLPC  H12A20955   2.108   0.400  10.616 -0.8397  0.5592 -0.6941
  183SLPC  H12B20956   2.108   0.254  10.544  3.0918  1.2434 -0.4448
  183SLPC   C1120957   2.251   0.275  10.710 -0.0851  0.4083 -0.2151
  183SLPC  H11A20958   2.337   0.287  10.641  1.4449  3.2808  1.9764
  183SLPC  H11B20959   2.265   0.170  10.744  1.1364  0.2021 -1.2988
  183SLPC     P20960   2.294   0.519  10.808 -0.1010 -0.3215  0.0413
  183SLPC   O1320961   2.252   0.593  10.930 -0.5891  0.1013  0.0439
  183SLPC   O1420962   2.437   0.523  10.770 -0.2446  0.4312  0.4503
  183SLPC   O1220963   2.264   0.364  10.827 -0.1101  0.2095  0.2173
  183SLPC   O1120964   2.201   0.565  10.692 -0.6853  0.0644 -0.2254
  183SLPC    C120965   2.237   0.679  10.612  0.5645  0.3220  0.2590
  183SLPC    HA20966   2.181   0.771  10.641  1.3317  1.3163 -1.2958
  183SLPC    HB20967   2.346   0.684  10.596  0.6933  1.2519  1.3240
  183SLPC    C220968   2.189   0.648  10.462  0.2201 -0.1488  0.2722
  183SLPC    HS20969   2.082   0.620  10.462  0.1453  0.1280  0.1228
  183SLPC   O2120970   2.280   0.548  10.405  0.2370 -0.6072 -0.6063
  183SLPC   C2120971   2.229   0.480  10.309 -0.2670 -0.0277 -0.3373
  183SLPC   O2220972   2.110   0.477  10.288 -0.3399  0.0597 -0.3597
  183SLPC   C2220973   2.332   0.405  10.226  0.1483 -0.0981 -0.0682
  183SLPC   H2R20974   2.408   0.375  10.302 -0.0103  0.8209  0.4677
  183SLPC   H2S20975   2.294   0.307  10.192  0.5956  0.0150 -0.9185
  183SLPC    C320976   2.207   0.775  10.385  0.1716 -0.1663 -0.7617
  183SLPC    HX20977   2.318   0.780  10.387  0.1871  2.4585 -2.8288
  183SLPC    HY20978   2.167   0.858  10.447  1.3892  2.5556 -3.3662
  183SLPC   O3120979   2.178   0.780  10.241  0.3244  0.6577  0.4774
  183SLPC   C3120980   2.052   0.788  10.209 -0.2987 -0.0916  0.6348
  183SLPC   O3220981   1.955   0.776  10.278  0.2130 -0.0478 -0.5552
  183SLPC   C3220982   2.040   0.794  10.055 -0.4529 -0.5782  0.3076
  183SLPC   H2X20983   2.049   0.690  10.016 -1.5343 -1.4846  2.3183
  183SLPC   H2Y20984   2.126   0.858  10.025 -1.0859  1.6061  2.7198
  183SLPC   C2320985   2.399   0.479  10.112 -0.7601 -0.5359 -0.2925
  183SLPC   H3R20986   2.491   0.432  10.071 -0.9397 -1.1436 -0.0084
  183SLPC   H3S20987   2.422   0.581  10.149 -2.8302 -0.7554  1.8437
  183SLPC   C2420988   2.299   0.496   9.993 -0.1741 -0.1472 -0.2895
  183SLPC   H4R20989   2.204   0.529  10.040  1.1736  0.9717  1.8343
  183SLPC   H4S20990   2.278   0.397   9.946  0.0253 -0.4319  0.2114
  183SLPC   C2520991   2.364   0.585   9.886  0.4381 -0.1320 -0.6547
  183SLPC   H5R20992   2.450   0.524   9.851  1.6556  0.3729  1.2775
  183SLPC   H5S20993   2.398   0.681   9.931  1.1322 -0.5802 -0.2106
  183SLPC   C2620994   2.270   0.615   9.769  0.5196  0.0102 -0.2983
  183SLPC   H6R20995   2.168   0.641   9.802  0.9683  1.5509 -0.0196
  183SLPC   H6S20996   2.255   0.522   9.711 -2.3953 -0.2705  0.7650
  183SLPC   C2720997   2.317   0.722   9.679  0.1602 -0.2129 -0.8412
  183SLPC   H7R20998   2.415   0.689   9.638  0.0762 -1.4385 -0.1074
  183SLPC   H7S20999   2.343   0.813   9.737  2.1990 -1.8828  1.0153
  183SLPC   C2821000   2.210   0.771   9.580 -0.3587  0.4573  0.5496
  183SLPC   H8R21001   2.131   0.823   9.638 -0.4281  0.7709  0.1770
  183SLPC   H8S21002   2.174   0.681   9.525  0.1147  1.3518 -1.2828
  183SLPC   C2921003   2.263   0.871   9.478 -0.2137 -0.4028  0.0355
  183SLPC   H9R21004   2.263   0.974   9.515  1.8097 -0.0745 -0.7671
  183SLPC  C21021005   2.317   0.846   9.354 -0.0506  0.2888 -0.0856
  183SLPC  H10R21006   2.338   0.929   9.285 -1.8762  1.4629  0.7055
  183SLPC  C21121007   2.336   0.712   9.292 -0.2340  0.5917  0.1946
  183SLPC  H11R21008   2.238   0.661   9.276 -0.0551  0.7845 -1.7398
  183SLPC  H11S21009   2.396   0.659   9.370 -1.1442  0.5325  0.8705
  183SLPC  C21221010   2.418   0.709   9.169 -0.1889  0.6406 -0.1297
  183SLPC  H12R21011   2.524   0.683   9.176 -1.1408 -3.7931  1.3754
  183SLPC  C21321012   2.367   0.729   9.051 -0.2442 -0.7945  0.1133
  183SLPC  H13R21013   2.437   0.731   8.966  0.4859 -2.3542  0.6387
  183SLPC  C21421014   2.223   0.751   9.000  0.6773  0.6342  0.2673
  183SLPC  H14R21015   2.144   0.748   9.078 -1.9023 -1.2337 -2.2013
  183SLPC  H14S21016   2.189   0.672   8.930  0.8142 -0.1600  1.0606
  183SLPC  C21521017   2.206   0.879   8.923  0.1464  1.1800 -0.3465
  183SLPC  H15R21018   2.099   0.869   8.894  0.1158 -1.1803  0.3568
  183SLPC  H15S21019   2.268   0.875   8.831  0.9536  2.8910  0.0990
  183SLPC  C21621020   2.208   1.011   9.009 -0.1642 -0.0823 -0.0291
  183SLPC  H16R21021   2.289   1.008   9.085 -0.0633  1.2633 -0.0730
  183SLPC  H16S21022   2.114   1.021   9.067 -0.1751 -2.0863  0.3904
  183SLPC  C21721023   2.234   1.136   8.923  0.3580  0.5155 -0.1013
  183SLPC  H17R21024   2.325   1.118   8.863  0.2045 -0.7459  0.0154
  183SLPC  H17S21025   2.255   1.227   8.984 -1.1506  0.5956  0.3504
  183SLPC  C21821026   2.120   1.166   8.835  0.3453  0.7959  0.2061
  183SLPC  H18R21027   2.077   1.085   8.773  1.8625  0.2290 -0.1434
  183SLPC  H18S21028   2.147   1.259   8.780  3.6554  0.4815  1.1123
  183SLPC  H18T21029   2.038   1.203   8.900 -1.4805  1.7868 -2.4655
  183SLPC   C3321030   1.907   0.854   9.993  0.0576 -0.3971  0.9277
  183SLPC   H3X21031   1.873   0.953  10.030 -1.6240 -0.0530 -1.3729
  183SLPC   H3Y21032   1.826   0.783  10.020 -0.1008 -0.2699  0.7837
  183SLPC   C3421033   1.915   0.874   9.843 -0.2684 -0.0817  0.2165
  183SLPC   H4X21034   1.988   0.810   9.790  1.1141  1.6196 -0.0531
  183SLPC   H4Y21035   1.935   0.978   9.809 -0.3341 -0.1725 -0.0989
  183SLPC   C3521036   1.775   0.850   9.783  0.4048  0.2502  0.9329
  183SLPC   H5X21037   1.698   0.896   9.849 -0.3987 -0.7493  0.7054
  183SLPC   H5Y21038   1.747   0.743   9.778  0.1261  0.3129  1.1809
  183SLPC   C3621039   1.757   0.906   9.640  0.0043  0.0703  0.0104
  183SLPC   H6X21040   1.818   0.999   9.635  0.3137 -0.0527  1.1275
  183SLPC   H6Y21041   1.650   0.927   9.621 -0.3070 -0.5708  0.9931
  183SLPC   C3721042   1.819   0.811   9.535  1.2371 -0.3136 -0.4801
  183SLPC   H7X21043   1.733   0.747   9.506  0.1365  2.0179 -2.8320
  183SLPC   H7Y21044   1.906   0.764   9.585 -1.5603 -1.6262  3.6654
  183SLPC   C3821045   1.875   0.890   9.417  0.0509 -0.6323  0.0764
  183SLPC   H8X21046   1.947   0.967   9.452 -0.7529 -0.1394  0.6649
  183SLPC   H8Y21047   1.796   0.953   9.372  1.2045  1.1777  0.4681
  183SLPC   C3921048   1.936   0.810   9.300 -0.2254 -0.4395  0.7434
  183SLPC   H9X21049   2.013   0.741   9.339  1.5704  1.0026 -0.0778
  183SLPC   H9Y21050   1.973   0.889   9.231 -3.4990  1.2540  0.7596
  183SLPC  C31021051   1.834   0.724   9.225  0.1396  0.0610  0.4831
  183SLPC  H10X21052   1.773   0.656   9.289  0.3157 -0.7719 -0.2236
  183SLPC  H10Y21053   1.881   0.652   9.156 -0.7841  0.3496 -0.4689
  183SLPC  C31121054   1.737   0.798   9.136 -0.0094 -0.9014  0.1261
  183SLPC  H11X21055   1.786   0.877   9.075  0.4002 -1.0064  0.3123
  183SLPC  H11Y21056   1.657   0.843   9.199  0.8706  1.4723 -0.3268
  183SLPC  C31221057   1.648   0.704   9.043  0.4232 -0.1006  0.3666
  183SLPC  H12X21058   1.575   0.643   9.100 -0.0495 -0.6237 -0.7656
  183SLPC  H12Y21059   1.718   0.629   9.000  1.3070 -0.2543  2.0235
  183SLPC  C31321060   1.564   0.775   8.940  0.1762  0.2456  0.1374
  183SLPC  H13X21061   1.536   0.871   8.987 -2.8488 -0.4846  0.0021
  183SLPC  H13Y21062   1.478   0.707   8.924  0.8389 -1.1902  2.2748
  183SLPC  C31421063   1.638   0.823   8.811 -0.3912  0.1211  0.4666
  183SLPC  H14X21064   1.729   0.856   8.866 -1.8050 -0.2518  3.2186
  183SLPC  H14Y21065   1.590   0.916   8.772  1.0567  0.2412 -1.1667
  183SLPC  C31521066   1.655   0.722   8.703  0.0913 -0.5708  0.4873
  183SLPC  H15X21067   1.558   0.705   8.652 -0.0565 -0.3786  0.7017
  183SLPC  H15Y21068   1.672   0.625   8.755  0.4825 -0.4740  0.5424
  183SLPC  C31621069   1.766   0.746   8.597 -0.4354 -1.0009 -0.3100
  183SLPC  H16X21070   1.721   0.819   8.526 -1.2772 -0.7287  0.4913
  183SLPC  H16Y21071   1.794   0.653   8.542  0.9320 -1.1115  0.5060
  183SLPC  C31721072   1.890   0.821   8.649  0.6235  0.4744 -0.0224
  183SLPC  H17X21073   1.939   0.762   8.729 -0.0019 -1.6417 -1.1306
  183SLPC  H17Y21074   1.849   0.919   8.682  1.3439  1.3270 -1.5222
  183SLPC  C31821075   1.994   0.846   8.540  0.1830 -0.3151  0.4715
  183SLPC  H18X21076   2.066   0.925   8.570 -1.0196  1.0636 -0.1338
  183SLPC  H18Y21077   1.944   0.889   8.451 -1.1922  0.7606  1.6986
  183SLPC  H18Z21078   2.042   0.753   8.504 -0.2514 -0.9925  1.5834
  184SLPC     N21079   4.403   5.128  10.827  0.6105 -0.1750  0.4765
  184SLPC   C1321080   4.547   5.100  10.871  0.5269 -0.1270  0.4822
  184SLPC  H13A21081   4.610   5.176  10.915  1.7808 -0.6651 -0.3491
  184SLPC  H13B21082   4.552   5.003  10.918 -0.1680  0.7182  2.4213
  184SLPC  H13C21083   4.604   5.075  10.783 -1.5787 -0.7972 -0.7619
  184SLPC   C1421084   4.319   5.159  10.942  0.6384  0.3561 -0.5251
  184SLPC  H14A21085   4.315   5.066  10.997  2.5942 -0.1820 -1.2316
  184SLPC  H14B21086   4.370   5.230  11.006  0.3291  1.4004 -1.4065
  184SLPC  H14C21087   4.225   5.197  10.903  0.1189 -2.8881 -2.8141
  184SLPC   C1521088   4.349   5.006  10.759  0.6992 -0.0462  0.8678
  184SLPC  H15A21089   4.252   5.018  10.712  0.9075 -1.4953  0.0021
  184SLPC  H15B21090   4.412   4.977  10.676  1.5519 -2.0913  2.1630
  184SLPC  H15C21091   4.339   4.925  10.829  1.1588 -1.2827 -0.4594
  184SLPC   C1221092   4.407   5.239  10.723  0.3212  0.2635  0.0030
  184SLPC  H12A21093   4.480   5.209  10.650  0.0226 -2.5592  0.7171
  184SLPC  H12B21094   4.440   5.328  10.774 -3.7187  0.3020  3.1575
  184SLPC   C1121095   4.275   5.255  10.647  0.7091 -0.4646 -0.7651
  184SLPC  H11A21096   4.231   5.161  10.608  1.1237  0.3919 -3.5113
  184SLPC  H11B21097   4.301   5.326  10.565 -2.3461  1.8201  0.0674
  184SLPC     P21098   4.171   5.462  10.780 -0.4344  0.6358 -0.5044
  184SLPC   O1321099   4.075   5.476  10.893 -0.1014  0.0919  0.0457
  184SLPC   O1421100   4.309   5.506  10.809  0.2979 -0.5088 -0.1193
  184SLPC   O1221101   4.179   5.312  10.736  0.3521  0.5033  0.3811
  184SLPC   O1121102   4.109   5.542  10.653 -0.8601  0.9436  0.2966
  184SLPC    C121103   3.976   5.502  10.612 -0.1442  0.2332  0.0935
  184SLPC    HA21104   3.934   5.413  10.663  0.4860 -0.4188 -0.4959
  184SLPC    HB21105   3.901   5.576  10.647  0.8689 -0.8843  5.3881
  184SLPC    C221106   3.976   5.475  10.459  0.0669  0.6491  0.3725
  184SLPC    HS21107   3.870   5.468  10.427 -0.5017  1.5810  1.9609
  184SLPC   O2121108   4.051   5.355  10.436 -0.3287  0.2688  0.2989
  184SLPC   C2121109   3.975   5.239  10.410 -0.2971 -0.9946 -0.7223
  184SLPC   O2221110   3.859   5.228  10.449  0.4487  0.0928 -0.1626
  184SLPC   C2221111   4.048   5.146  10.318 -0.3961 -0.1045 -0.0046
  184SLPC   H2R21112   4.150   5.178  10.289 -0.4679 -0.7320 -0.9800
  184SLPC   H2S21113   4.057   5.051  10.374 -0.1287  0.8849  1.7177
  184SLPC    C321114   4.028   5.592  10.389  0.1320 -0.2668  0.3651
  184SLPC    HX21115   4.139   5.598  10.378  0.1181 -0.0486  0.3340
  184SLPC    HY21116   4.003   5.684  10.446 -1.7463  0.5146 -1.6027
  184SLPC   O3121117   3.973   5.605  10.250 -0.3642  0.4502  0.6040
  184SLPC   C3121118   3.997   5.719  10.193  0.2719  0.5618 -0.0932
  184SLPC   O3221119   4.055   5.813  10.241  0.4513  0.3896  0.3577
  184SLPC   C3221120   3.929   5.732  10.056  0.6002 -0.0700 -0.8049
  184SLPC   H2X21121   3.819   5.726  10.076  1.2170 -2.0643  2.9873
  184SLPC   H2Y21122   3.971   5.652   9.992 -0.4631 -1.4196  0.1092
  184SLPC   C2321123   3.983   5.124  10.183 -0.1455  0.6376  0.1584
  184SLPC   H3R21124   3.957   5.205  10.111 -0.2658  0.6940  0.2654
  184SLPC   H3S21125   3.886   5.070  10.192 -0.6261  1.5049  0.3679
  184SLPC   C2421126   4.082   5.033  10.110 -0.4503 -0.5089  0.2830
  184SLPC   H4R21127   4.112   4.954  10.183 -0.6090 -0.1343  0.7629
  184SLPC   H4S21128   4.169   5.099  10.090  0.8048 -1.7890  1.3349
  184SLPC   C2521129   4.032   4.974   9.979  0.7795  0.0116 -0.3620
  184SLPC   H5R21130   3.995   5.062   9.922  1.1207  0.6073  0.3150
  184SLPC   H5S21131   3.944   4.909   9.996  1.4192 -1.2881 -1.7675
  184SLPC   C2621132   4.149   4.904   9.901  0.1274 -0.3717  0.2975
  184SLPC   H6R21133   4.186   4.819   9.962  0.9482 -0.1984  0.0536
  184SLPC   H6S21134   4.234   4.973   9.881 -0.1871  0.0213  0.3090
  184SLPC   C2721135   4.088   4.831   9.773 -0.4812  0.4299 -0.2506
  184SLPC   H7R21136   4.036   4.911   9.715 -0.7405  0.5733  0.1774
  184SLPC   H7S21137   4.007   4.762   9.804  0.7174 -0.9957 -0.1959
  184SLPC   C2821138   4.195   4.755   9.689 -0.7443  0.1569 -0.2160
  184SLPC   H8R21139   4.238   4.677   9.755  0.4269  1.7485  0.9621
  184SLPC   H8S21140   4.276   4.828   9.668 -2.5726  2.0205 -1.1643
  184SLPC   C2921141   4.130   4.684   9.566 -0.3307  0.7624  0.5105
  184SLPC   H9R21142   4.072   4.596   9.599  1.3257  0.4496  2.8952
  184SLPC  C21021143   4.147   4.720   9.437  0.2385  0.0648 -0.2879
  184SLPC  H10R21144   4.109   4.659   9.354 -0.0590  0.2348 -0.2781
  184SLPC  C21121145   4.231   4.837   9.385  0.1274 -0.5146  0.5377
  184SLPC  H11R21146   4.268   4.799   9.287 -0.2409  1.6794 -0.5320
  184SLPC  H11S21147   4.316   4.862   9.453  1.0845 -0.4199 -0.6546
  184SLPC  C21221148   4.155   4.967   9.352  0.3228 -0.2455  0.2565
  184SLPC  H12R21149   4.148   5.039   9.435  2.0482  0.4157 -0.1335
  184SLPC  C21321150   4.091   4.991   9.245  0.1877  0.7168  0.2713
  184SLPC  H13R21151   4.035   5.085   9.235 -1.7940 -0.4273 -0.0694
  184SLPC  C21421152   4.070   4.899   9.123 -0.7907  0.1626 -0.2957
  184SLPC  H14R21153   3.960   4.882   9.121 -1.4979  2.7761  3.6954
  184SLPC  H14S21154   4.123   4.805   9.147 -0.4137  0.6130  0.7215
  184SLPC  C21521155   4.124   4.939   8.984 -0.8256  0.8721 -0.0946
  184SLPC  H15R21156   4.102   4.864   8.905  1.4088  2.1134 -2.0532
  184SLPC  H15S21157   4.235   4.948   8.990 -0.7203 -0.2972 -0.0389
  184SLPC  C21621158   4.074   5.074   8.933  0.2343 -0.3205  0.7029
  184SLPC  H16R21159   4.085   5.151   9.012 -0.5852  2.3895 -1.6527
  184SLPC  H16S21160   3.964   5.062   8.929  0.3031 -1.1279  0.9407
  184SLPC  C21721161   4.127   5.125   8.803 -0.2920  0.3813  1.0501
  184SLPC  H17R21162   4.087   5.223   8.770  0.0088 -0.9025 -3.8996
  184SLPC  H17S21163   4.095   5.051   8.727 -1.5701  1.3962  0.5634
  184SLPC  C21821164   4.280   5.121   8.804 -0.2201  0.2201 -0.1317
  184SLPC  H18R21165   4.327   5.022   8.820 -0.4416  0.1447  0.0622
  184SLPC  H18S21166   4.320   5.193   8.879  2.4245 -1.3213  0.0503
  184SLPC  H18T21167   4.310   5.156   8.703 -1.8896  0.2512 -0.6372
  184SLPC   C3321168   3.969   5.871   9.997 -0.0330 -0.2846 -0.4214
  184SLPC   H3X21169   4.078   5.891   9.989 -0.2597  0.8411 -0.8937
  184SLPC   H3Y21170   3.918   5.949  10.056  0.9117  0.4084 -0.4878
  184SLPC   C3421171   3.922   5.886   9.852  0.7943 -0.3533  0.4144
  184SLPC   H4X21172   3.922   5.988   9.806  0.4427 -0.5136  0.0484
  184SLPC   H4Y21173   3.816   5.852   9.852 -0.1858  2.1290 -2.5910
  184SLPC   C3521174   4.003   5.799   9.752  0.9894 -0.3771 -0.1412
  184SLPC   H5X21175   4.000   5.694   9.786  3.4490 -1.1343 -1.9779
  184SLPC   H5Y21176   4.109   5.828   9.766  0.7537  0.9890 -0.9555
  184SLPC   C3621177   3.970   5.810   9.603 -0.4636  0.2361 -1.1315
  184SLPC   H6X21178   4.043   5.757   9.537 -0.2398  0.6441 -1.2148
  184SLPC   H6Y21179   3.972   5.915   9.567 -3.1004  1.4690  1.8879
  184SLPC   C3721180   3.835   5.752   9.568 -0.3624  0.4784 -0.6178
  184SLPC   H7X21181   3.753   5.822   9.596 -0.8686  0.0912 -1.1070
  184SLPC   H7Y21182   3.826   5.662   9.633 -2.9356  0.5427 -0.8016
  184SLPC   C3821183   3.828   5.695   9.423 -0.2120  0.0655  0.5371
  184SLPC   H8X21184   3.737   5.637   9.397  0.0521 -0.8880  1.6725
  184SLPC   H8Y21185   3.916   5.627   9.417 -0.9394 -0.8696  0.4166
  184SLPC   C3921186   3.837   5.798   9.303  0.2191 -0.5297  0.2685
  184SLPC   H9X21187   3.932   5.854   9.313 -0.8334  1.6347 -1.0696
  184SLPC   H9Y21188   3.751   5.868   9.306  0.6259  0.1315 -1.8250
  184SLPC  C31021189   3.838   5.733   9.164 -0.0593 -0.0913 -0.1052
  184SLPC  H10X21190   3.747   5.669   9.165 -0.4064  0.4033  1.2731
  184SLPC  H10Y21191   3.919   5.659   9.145 -0.5545 -0.2713 -1.6505
  184SLPC  C31121192   3.832   5.833   9.048 -0.2748 -0.4205 -0.8721
  184SLPC  H11X21193   3.904   5.915   9.068  0.1645 -1.1108  0.4349
  184SLPC  H11Y21194   3.736   5.889   9.038 -0.6075 -1.0331 -1.2324
  184SLPC  C31221195   3.857   5.766   8.907 -0.0146 -0.2053 -0.2866
  184SLPC  H12X21196   3.754   5.739   8.878 -0.4638  0.0644  0.9631
  184SLPC  H12Y21197   3.918   5.674   8.918  1.0225  0.5689  0.8761
  184SLPC  C31321198   3.903   5.860   8.796 -0.3082  0.5511  1.2305
  184SLPC  H13X21199   4.011   5.887   8.808 -0.9188  4.7401 -0.8301
  184SLPC  H13Y21200   3.833   5.945   8.784 -1.2123 -0.2080  1.0782
  184SLPC  C31421201   3.874   5.792   8.658 -1.0700  0.4662  0.1383
  184SLPC  H14X21202   3.764   5.779   8.648 -0.9908  0.3459 -0.5791
  184SLPC  H14Y21203   3.929   5.695   8.662  0.0610  1.0871 -0.0469
  184SLPC  C31521204   3.918   5.880   8.539 -0.1383  0.1189 -0.0246
  184SLPC  H15X21205   4.027   5.899   8.546  0.1577 -1.2842 -0.5374
  184SLPC  H15Y21206   3.874   5.982   8.537 -0.4524  0.0023 -2.6455
  184SLPC  C31621207   3.898   5.812   8.403  0.3163  0.0351 -0.3809
  184SLPC  H16X21208   3.943   5.710   8.406  2.4893  0.9248 -0.9571
  184SLPC  H16Y21209   3.971   5.867   8.339 -0.2339 -0.7979 -1.7776
  184SLPC  C31721210   3.754   5.823   8.345 -0.1626  0.2375  0.0713
  184SLPC  H17X21211   3.681   5.769   8.409  0.8845 -2.3330 -0.7566
  184SLPC  H17Y21212   3.733   5.772   8.248 -1.7094  1.6836 -0.4058
  184SLPC  C31821213   3.697   5.959   8.339 -0.1445 -0.2654  0.2403
  184SLPC  H18X21214   3.776   6.030   8.304 -1.6198  1.5411  0.4239
  184SLPC  H18Y21215   3.678   5.984   8.445 -2.2932 -0.1091 -0.1490
  184SLPC  H18Z21216   3.609   5.978   8.275 -0.3366  0.7475  0.7816
  185SLPC     N21217   0.828   5.858   6.727  0.5310 -0.2718 -0.5181
  185SLPC   C1321218   0.714   5.782   6.673  0.0352 -0.4166  0.3279
  185SLPC  H13A21219   0.730   5.678   6.693  1.6900 -0.0791  0.9284
  185SLPC  H13B21220   0.626   5.796   6.734 -0.7029 -0.5903 -0.6724
  185SLPC  H13C21221   0.697   5.803   6.568  2.0956  1.2709  0.2636
  185SLPC   C1421222   0.940   5.826   6.643 -0.8135  1.0755  0.7262
  185SLPC  H14A21223   0.960   5.720   6.641 -1.4544  0.9600 -0.1639
  185SLPC  H14B21224   0.932   5.869   6.544 -0.1197 -0.6691 -0.1212
  185SLPC  H14C21225   1.028   5.874   6.684 -0.2861  2.0709 -1.4072
  185SLPC   C1521226   0.857   5.816   6.871  0.0399  0.2591 -0.7017
  185SLPC  H15A21227   0.865   5.710   6.892  0.7479  0.2365 -1.0477
  185SLPC  H15B21228   0.941   5.868   6.913  1.2754 -0.1863 -2.5033
  185SLPC  H15C21229   0.775   5.852   6.931  0.0499 -1.3527  0.3471
  185SLPC   C1221230   0.787   6.008   6.724 -0.3099  0.8969 -0.0867
  185SLPC  H12A21231   0.698   6.022   6.782 -0.8660  0.0810 -0.7064
  185SLPC  H12B21232   0.764   6.031   6.621  1.3964 -0.3802 -0.8136
  185SLPC   C1121233   0.884   6.119   6.774 -0.2095 -0.1925  0.6169
  185SLPC  H11A21234   0.915   6.099   6.879 -0.4504 -0.4350  0.6425
  185SLPC  H11B21235   0.828   6.214   6.774  1.4063  0.7882  0.9244
  185SLPC     P21236   1.006   6.198   6.556 -0.0927  0.0427 -0.0695
  185SLPC   O1321237   1.140   6.184   6.498 -0.4968  0.6297 -0.2397
  185SLPC   O1421238   0.879   6.159   6.486 -0.3046  0.1775 -0.4969
  185SLPC   O1221239   1.009   6.133   6.700 -0.0360 -0.3102  0.0174
  185SLPC   O1121240   0.980   6.342   6.608 -0.4386 -0.3980  1.2587
  185SLPC    C121241   1.074   6.413   6.692  0.8455  0.4191  0.3628
  185SLPC    HA21242   1.179   6.378   6.700  0.5637 -0.1935  1.5077
  185SLPC    HB21243   1.089   6.509   6.637 -0.3090  0.8809  0.8287
  185SLPC    C221244   1.009   6.455   6.825  0.3976 -0.0966  0.3692
  185SLPC    HS21245   1.067   6.541   6.865  0.7270  0.4046 -1.1305
  185SLPC   O2121246   1.010   6.344   6.911  0.0123  0.5130 -0.7442
  185SLPC   C2121247   1.126   6.326   6.972 -0.1576  0.3880 -0.7417
  185SLPC   O2221248   1.223   6.392   6.943 -0.1801 -0.4027 -0.0011
  185SLPC   C2221249   1.112   6.231   7.093 -0.4035  0.5581 -0.4007
  185SLPC   H2R21250   1.126   6.122   7.074 -0.9441  0.6030 -1.0608
  185SLPC   H2S21251   1.183   6.266   7.171 -0.0538  1.5123 -1.1378
  185SLPC    C321252   0.857   6.510   6.807  0.0371  0.0351 -0.5116
  185SLPC    HX21253   0.801   6.425   6.763 -0.2015 -0.5220  0.8206
  185SLPC    HY21254   0.865   6.593   6.733 -0.2278 -0.8326 -1.5383
  185SLPC   O3121255   0.798   6.553   6.931  0.6834 -0.7124 -0.2877
  185SLPC   C3121256   0.851   6.666   6.976  0.7312 -0.4275  0.3346
  185SLPC   O3221257   0.949   6.720   6.933  0.0293  0.3165 -0.5608
  185SLPC   C3221258   0.763   6.719   7.085  0.4187 -0.0123 -0.5662
  185SLPC   H2X21259   0.685   6.787   7.043 -0.8401 -0.0053  1.6585
  185SLPC   H2Y21260   0.828   6.773   7.157  0.9275 -0.0477 -0.9886
  185SLPC   C2321261   0.969   6.252   7.152  0.3677  0.4278 -0.8852
  185SLPC   H3R21262   0.897   6.208   7.080  0.2472  0.5880 -0.8628
  185SLPC   H3S21263   0.949   6.361   7.157  2.3617  0.8013 -0.0981
  185SLPC   C2421264   0.944   6.199   7.293 -0.0861  0.5649  0.2917
  185SLPC   H4R21265   1.035   6.137   7.313 -0.9516 -0.8866 -0.1066
  185SLPC   H4S21266   0.854   6.138   7.313  0.8190 -1.1096 -0.5107
  185SLPC   C2521267   0.960   6.302   7.408 -0.4736  0.1049  0.5610
  185SLPC   H5R21268   0.921   6.396   7.364  3.0736  1.2746 -0.3812
  185SLPC   H5S21269   1.066   6.322   7.435 -0.2270  0.4604 -0.6145
  185SLPC   C2621270   0.882   6.264   7.536 -0.1319 -0.2916 -0.4271
  185SLPC   H6R21271   0.933   6.175   7.578  0.8192  0.2100 -0.4919
  185SLPC   H6S21272   0.777   6.242   7.507 -0.3082 -1.8015  1.1920
  185SLPC   C2721273   0.882   6.367   7.649 -0.0745 -0.9745  0.5652
  185SLPC   H7R21274   0.777   6.396   7.672  0.3287 -0.1338  1.3872
  185SLPC   H7S21275   0.939   6.454   7.612  0.1022 -0.8743  1.0647
  185SLPC   C2821276   0.948   6.329   7.782  0.2832  0.4097  0.5831
  185SLPC   H8R21277   0.969   6.411   7.853  1.2897 -0.0128  0.7895
  185SLPC   H8S21278   1.050   6.297   7.753  0.8710  3.9089 -1.7805
  185SLPC   C2921279   0.859   6.220   7.846  0.2109  0.1011  0.0417
  185SLPC   H9R21280   0.825   6.143   7.776 -0.5836  0.2650  0.2343
  185SLPC  C21021281   0.819   6.205   7.972 -0.8284  0.0573 -0.2744
  185SLPC  H10R21282   0.759   6.115   7.995 -0.2912  0.1432  1.5937
  185SLPC  C21121283   0.857   6.300   8.082 -0.3803  0.1380 -0.4263
  185SLPC  H11R21284   0.877   6.401   8.042  0.4261  0.4456  0.7275
  185SLPC  H11S21285   0.954   6.266   8.125  0.1993  0.6896 -1.2610
  185SLPC  C21221286   0.742   6.317   8.185 -0.1268 -0.3414 -0.3124
  185SLPC  H12R21287   0.659   6.385   8.164  0.6921  0.1255 -2.3095
  185SLPC  C21321288   0.754   6.251   8.305 -1.1558 -0.2885  0.2671
  185SLPC  H13R21289   0.672   6.274   8.375 -1.7697 -0.3886 -0.4000
  185SLPC  C21421290   0.857   6.158   8.357 -0.9504 -0.5522 -0.2718
  185SLPC  H14R21291   0.943   6.161   8.286 -1.9400  1.2204 -1.4895
  185SLPC  H14S21292   0.807   6.059   8.343 -1.2096 -0.6488  1.2212
  185SLPC  C21521293   0.908   6.181   8.501  0.3490  0.5949  0.4152
  185SLPC  H15R21294   0.989   6.107   8.520  0.3165 -0.8456 -4.0483
  185SLPC  H15S21295   0.822   6.167   8.570 -0.9680 -0.3890 -1.3626
  185SLPC  C21621296   0.970   6.312   8.532 -0.2661 -0.6792  0.0473
  185SLPC  H16R21297   0.899   6.396   8.518  1.5866  0.8133 -1.0613
  185SLPC  H16S21298   1.060   6.337   8.471 -0.6246 -0.0075 -0.2255
  185SLPC  C21721299   1.009   6.315   8.680  0.2022 -0.1654 -0.3174
  185SLPC  H17R21300   1.071   6.226   8.705  0.7958  0.2580 -0.2694
  185SLPC  H17S21301   0.915   6.316   8.739 -0.1063  3.5711 -0.6460
  185SLPC  C21821302   1.099   6.430   8.727  0.2330 -0.2873  0.1077
  185SLPC  H18R21303   1.056   6.528   8.696  0.2119  0.0149  1.0704
  185SLPC  H18S21304   1.202   6.426   8.685  0.3592 -2.5811  0.5086
  185SLPC  H18T21305   1.107   6.436   8.837 -1.8947 -0.1041  0.2895
  185SLPC   C3321306   0.689   6.614   7.164  0.4602  0.0532  0.5620
  185SLPC   H3X21307   0.763   6.536   7.191  2.6036  2.1415  1.0448
  185SLPC   H3Y21308   0.626   6.557   7.092  1.6990 -0.3109 -0.2589
  185SLPC   C3421309   0.623   6.655   7.293 -0.5738 -0.8126 -0.2021
  185SLPC   H4X21310   0.585   6.565   7.346  1.4225 -0.8118  1.3479
  185SLPC   H4Y21311   0.534   6.715   7.267  0.2370 -0.5923 -2.6965
  185SLPC   C3521312   0.727   6.723   7.396  1.1476  0.0265 -0.1618
  185SLPC   H5X21313   0.758   6.825   7.363 -0.4096  0.4399 -0.4018
  185SLPC   H5Y21314   0.816   6.656   7.404  1.2969  0.3716  1.4183
  185SLPC   C3621315   0.660   6.745   7.534 -0.5858 -0.2325 -0.3485
  185SLPC   H6X21316   0.634   6.641   7.562 -1.3204  0.3753  1.2985
  185SLPC   H6Y21317   0.569   6.806   7.521  1.0687  2.8764  1.4975
  185SLPC   C3721318   0.744   6.821   7.639  0.3081 -0.2122  0.1682
  185SLPC   H7X21319   0.744   6.928   7.610 -2.0999 -0.1475  0.2100
  185SLPC   H7Y21320   0.848   6.782   7.644  0.8092  1.2689  2.4378
  185SLPC   C3821321   0.667   6.826   7.771  0.1732 -0.0277  0.3400
  185SLPC   H8X21322   0.573   6.878   7.743  0.4028  0.5062  0.5416
  185SLPC   H8Y21323   0.720   6.896   7.839  0.2713  1.1976 -0.9594
  185SLPC   C3921324   0.647   6.687   7.826  0.5464  0.2365  0.0711
  185SLPC   H9X21325   0.739   6.629   7.804  0.4945  0.3803 -0.5392
  185SLPC   H9Y21326   0.580   6.627   7.762  1.7507  1.6863 -2.6851
  185SLPC  C31021327   0.601   6.674   7.967  0.7097  0.1496 -0.8804
  185SLPC  H10X21328   0.561   6.572   7.984 -1.5843  0.8339 -1.7753
  185SLPC  H10Y21329   0.518   6.747   7.984  0.6018 -0.3085  0.7133
  185SLPC  C31121330   0.706   6.697   8.079 -0.1476 -0.8145 -0.7803
  185SLPC  H11X21331   0.776   6.779   8.052  1.2654 -1.4376  0.7997
  185SLPC  H11Y21332   0.770   6.607   8.094 -0.6236 -1.0312 -0.0269
  185SLPC  C31221333   0.665   6.731   8.219  0.6571  0.5424  0.8665
  185SLPC  H12X21334   0.635   6.838   8.224 -1.0820  0.0526  1.8160
  185SLPC  H12Y21335   0.752   6.716   8.287  1.0492 -4.1013 -0.2908
  185SLPC  C31321336   0.540   6.651   8.262  0.0831  0.3130  0.2845
  185SLPC  H13X21337   0.557   6.542   8.247  2.1472  0.5366  0.6814
  185SLPC  H13Y21338   0.450   6.684   8.206 -0.0903 -0.4481  0.0972
  185SLPC  C31421339   0.503   6.687   8.411  0.7753 -0.3618  0.3780
  185SLPC  H14X21340   0.580   6.664   8.489  1.9983 -0.9326 -0.9553
  185SLPC  H14Y21341   0.420   6.625   8.450  0.7687  0.3878  1.6296
  185SLPC  C31521342   0.467   6.847   8.418 -0.0680 -0.1092  0.7563
  185SLPC  H15X21343   0.383   6.872   8.350 -0.7474  0.9041  1.9489
  185SLPC  H15Y21344   0.556   6.908   8.393 -2.2939  2.0815 -2.6495
  185SLPC  C31621345   0.423   6.903   8.552  0.0735  0.2071  0.4533
  185SLPC  H16X21346   0.414   7.014   8.543  0.2136  0.1874  0.0605
  185SLPC  H16Y21347   0.500   6.885   8.630 -0.4386 -2.0844  0.4745
  185SLPC  C31721348   0.291   6.844   8.604  0.0229  0.2685  0.4643
  185SLPC  H17X21349   0.295   6.733   8.607 -1.4734  0.1984  1.4141
  185SLPC  H17Y21350   0.203   6.876   8.544 -0.0416 -0.0053  0.4141
  185SLPC  C31821351   0.257   6.879   8.751 -0.2106  0.0093 -0.6957
  185SLPC  H18X21352   0.148   6.867   8.767 -0.6971  2.4828 -1.7167
  185SLPC  H18Y21353   0.291   6.984   8.763  3.1748 -0.9388 -0.9753
  185SLPC  H18Z21354   0.301   6.812   8.828 -1.0262 -0.1254 -0.3318
  186SLPC     N21355   3.315   4.162   6.098 -0.4962  0.6712 -0.6213
  186SLPC   C1321356   3.171   4.177   6.132  0.5977  0.1785 -0.3012
  186SLPC  H13A21357   3.149   4.264   6.192 -1.0793  0.3181 -1.0477
  186SLPC  H13B21358   3.102   4.180   6.048  0.9858  0.3607 -0.6157
  186SLPC  H13C21359   3.143   4.107   6.209  1.3731  2.1657  1.8941
  186SLPC   C1421360   3.357   4.282   6.017  0.7414 -0.0334 -0.0900
  186SLPC  H14A21361   3.348   4.375   6.070  0.7132  0.2637 -0.6056
  186SLPC  H14B21362   3.457   4.267   5.979  0.8806  2.8525 -1.0632
  186SLPC  H14C21363   3.288   4.285   5.934 -0.6582 -1.4566  0.9628
  186SLPC   C1521364   3.335   4.036   6.013 -0.0550 -0.0213  0.1630
  186SLPC  H15A21365   3.437   4.038   5.977  0.7172 -2.2603  1.9051
  186SLPC  H15B21366   3.321   3.949   6.077 -0.6015  0.3160  0.5096
  186SLPC  H15C21367   3.270   4.044   5.927 -0.5370  1.8358  0.6679
  186SLPC   C1221368   3.410   4.155   6.213 -0.2976 -0.2854  0.9629
  186SLPC  H12A21369   3.385   4.241   6.274 -0.4481  1.7153 -1.7160
  186SLPC  H12B21370   3.513   4.167   6.184 -1.0216 -0.8334 -2.2254
  186SLPC   C1121371   3.414   4.028   6.302  0.3390  0.6777  0.7521
  186SLPC  H11A21372   3.478   4.056   6.389  1.4668 -0.0169  0.1750
  186SLPC  H11B21373   3.481   3.952   6.255  0.1954  0.0432  1.5444
  186SLPC     P21374   3.272   3.824   6.369  0.2577 -0.4601 -0.0156
  186SLPC   O1321375   3.134   3.788   6.400  0.3322 -0.2612  0.6701
  186SLPC   O1421376   3.319   3.753   6.246 -0.2043 -0.5614  0.5925
  186SLPC   O1221377   3.288   3.984   6.349  0.7773 -0.2641 -0.5499
  186SLPC   O1121378   3.358   3.796   6.494 -0.3245  0.2995  0.2780
  186SLPC    C121379   3.312   3.809   6.624  0.2216 -0.0211  0.0853
  186SLPC    HA21380   3.341   3.908   6.667  1.1843  0.2947 -1.2367
  186SLPC    HB21381   3.203   3.792   6.633  0.2237 -0.3601 -0.4650
  186SLPC    C221382   3.387   3.708   6.720 -0.2059 -0.1258 -0.0550
  186SLPC    HS21383   3.355   3.607   6.688 -0.2576 -0.1216 -0.0174
  186SLPC   O2121384   3.341   3.736   6.856 -0.0379 -0.1187 -0.7889
  186SLPC   C2121385   3.349   3.634   6.940 -0.2388  0.1074  0.3392
  186SLPC   O2221386   3.383   3.521   6.914  0.0615  0.5745 -0.0110
  186SLPC   C2221387   3.318   3.685   7.083  0.1598  0.2330  0.3989
  186SLPC   H2R21388   3.407   3.651   7.142  1.6256  1.4649 -0.9950
  186SLPC   H2S21389   3.303   3.794   7.095 -1.4273  0.2239 -1.1927
  186SLPC    C321390   3.542   3.729   6.708  0.1209 -0.1426  0.1816
  186SLPC    HX21391   3.564   3.836   6.730 -1.9065 -0.0150  1.9790
  186SLPC    HY21392   3.565   3.704   6.603  2.4101 -0.7527  0.7828
  186SLPC   O3121393   3.626   3.646   6.796 -0.1688  0.0339  0.0815
  186SLPC   C3121394   3.639   3.514   6.768  0.6581  0.3479 -0.0752
  186SLPC   O3221395   3.586   3.456   6.671 -0.9908  0.5147 -0.8662
  186SLPC   C3221396   3.717   3.447   6.878 -0.1042  0.6407 -0.7088
  186SLPC   H2X21397   3.815   3.413   6.838  0.5535 -0.6602  1.7850
  186SLPC   H2Y21398   3.657   3.361   6.915 -1.2078  1.8311  0.4199
  186SLPC   C2321399   3.196   3.618   7.142  0.0134 -0.5242 -0.3438
  186SLPC   H3R21400   3.204   3.507   7.144  1.9323 -0.4207 -0.2689
  186SLPC   H3S21401   3.107   3.651   7.084  0.4195  1.4859  0.1142
  186SLPC   C2421402   3.171   3.652   7.286  0.1221  0.0006  0.2900
  186SLPC   H4R21403   3.158   3.762   7.294  0.9081  0.0694  0.8244
  186SLPC   H4S21404   3.264   3.638   7.346  0.1600 -0.0262  0.2248
  186SLPC   C2521405   3.048   3.578   7.347  0.2784  0.4680  0.5126
  186SLPC   H5R21406   3.066   3.469   7.364  1.8884  0.6344  0.0562
  186SLPC   H5S21407   2.955   3.581   7.286  0.8539 -1.1617 -0.5190
  186SLPC   C2621408   3.016   3.642   7.481  0.1257 -0.7236  0.1636
  186SLPC   H6R21409   2.974   3.742   7.459  1.1623 -0.6782 -1.8070
  186SLPC   H6S21410   3.109   3.656   7.541 -0.6433  1.5070  0.9497
  186SLPC   C2721411   2.908   3.568   7.559  0.0686  0.2773 -0.0302
  186SLPC   H7R21412   2.814   3.562   7.500 -0.5351  1.2089  0.8119
  186SLPC   H7S21413   2.876   3.625   7.649 -1.7342 -0.9447  0.1445
  186SLPC   C2821414   2.933   3.425   7.590 -0.2487  0.3712  1.2161
  186SLPC   H8R21415   2.924   3.362   7.498 -1.7898  0.7695  1.0645
  186SLPC   H8S21416   2.842   3.393   7.645 -0.6683 -0.8482 -0.1103
  186SLPC   C2921417   3.059   3.387   7.665 -0.6559 -0.2538 -0.5729
  186SLPC   H9R21418   3.159   3.408   7.625  1.4193 -2.7487  2.7586
  186SLPC  C21021419   3.050   3.296   7.765  0.5416  0.3162 -0.4765
  186SLPC  H10R21420   3.140   3.261   7.817 -1.4246 -3.4817  0.7543
  186SLPC  C21121421   2.922   3.236   7.816 -0.2259  1.1969  0.2059
  186SLPC  H11R21422   2.841   3.310   7.834 -1.2626  0.0615  0.3152
  186SLPC  H11S21423   2.937   3.207   7.922 -1.0996  0.5576  0.1620
  186SLPC  C21221424   2.867   3.104   7.759 -0.1422  0.2309 -0.3056
  186SLPC  H12R21425   2.772   3.105   7.703  0.9080  1.2215 -2.1677
  186SLPC  C21321426   2.927   2.985   7.782  0.2187 -0.0713 -0.0220
  186SLPC  H13R21427   2.889   2.894   7.734 -0.5667 -0.1132  0.6515
  186SLPC  C21421428   3.047   2.959   7.861  0.0361  0.5058  0.0286
  186SLPC  H14R21429   3.024   2.960   7.970  0.3330  0.5079  0.0927
  186SLPC  H14S21430   3.138   3.023   7.854  0.9512 -0.6952  0.7080
  186SLPC  C21521431   3.102   2.819   7.836 -0.0300 -0.1047  0.6348
  186SLPC  H15R21432   3.120   2.818   7.727  1.2574  1.2845  0.8116
  186SLPC  H15S21433   3.031   2.733   7.842  0.9866 -1.0977 -0.8696
  186SLPC  C21621434   3.228   2.792   7.913  0.3745 -1.1497 -0.0431
  186SLPC  H16R21435   3.237   2.837   8.014 -0.1955  2.1009 -1.3190
  186SLPC  H16S21436   3.305   2.844   7.852  0.9772 -0.2080  1.4682
  186SLPC  C21721437   3.274   2.647   7.909 -0.8243 -0.5056 -0.0944
  186SLPC  H17R21438   3.384   2.639   7.923 -0.9569  0.0890  1.6467
  186SLPC  H17S21439   3.247   2.604   7.810 -2.3821 -2.0508  0.9439
  186SLPC  C21821440   3.213   2.559   8.025 -0.1908  0.0824 -0.3777
  186SLPC  H18R21441   3.206   2.613   8.121 -0.5662  2.5880 -1.7293
  186SLPC  H18S21442   3.276   2.467   8.024 -1.2601 -0.7288  1.5695
  186SLPC  H18T21443   3.113   2.520   7.994 -0.3535  1.5695 -1.8586
  186SLPC   C3321444   3.736   3.541   7.005  0.2656 -0.8888  0.3669
  186SLPC   H3X21445   3.643   3.594   7.033  0.7319 -1.1887  2.6594
  186SLPC   H3Y21446   3.802   3.622   6.968  1.9140 -2.3816 -0.1523
  186SLPC   C3421447   3.795   3.469   7.124 -0.0900  0.7856  0.6229
  186SLPC   H4X21448   3.883   3.518   7.170  1.0561  0.2541 -0.8994
  186SLPC   H4Y21449   3.827   3.369   7.086  1.6682  0.7622  2.0652
  186SLPC   C3521450   3.702   3.434   7.239  0.2841 -0.7440 -0.1727
  186SLPC   H5X21451   3.744   3.356   7.307 -2.2860 -1.4879  0.6913
  186SLPC   H5Y21452   3.604   3.397   7.202  0.8141 -1.7625 -0.5967
  186SLPC   C3621453   3.672   3.567   7.314 -0.4448  0.7993  0.1755
  186SLPC   H6X21454   3.611   3.648   7.266  2.0907  3.5465  1.2942
  186SLPC   H6Y21455   3.769   3.613   7.341  0.8946 -2.0097  0.4945
  186SLPC   C3721456   3.599   3.531   7.443 -0.0548 -1.1651 -0.7112
  186SLPC   H7X21457   3.674   3.482   7.510  0.9834 -0.2629 -1.1886
  186SLPC   H7Y21458   3.544   3.439   7.415  0.2535 -1.0179 -1.8558
  186SLPC   C3821459   3.504   3.635   7.510 -1.1049 -0.2365  0.0094
  186SLPC   H8X21460   3.426   3.686   7.450 -0.9421  1.9588  1.5419
  186SLPC   H8Y21461   3.571   3.716   7.547 -0.1983 -1.2351  0.5808
  186SLPC   C3921462   3.429   3.590   7.633  0.5329  0.5199 -1.0318
  186SLPC   H9X21463   3.501   3.539   7.701 -1.2050  1.4683  1.6296
  186SLPC   H9Y21464   3.358   3.507   7.611 -0.2164  0.6943  0.6345
  186SLPC  C31021465   3.361   3.697   7.714 -0.0415  0.3187 -1.3033
  186SLPC  H10X21466   3.274   3.752   7.672 -1.6474  2.5502  4.1169
  186SLPC  H10Y21467   3.433   3.775   7.748  1.8481 -2.0511  0.4741
  186SLPC  C31121468   3.305   3.643   7.843  0.2209  0.5630 -0.4633
  186SLPC  H11X21469   3.386   3.599   7.906 -0.8164  0.2790  0.6981
  186SLPC  H11Y21470   3.225   3.567   7.828  0.8135  0.0603 -1.1649
  186SLPC  C31221471   3.236   3.752   7.930 -0.5356 -0.4292 -0.1677
  186SLPC  H12X21472   3.127   3.733   7.920 -0.2870 -1.4552 -1.1645
  186SLPC  H12Y21473   3.260   3.846   7.877  1.5646 -1.5758 -1.4188
  186SLPC  C31321474   3.305   3.759   8.071 -0.4533  0.4193  0.0418
  186SLPC  H13X21475   3.256   3.841   8.127  2.9272  0.8323  2.6975
  186SLPC  H13Y21476   3.410   3.793   8.056 -0.7037  0.2163 -2.8411
  186SLPC  C31421477   3.302   3.631   8.148 -0.8416 -0.0243 -0.8318
  186SLPC  H14X21478   3.371   3.558   8.100 -0.8096 -0.3307 -0.3242
  186SLPC  H14Y21479   3.196   3.597   8.147 -1.6987  2.2810  1.1597
  186SLPC  C31521480   3.341   3.638   8.298  0.0998 -0.4903  0.4072
  186SLPC  H15X21481   3.445   3.679   8.301 -0.2262  0.3883  0.0332
  186SLPC  H15Y21482   3.360   3.536   8.337 -0.4551 -1.2681 -1.2789
  186SLPC  C31621483   3.247   3.724   8.382 -0.2064 -0.4118  0.3404
  186SLPC  H16X21484   3.157   3.663   8.407 -0.7664  0.6461  1.0312
  186SLPC  H16Y21485   3.222   3.825   8.343 -1.2944 -0.4693  0.8290
  186SLPC  C31721486   3.311   3.747   8.521  0.9266 -0.0099  1.0943
  186SLPC  H17X21487   3.407   3.795   8.493  0.5710  2.8511  4.1540
  186SLPC  H17Y21488   3.328   3.648   8.567  1.6627  0.9906  3.1157
  186SLPC  C31821489   3.237   3.841   8.616 -0.7877 -0.0046 -0.1142
  186SLPC  H18X21490   3.234   3.942   8.569 -1.6522 -0.7063 -1.6634
  186SLPC  H18Y21491   3.308   3.849   8.701 -0.7345  1.5502 -0.2838
  186SLPC  H18Z21492   3.141   3.809   8.661 -1.4027  2.6223  0.6131
  187SLPC     N21493   1.304   4.022   5.926  1.1678 -0.2197 -0.7118
  187SLPC   C1321494   1.168   3.965   5.911  0.2411 -0.4615 -0.0775
  187SLPC  H13A21495   1.175   3.857   5.905  0.0594 -0.5261  0.7850
  187SLPC  H13B21496   1.099   3.997   5.988 -0.1203  0.2215 -0.6745
  187SLPC  H13C21497   1.125   4.005   5.821  1.9238 -0.1942 -0.8003
  187SLPC   C1421498   1.286   4.171   5.953  1.1748  0.2396  0.0583
  187SLPC  H14A21499   1.371   4.236   5.940  0.9373  0.8519  1.3904
  187SLPC  H14B21500   1.217   4.211   5.880  1.6452  0.0232 -0.5082
  187SLPC  H14C21501   1.248   4.189   6.053 -0.7787  2.0485 -0.9213
  187SLPC   C1521502   1.386   4.001   5.797  0.5790  0.8861 -0.4483
  187SLPC  H15A21503   1.484   4.041   5.816  0.0670  1.4635  1.2125
  187SLPC  H15B21504   1.377   3.895   5.780 -1.3761  1.2642 -2.2232
  187SLPC  H15C21505   1.326   4.046   5.719 -1.9580 -0.4229  0.6340
  187SLPC   C1221506   1.373   3.961   6.048 -0.0917  0.9289 -0.2889
  187SLPC  H12A21507   1.467   4.014   6.058  0.2053  1.3713 -4.0940
  187SLPC  H12B21508   1.401   3.859   6.025  0.7696  1.1412 -0.2066
  187SLPC   C1121509   1.298   3.968   6.182 -0.1514 -0.3469 -0.2631
  187SLPC  H11A21510   1.359   3.916   6.259  2.4112  2.8620  0.0954
  187SLPC  H11B21511   1.201   3.915   6.180  0.4146 -1.4514  0.3445
  187SLPC     P21512   1.386   4.180   6.317 -0.4665 -0.2308 -0.3956
  187SLPC   O1321513   1.511   4.187   6.238 -0.2702  0.0170  0.9457
  187SLPC   O1421514   1.324   4.310   6.351 -0.4045 -0.0096  0.3079
  187SLPC   O1221515   1.279   4.099   6.237  0.3378 -0.5604 -0.0432
  187SLPC   O1121516   1.400   4.103   6.452  0.2166 -0.3383 -0.7562
  187SLPC    C121517   1.337   4.152   6.570  0.6311  0.1238  0.1792
  187SLPC    HA21518   1.389   4.118   6.662 -0.1466  1.4744  1.1509
  187SLPC    HB21519   1.333   4.262   6.576 -0.3469  0.0463  1.4590
  187SLPC    C221520   1.190   4.103   6.562 -0.2558 -0.0554 -0.1973
  187SLPC    HS21521   1.137   4.132   6.468 -0.7179  1.3306  0.4697
  187SLPC   O2121522   1.128   4.168   6.673  0.1732 -0.2838 -0.1551
  187SLPC   C2121523   1.001   4.185   6.677  0.0506  0.0594  0.7002
  187SLPC   O2221524   0.916   4.141   6.593  0.0449  0.1656 -0.4169
  187SLPC   C2221525   0.963   4.260   6.799  0.1292  0.7320  0.3026
  187SLPC   H2R21526   1.047   4.329   6.823 -0.0073  0.6338  1.0998
  187SLPC   H2S21527   0.892   4.336   6.759  1.8725  2.3020  0.0279
  187SLPC    C321528   1.176   3.949   6.575  0.2209 -0.0275 -0.1197
  187SLPC    HX21529   1.218   3.909   6.481  0.4142 -1.0157  0.3691
  187SLPC    HY21530   1.070   3.923   6.555 -0.4070  2.3038 -0.0761
  187SLPC   O3121531   1.236   3.894   6.693 -0.0092 -0.6321 -0.4903
  187SLPC   C3121532   1.150   3.899   6.804  0.3499 -0.6164  0.6167
  187SLPC   O3221533   1.032   3.909   6.791  0.0151  0.3500  0.1912
  187SLPC   C3221534   1.238   3.889   6.928  0.8117 -0.4914  0.8759
  187SLPC   H2X21535   1.272   3.992   6.952  2.1701 -0.9512  1.0478
  187SLPC   H2Y21536   1.321   3.817   6.909 -0.3836 -2.0971  1.5743
  187SLPC   C2321537   0.915   4.177   6.926 -0.0878  0.3810  0.6935
  187SLPC   H3R21538   1.006   4.136   6.975  0.1663  0.2356  0.1186
  187SLPC   H3S21539   0.862   4.089   6.883  0.1463  0.5648  0.0084
  187SLPC   C2421540   0.817   4.262   7.007  0.4355  0.2973 -0.0992
  187SLPC   H4R21541   0.734   4.290   6.937  0.4630  2.3964  0.6413
  187SLPC   H4S21542   0.881   4.351   7.024  3.0942 -1.2985 -1.2059
  187SLPC   C2521543   0.763   4.194   7.139  0.2840  0.6388  0.9172
  187SLPC   H5R21544   0.716   4.099   7.105  1.0871  0.8073 -0.7648
  187SLPC   H5S21545   0.686   4.255   7.192 -1.1822 -0.8682  0.6032
  187SLPC   C2621546   0.873   4.150   7.242  0.1572  0.1591 -0.1155
  187SLPC   H6R21547   0.941   4.233   7.268  1.3012 -0.7750 -0.0104
  187SLPC   H6S21548   0.933   4.061   7.212  1.3322  0.9266 -0.0645
  187SLPC   C2721549   0.817   4.095   7.373 -0.0565 -0.2391  0.5880
  187SLPC   H7R21550   0.749   4.010   7.354 -0.5717  0.3633 -0.3524
  187SLPC   H7S21551   0.756   4.179   7.414  0.8575  1.1849 -0.8549
  187SLPC   C2821552   0.928   4.042   7.475  0.1833  0.2098 -0.7153
  187SLPC   H8R21553   1.016   3.997   7.423  0.2876  0.9911 -1.2290
  187SLPC   H8S21554   0.879   3.962   7.534  0.4701  1.7111  1.6745
  187SLPC   C2921555   0.983   4.144   7.567  0.7894  0.1237  0.0397
  187SLPC   H9R21556   0.983   4.248   7.531  4.1610 -0.2370 -1.4201
  187SLPC  C21021557   1.047   4.128   7.684 -0.3083  0.0651 -0.0132
  187SLPC  H10R21558   1.081   4.223   7.728 -0.9459 -0.0602  0.7537
  187SLPC  C21121559   1.075   4.005   7.759 -0.2137 -0.0769  0.2633
  187SLPC  H11R21560   1.186   4.007   7.762 -0.0813  4.1089 -1.2717
  187SLPC  H11S21561   1.040   3.912   7.710  0.8082  0.9763 -2.6696
  187SLPC  C21221562   1.029   4.007   7.906 -0.4949 -0.3608  0.2195
  187SLPC  H12R21563   0.924   4.042   7.907 -0.3887  0.2125 -2.2956
  187SLPC  C21321564   1.086   3.956   8.023  0.5921 -0.4414  0.3574
  187SLPC  H13R21565   1.022   3.966   8.112  2.5950 -1.0006  1.9034
  187SLPC  C21421566   1.223   3.901   8.041 -0.1065  0.5170 -0.3498
  187SLPC  H14R21567   1.284   3.906   7.949  2.5433 -3.0330  0.9735
  187SLPC  H14S21568   1.228   3.794   8.072  3.3902  0.1459 -1.7379
  187SLPC  C21521569   1.285   3.978   8.151  0.4120  0.2228  0.2912
  187SLPC  H15R21570   1.234   3.975   8.250 -2.6250  3.0589 -1.0139
  187SLPC  H15S21571   1.295   4.087   8.132  1.5862  0.5515  2.4706
  187SLPC  C21621572   1.432   3.940   8.173  0.2151  0.0619  0.5235
  187SLPC  H16R21573   1.490   3.958   8.081  0.3352 -1.0715  0.3622
  187SLPC  H16S21574   1.440   3.836   8.212  2.4934  0.5971  1.6568
  187SLPC  C21721575   1.498   4.029   8.278  0.7288 -0.3247 -1.0715
  187SLPC  H17R21576   1.457   4.021   8.381  1.2438  1.8630 -0.6502
  187SLPC  H17S21577   1.477   4.135   8.252  3.9803  1.0839  1.3182
  187SLPC  C21821578   1.656   4.012   8.288 -0.1616  0.4275 -0.0998
  187SLPC  H18R21579   1.686   4.103   8.344  1.4476 -1.0456  1.5754
  187SLPC  H18S21580   1.712   3.993   8.194 -1.9629 -1.1076 -0.9419
  187SLPC  H18T21581   1.686   3.927   8.353  1.6470  0.4781 -0.7972
  187SLPC   C3321582   1.157   3.832   7.041 -0.0718  0.6644  0.0385
  187SLPC   H3X21583   1.133   3.726   7.018 -1.2117  1.2284 -1.4962
  187SLPC   H3Y21584   1.067   3.893   7.063  0.8566  1.9537  0.3903
  187SLPC   C3421585   1.233   3.830   7.168 -0.4839 -0.4581 -0.3092
  187SLPC   H4X21586   1.332   3.783   7.150 -0.2739  0.1379 -0.7735
  187SLPC   H4Y21587   1.192   3.762   7.246  1.8339 -3.2704 -1.3538
  187SLPC   C3521588   1.263   3.970   7.228  1.0072  0.3647  0.5144
  187SLPC   H5X21589   1.169   4.028   7.240  1.5336  1.0346  1.5250
  187SLPC   H5Y21590   1.318   4.032   7.155 -0.1704 -0.8806 -1.5131
  187SLPC   C3621591   1.335   3.951   7.366 -0.1780 -0.2935  0.0624
  187SLPC   H6X21592   1.429   3.898   7.341 -0.2721 -0.1325 -0.6578
  187SLPC   H6Y21593   1.280   3.886   7.437  1.4516 -0.3125  1.3486
  187SLPC   C3721594   1.357   4.082   7.451  0.3483 -0.0936  0.5585
  187SLPC   H7X21595   1.436   4.137   7.396  1.0205 -0.6384  0.9564
  187SLPC   H7Y21596   1.258   4.131   7.460 -0.1520 -1.0838  0.5763
  187SLPC   C3821597   1.415   4.068   7.593 -0.6043 -0.1244 -0.4705
  187SLPC   H8X21598   1.514   4.018   7.589 -0.3165  0.4705 -1.0928
  187SLPC   H8Y21599   1.350   3.998   7.649  1.1914 -0.5749  1.1648
  187SLPC   C3921600   1.422   4.195   7.671 -0.3700 -0.1973 -0.3507
  187SLPC   H9X21601   1.325   4.249   7.676 -0.3528 -0.2937  2.3830
  187SLPC   H9Y21602   1.501   4.262   7.631  0.4916 -0.7984  0.3080
  187SLPC  C31021603   1.474   4.176   7.814 -0.1158  0.3924 -0.1512
  187SLPC  H10X21604   1.564   4.110   7.819 -0.3785 -0.1208 -1.7133
  187SLPC  H10Y21605   1.382   4.141   7.866  0.2782 -1.3681 -0.5611
  187SLPC  C31121606   1.514   4.311   7.880 -0.5481  0.3444  0.1516
  187SLPC  H11X21607   1.427   4.378   7.867  0.7285  1.5925 -3.0932
  187SLPC  H11Y21608   1.598   4.359   7.824 -0.5063  2.3395  1.7986
  187SLPC  C31221609   1.549   4.301   8.031 -0.4883 -0.0632  0.4113
  187SLPC  H12X21610   1.642   4.239   8.031 -0.5853 -0.2274 -0.3559
  187SLPC  H12Y21611   1.469   4.261   8.096  0.7026 -0.4271  1.7169
  187SLPC  C31321612   1.586   4.441   8.079 -1.0106 -0.6515  0.3256
  187SLPC  H13X21613   1.494   4.500   8.059 -1.6288 -2.1698 -1.8057
  187SLPC  H13Y21614   1.664   4.478   8.009  0.9022 -1.8856  1.6987
  187SLPC  C31421615   1.617   4.437   8.225 -0.5039 -0.2373 -0.5271
  187SLPC  H14X21616   1.702   4.371   8.253 -1.3296 -1.7211 -1.3604
  187SLPC  H14Y21617   1.525   4.402   8.275  0.8352 -0.0298  2.2413
  187SLPC  C31521618   1.656   4.578   8.276 -0.4988 -0.5374  0.2119
  187SLPC  H15X21619   1.731   4.605   8.198  0.3269 -3.4335 -0.1410
  187SLPC  H15Y21620   1.702   4.562   8.375  1.1692  0.4930 -0.3585
  187SLPC  C31621621   1.528   4.665   8.275  0.2693 -0.3723  0.4288
  187SLPC  H16X21622   1.451   4.625   8.344 -0.1468  0.0145  0.1951
  187SLPC  H16Y21623   1.479   4.674   8.175 -2.4200  2.1856  1.8130
  187SLPC  C31721624   1.565   4.802   8.327  0.3312 -0.2162 -0.2603
  187SLPC  H17X21625   1.623   4.857   8.250 -1.2469  1.2973 -0.4373
  187SLPC  H17Y21626   1.634   4.793   8.414  1.1941  0.3407 -0.8679
  187SLPC  C31821627   1.450   4.890   8.370  0.0496  0.2506 -0.0295
  187SLPC  H18X21628   1.393   4.830   8.445 -0.1850 -0.9343 -1.1174
  187SLPC  H18Y21629   1.396   4.921   8.278 -1.7092  0.6447  1.0900
  187SLPC  H18Z21630   1.481   4.980   8.427 -0.3154 -1.9626  4.0337
  188SLPC     N21631   1.007   2.058   6.113 -0.1274  0.4446  0.6024
  188SLPC   C1321632   1.137   2.118   6.080 -0.9725  0.4764  0.6258
  188SLPC  H13A21633   1.158   2.126   5.974  1.2455 -0.4578  0.9388
  188SLPC  H13B21634   1.150   2.218   6.120 -0.0241  0.9858 -0.8260
  188SLPC  H13C21635   1.221   2.059   6.113 -0.5399 -0.3398 -1.7157
  188SLPC   C1421636   1.022   1.906   6.109 -0.3075  0.0233  0.0265
  188SLPC  H14A21637   1.056   1.860   6.200 -1.0024 -5.1615 -1.9597
  188SLPC  H14B21638   0.925   1.859   6.098 -0.1609 -0.2122 -0.2813
  188SLPC  H14C21639   1.093   1.889   6.029 -0.4048  2.9479 -0.7866
  188SLPC   C1521640   0.917   2.093   5.999 -0.5006  0.5599  0.3550
  188SLPC  H15A21641   0.894   2.199   6.005 -1.5861  0.4311 -0.9295
  188SLPC  H15B21642   0.972   2.085   5.906 -1.0965 -2.0973  0.1685
  188SLPC  H15C21643   0.823   2.040   6.004 -0.1608 -0.1334 -0.3402
  188SLPC   C1221644   0.954   2.115   6.243  0.1143  0.3360  0.1834
  188SLPC  H12A21645   0.847   2.107   6.246  0.0306  0.9898 -0.7422
  188SLPC  H12B21646   0.958   2.220   6.222  1.8114  0.3075  0.2125
  188SLPC   C1121647   1.017   2.072   6.381  0.1194  0.0895 -0.4259
  188SLPC  H11A21648   1.021   1.961   6.370 -2.1329 -0.1587  0.7701
  188SLPC  H11B21649   0.956   2.091   6.471 -0.3103 -0.0223 -0.6906
  188SLPC     P21650   1.163   2.270   6.437 -0.2428 -0.2369  0.2353
  188SLPC   O1321651   1.304   2.296   6.397 -0.7805 -0.2216 -0.1647
  188SLPC   O1421652   1.057   2.346   6.367 -0.9021  0.8394 -0.6556
  188SLPC   O1221653   1.146   2.119   6.399 -0.1651 -0.6335  0.9842
  188SLPC   O1121654   1.141   2.264   6.593  0.2180  0.4431 -0.1514
  188SLPC    C121655   1.061   2.361   6.662 -0.0038  0.4324 -0.0374
  188SLPC    HA21656   0.985   2.404   6.595  1.3677  0.1186 -1.8863
  188SLPC    HB21657   1.006   2.313   6.746  0.8718 -1.7799 -0.6265
  188SLPC    C221658   1.134   2.478   6.732  0.7146  0.4560  0.2965
  188SLPC    HS21659   1.199   2.535   6.663  2.1733  0.4446  1.6180
  188SLPC   O2121660   1.210   2.429   6.843 -0.9881 -1.1880 -0.4035
  188SLPC   C2121661   1.338   2.414   6.830 -0.3627  0.6628 -0.0736
  188SLPC   O2221662   1.410   2.452   6.740  0.1865 -0.1044  0.0205
  188SLPC   C2221663   1.381   2.331   6.952  0.6568 -0.2105 -0.4377
  188SLPC   H2R21664   1.334   2.230   6.948  2.7642 -1.2099 -1.6254
  188SLPC   H2S21665   1.490   2.311   6.946  0.7389  0.2873 -0.6579
  188SLPC    C321666   1.023   2.573   6.787 -0.2361  0.7495  0.1459
  188SLPC    HX21667   0.975   2.520   6.871  0.4081 -1.2043 -0.6565
  188SLPC    HY21668   0.951   2.583   6.703 -0.3661 -1.6153 -0.0934
  188SLPC   O3121669   1.075   2.695   6.839  0.3498 -0.3193 -0.3848
  188SLPC   C3121670   0.984   2.797   6.864 -0.8084 -0.0441  0.2318
  188SLPC   O3221671   0.875   2.800   6.815  0.2659 -0.1230 -0.0904
  188SLPC   C3221672   1.053   2.892   6.964 -0.2406 -0.0412 -0.4536
  188SLPC   H2X21673   1.119   2.965   6.912  2.0140 -0.3082  1.8392
  188SLPC   H2Y21674   1.106   2.829   7.039 -0.7754 -1.3974 -1.1777
  188SLPC   C2321675   1.338   2.392   7.087  0.5029 -0.2583 -0.2452
  188SLPC   H3R21676   1.227   2.388   7.087  0.4248  0.9495 -2.1035
  188SLPC   H3S21677   1.370   2.495   7.112 -1.5051  0.5456 -0.8048
  188SLPC   C2421678   1.401   2.314   7.196 -0.3106  0.8442 -0.4986
  188SLPC   H4R21679   1.499   2.264   7.179  0.7498  1.5784  2.7050
  188SLPC   H4S21680   1.338   2.224   7.215  1.0706 -0.6986 -2.7395
  188SLPC   C2521681   1.411   2.400   7.322  0.2670  0.9285 -0.8149
  188SLPC   H5R21682   1.305   2.427   7.343  0.0995 -0.6316  0.5726
  188SLPC   H5S21683   1.465   2.496   7.304  0.6616  0.6988 -0.8526
  188SLPC   C2621684   1.465   2.324   7.448 -0.4446  0.2742 -0.2970
  188SLPC   H6R21685   1.574   2.302   7.439 -0.6106 -0.6334 -0.1204
  188SLPC   H6S21686   1.411   2.228   7.454 -0.0800 -0.0047 -1.2468
  188SLPC   C2721687   1.451   2.401   7.580 -0.1411 -0.4087 -0.3428
  188SLPC   H7R21688   1.345   2.428   7.601 -0.9210 -3.8537  0.6889
  188SLPC   H7S21689   1.504   2.496   7.558 -1.4864  0.2891 -0.6677
  188SLPC   C2821690   1.520   2.348   7.709 -0.0623  0.1850  0.5338
  188SLPC   H8R21691   1.526   2.436   7.776 -0.3569  2.5144 -2.2604
  188SLPC   H8S21692   1.626   2.325   7.687 -0.5795 -1.7721 -0.1323
  188SLPC   C2921693   1.444   2.234   7.763 -0.0912  0.4863  0.6845
  188SLPC   H9R21694   1.385   2.182   7.686 -1.0153  1.3236  0.8077
  188SLPC  C21021695   1.448   2.196   7.893  0.0233  0.4472 -0.3663
  188SLPC  H10R21696   1.398   2.103   7.924 -0.9544  0.4490 -1.8004
  188SLPC  C21121697   1.528   2.255   8.002 -0.5429  0.2020 -0.3552
  188SLPC  H11R21698   1.625   2.295   7.964 -1.6049  1.6328 -1.7126
  188SLPC  H11S21699   1.541   2.170   8.072 -2.4371 -0.7893 -1.1390
  188SLPC  C21221700   1.468   2.375   8.087  0.0629  0.7550  0.7135
  188SLPC  H12R21701   1.495   2.472   8.044 -3.9831  0.4766 -3.3445
  188SLPC  C21321702   1.383   2.375   8.186 -0.1844 -0.6070 -0.0683
  188SLPC  H13R21703   1.361   2.471   8.235 -2.3655  0.0668 -2.1614
  188SLPC  C21421704   1.332   2.245   8.253  0.6402  0.1949  0.2572
  188SLPC  H14R21705   1.320   2.265   8.362 -2.4050  0.0769  0.0317
  188SLPC  H14S21706   1.402   2.161   8.235  0.4641  0.2682 -0.8693
  188SLPC  C21521707   1.196   2.205   8.197 -0.6195 -0.0242  0.2582
  188SLPC  H15R21708   1.209   2.177   8.090 -1.4195 -4.0010  1.0295
  188SLPC  H15S21709   1.129   2.290   8.222  0.3644  0.8362 -0.0051
  188SLPC  C21621710   1.146   2.080   8.275  0.3061  0.8956  0.7383
  188SLPC  H16R21711   1.143   2.085   8.386 -1.1806 -0.0196  0.7641
  188SLPC  H16S21712   1.222   2.005   8.245  0.1621  1.7789 -2.1384
  188SLPC  C21721713   1.003   2.035   8.242  0.1651  0.4057 -0.0163
  188SLPC  H17R21714   0.977   2.021   8.135 -2.3966 -0.0530  0.5957
  188SLPC  H17S21715   0.941   2.117   8.284 -0.5447  0.6566 -1.4707
  188SLPC  C21821716   0.963   1.909   8.313 -0.3668  0.0467 -0.1394
  188SLPC  H18R21717   0.984   1.914   8.422 -0.4570 -2.1652  0.0286
  188SLPC  H18S21718   1.008   1.815   8.277 -1.7196 -1.8276  2.6667
  188SLPC  H18T21719   0.854   1.886   8.302 -0.3139 -0.3208  0.0950
  188SLPC   C3321720   0.945   2.985   7.028 -0.1101 -0.0949  0.4216
  188SLPC   H3X21721   0.863   2.919   7.063 -0.6438  0.2940 -0.0792
  188SLPC   H3Y21722   0.896   3.048   6.951 -2.1281 -0.7179  1.1436
  188SLPC   C3421723   0.991   3.065   7.151 -0.2876  0.1386 -0.3946
  188SLPC   H4X21724   0.916   3.138   7.188 -1.2056 -1.7306  1.6648
  188SLPC   H4Y21725   1.092   3.106   7.129 -0.0569 -0.7850 -1.1213
  188SLPC   C3521726   1.016   2.966   7.269 -0.7002 -0.5026 -0.8588
  188SLPC   H5X21727   1.110   2.910   7.253 -0.7465 -0.1995 -2.3497
  188SLPC   H5Y21728   0.934   2.891   7.264 -0.6612 -0.5148 -1.3705
  188SLPC   C3621729   0.999   3.045   7.407  0.3375  0.8764 -0.5828
  188SLPC   H6X21730   0.905   3.102   7.420 -2.6039 -3.5710  0.0995
  188SLPC   H6Y21731   1.076   3.125   7.412 -0.7213  1.8628  2.0453
  188SLPC   C3721732   1.012   2.950   7.526 -0.1384 -0.0496 -0.1139
  188SLPC   H7X21733   1.105   2.890   7.534 -1.0132 -1.4278  0.2301
  188SLPC   H7Y21734   0.918   2.892   7.510 -0.2713  0.0015  0.4447
  188SLPC   C3821735   0.997   3.024   7.666 -1.1403 -0.3401  0.4313
  188SLPC   H8X21736   0.895   3.067   7.674 -0.8910  1.0616 -2.6701
  188SLPC   H8Y21737   1.070   3.107   7.653 -1.5687 -0.3206 -2.3795
  188SLPC   C3921738   1.035   2.931   7.784 -0.0529 -0.2155 -0.0881
  188SLPC   H9X21739   1.120   2.862   7.768  0.2450 -0.7912  3.1967
  188SLPC   H9Y21740   0.946   2.866   7.801  0.3855 -1.8569 -3.2636
  188SLPC  C31021741   1.067   3.012   7.910 -0.0365  0.0724 -0.2599
  188SLPC  H10X21742   1.018   3.111   7.897 -0.5238 -0.1017  0.2128
  188SLPC  H10Y21743   1.176   3.035   7.912  0.6786 -2.7452 -1.6795
  188SLPC  C31121744   1.027   2.936   8.041 -0.4397 -0.9835  0.0422
  188SLPC  H11X21745   1.104   2.861   8.067  1.1206  0.4246 -0.3731
  188SLPC  H11Y21746   0.936   2.875   8.022 -1.5460  0.1267  1.4790
  188SLPC  C31221747   0.994   3.043   8.152 -0.2486 -1.0070 -0.3299
  188SLPC  H12X21748   0.923   3.118   8.112  1.5137  0.9620  0.0576
  188SLPC  H12Y21749   1.085   3.103   8.173 -0.6677  0.2214 -1.8620
  188SLPC  C31321750   0.944   2.978   8.290  0.3929 -0.3536 -0.5115
  188SLPC  H13X21751   1.027   2.922   8.339  0.4706  2.1714  2.5318
  188SLPC  H13Y21752   0.872   2.900   8.258  0.9353 -0.9162 -0.3900
  188SLPC  C31421753   0.893   3.068   8.396  0.0835 -0.2786 -0.0178
  188SLPC  H14X21754   0.959   3.157   8.410 -1.6434  1.3263 -1.5833
  188SLPC  H14Y21755   0.879   3.016   8.493 -0.0862  3.7329  2.3234
  188SLPC  C31521756   0.766   3.134   8.358  0.5894 -0.1108  0.2086
  188SLPC  H15X21757   0.693   3.050   8.351  1.2050 -0.5720 -1.0031
  188SLPC  H15Y21758   0.766   3.179   8.257  0.6252 -2.0580 -0.7055
  188SLPC  C31621759   0.709   3.248   8.452  0.3941  0.0235 -0.2886
  188SLPC  H16X21760   0.619   3.281   8.396  1.3608  0.4332 -1.6540
  188SLPC  H16Y21761   0.788   3.326   8.455 -1.2011  1.6935  0.2957
  188SLPC  C31721762   0.674   3.205   8.595  1.1279 -0.1876  0.3403
  188SLPC  H17X21763   0.666   3.094   8.600 -0.2521 -0.0624  3.0061
  188SLPC  H17Y21764   0.569   3.241   8.610  0.3067 -1.9824 -0.7303
  188SLPC  C31821765   0.761   3.260   8.704  0.4570 -0.1015 -0.1162
  188SLPC  H18X21766   0.742   3.212   8.802  1.4422 -2.4446 -1.0053
  188SLPC  H18Y21767   0.733   3.367   8.715  1.1287 -0.1359  2.6577
  188SLPC  H18Z21768   0.871   3.258   8.694  1.2409  0.4696  5.3219
  189SLPC     N21769   5.008   6.482   6.107 -0.1408 -0.2483 -0.3559
  189SLPC   C1321770   4.932   6.609   6.116 -0.1584  0.4402 -0.3831
  189SLPC  H13A21771   4.993   6.670   6.182  0.2377  2.1096 -2.1968
  189SLPC  H13B21772   4.917   6.668   6.027  1.1394  2.1989  0.4838
  189SLPC  H13C21773   4.840   6.587   6.168 -0.1649  0.0207 -0.5700
  189SLPC   C1421774   5.132   6.500   6.027  0.0053 -0.0288 -0.2230
  189SLPC  H14A21775   5.195   6.414   6.012  1.0500  0.9794 -1.9377
  189SLPC  H14B21776   5.108   6.542   5.930  0.8621  1.8145  0.3123
  189SLPC  H14C21777   5.191   6.571   6.083 -0.2629  0.9349 -1.1276
  189SLPC   C1521778   4.928   6.381   6.036 -0.1940 -0.0001 -0.4199
  189SLPC  H15A21779   4.972   6.284   6.013 -0.0672  0.0466 -0.3795
  189SLPC  H15B21780   4.828   6.368   6.074  0.2749  0.5496  1.1014
  189SLPC  H15C21781   4.903   6.411   5.936 -0.6578  0.6008 -0.1291
  189SLPC   C1221782   5.033   6.433   6.247 -0.3415  0.0482  0.2630
  189SLPC  H12A21783   5.103   6.352   6.240  0.7824  1.1105 -1.9423
  189SLPC  H12B21784   4.942   6.400   6.295 -0.3174  0.3281  0.5043
  189SLPC   C1121785   5.087   6.544   6.341 -0.8129 -0.0841 -0.4440
  189SLPC  H11A21786   5.150   6.598   6.267 -2.0458 -2.7572 -3.7251
  189SLPC  H11B21787   5.135   6.494   6.428 -1.9011  0.9410  0.7797
  189SLPC     P21788   4.973   6.713   6.513  0.0180  0.7860 -0.1400
  189SLPC   O1321789   5.078   6.819   6.519  0.1585  0.4358 -0.0944
  189SLPC   O1421790   4.836   6.758   6.522 -0.0240 -0.2040 -0.2821
  189SLPC   O1221791   4.991   6.632   6.385 -0.0162 -0.1882  0.1739
  189SLPC   O1121792   4.996   6.609   6.624 -0.6400  0.1389  0.1002
  189SLPC    C121793   4.907   6.499   6.653  0.0452  0.6639  0.7540
  189SLPC    HA21794   4.809   6.508   6.601  0.3918 -0.0390 -0.0413
  189SLPC    HB21795   4.945   6.399   6.623 -1.4168 -0.0191  1.0945
  189SLPC    C221796   4.871   6.491   6.801 -0.2139  0.5663  0.2444
  189SLPC    HS21797   4.949   6.434   6.855  1.5272  0.5030 -2.1883
  189SLPC   O2121798   4.744   6.429   6.814 -0.0907 -0.4045  0.2591
  189SLPC   C2121799   4.720   6.314   6.764 -0.4247  0.1111  0.1844
  189SLPC   O2221800   4.794   6.242   6.693  0.2211 -0.1740 -0.5040
  189SLPC   C2221801   4.585   6.273   6.812  0.0818  0.0622 -1.0652
  189SLPC   H2R21802   4.505   6.337   6.769  0.3956  1.1886 -0.0346
  189SLPC   H2S21803   4.566   6.171   6.773 -0.4256 -0.5965  0.8012
  189SLPC    C321804   4.867   6.631   6.858  0.2510 -0.2324  0.2453
  189SLPC    HX21805   4.773   6.677   6.820  0.1432 -1.3199 -0.8434
  189SLPC    HY21806   4.946   6.698   6.817 -1.8674  1.9868 -0.4822
  189SLPC   O3121807   4.868   6.616   7.006  0.9921  0.2790  0.1809
  189SLPC   C3121808   4.986   6.606   7.062  0.3162 -0.4376  0.0112
  189SLPC   O3221809   5.094   6.637   7.002  0.1863 -0.2203 -0.2789
  189SLPC   C3221810   4.981   6.552   7.197  0.6246  0.3802  0.2104
  189SLPC   H2X21811   4.944   6.633   7.264 -1.0260 -2.7408  3.4436
  189SLPC   H2Y21812   5.082   6.521   7.231  0.3850 -1.3409 -0.5824
  189SLPC   C2321813   4.576   6.274   6.968  0.9142 -0.5283 -0.3829
  189SLPC   H3R21814   4.473   6.241   6.994  0.7490  0.4194  0.2084
  189SLPC   H3S21815   4.590   6.373   7.016  1.1698  0.0820 -1.6943
  189SLPC   C2421816   4.668   6.179   7.050  0.1941 -0.2929 -0.1004
  189SLPC   H4R21817   4.772   6.211   7.029 -0.5864  2.0763 -0.6794
  189SLPC   H4S21818   4.633   6.081   7.012 -1.6851  0.0519  0.6326
  189SLPC   C2521819   4.646   6.181   7.196  0.2886 -0.1069 -0.4267
  189SLPC   H5R21820   4.536   6.177   7.212  0.2795 -4.1393 -0.4965
  189SLPC   H5S21821   4.676   6.279   7.238 -2.0856  0.7960 -0.7092
  189SLPC   C2621822   4.703   6.069   7.282  0.2839 -0.7577 -0.4339
  189SLPC   H6R21823   4.813   6.058   7.289  0.0907 -2.0800  0.9760
  189SLPC   H6S21824   4.671   5.974   7.236  0.0808 -0.3624 -1.1303
  189SLPC   C2721825   4.626   6.066   7.424 -0.9571 -0.0551  0.4049
  189SLPC   H7R21826   4.523   6.103   7.404 -1.2807 -2.1621 -2.4906
  189SLPC   H7S21827   4.669   6.150   7.482 -0.3991 -0.5828  0.7584
  189SLPC   C2821828   4.641   5.933   7.496  0.6439 -0.1046 -0.5350
  189SLPC   H8R21829   4.573   5.857   7.453 -0.3724  0.4097  0.1175
  189SLPC   H8S21830   4.592   5.956   7.593  0.2590 -0.2124 -0.7029
  189SLPC   C2921831   4.782   5.887   7.502  0.4002  0.4028  0.1682
  189SLPC   H9R21832   4.813   5.837   7.409  0.8137  2.0793 -0.6514
  189SLPC  C21021833   4.871   5.905   7.601 -0.0346 -0.5849  0.1170
  189SLPC  H10R21834   4.974   5.866   7.597  0.6952  1.3305 -0.8786
  189SLPC  C21121835   4.830   5.969   7.735  0.2576 -0.2344  0.1352
  189SLPC  H11R21836   4.756   5.905   7.787 -1.8736 -0.5528 -3.0193
  189SLPC  H11S21837   4.776   6.061   7.704 -0.9264 -0.8868  0.2108
  189SLPC  C21221838   4.943   6.008   7.828  0.0949  0.4202  0.3321
  189SLPC  H12R21839   5.045   6.010   7.785  0.2700 -2.7171  0.3066
  189SLPC  C21321840   4.925   6.010   7.958  0.3036 -0.6666 -0.2646
  189SLPC  H13R21841   5.015   6.029   8.019 -2.4923  0.3345  3.9878
  189SLPC  C21421842   4.806   5.989   8.052 -0.1457  0.1527  0.2001
  189SLPC  H14R21843   4.723   5.955   7.986  0.9951  0.9032 -1.6910
  189SLPC  H14S21844   4.774   6.084   8.100 -0.6187  1.1813 -1.9818
  189SLPC  C21521845   4.832   5.884   8.165  0.0159 -0.1417  0.2275
  189SLPC  H15R21846   4.865   5.791   8.112 -2.0929  1.1834 -3.8134
  189SLPC  H15S21847   4.733   5.868   8.213 -0.2759 -1.2770 -0.7055
  189SLPC  C21621848   4.945   5.919   8.261 -0.2361 -0.2860  0.5134
  189SLPC  H16R21849   5.030   5.930   8.191 -0.5433 -1.7343 -0.1211
  189SLPC  H16S21850   4.985   5.838   8.326 -1.3266 -0.8686  0.4877
  189SLPC  C21721851   4.934   6.057   8.338 -0.2092  0.3821  0.7553
  189SLPC  H17R21852   4.846   6.051   8.405  0.0821 -1.7972  1.0156
  189SLPC  H17S21853   4.923   6.140   8.265  0.3775 -0.6361 -0.5453
  189SLPC  C21821854   5.055   6.072   8.433  0.4641 -0.1342  1.2468
  189SLPC  H18R21855   5.148   6.086   8.375 -0.3463  2.1912  0.3969
  189SLPC  H18S21856   5.054   5.985   8.502 -1.2875 -1.5842 -0.4904
  189SLPC  H18T21857   5.047   6.161   8.499  0.0710  1.1996 -0.5244
  189SLPC   C3321858   4.884   6.436   7.222  0.5146  1.0407 -0.6434
  189SLPC   H3X21859   4.917   6.345   7.168 -0.6188  0.4748 -0.3994
  189SLPC   H3Y21860   4.780   6.460   7.192  0.4480  1.5543 -0.0421
  189SLPC   C3421861   4.873   6.400   7.377 -0.4204  0.3168  0.1769
  189SLPC   H4X21862   4.786   6.333   7.392  0.1923 -0.2035  1.4695
  189SLPC   H4Y21863   4.861   6.499   7.426 -0.2572 -0.6169  2.2045
  189SLPC   C3521864   4.998   6.322   7.443 -0.2569 -0.9141 -0.0034
  189SLPC   H5X21865   5.093   6.373   7.418 -0.8355 -0.3440 -1.1440
  189SLPC   H5Y21866   4.997   6.225   7.388 -0.0365 -1.2941  0.6570
  189SLPC   C3621867   4.990   6.309   7.593 -0.0076 -0.4184 -0.1349
  189SLPC   H6X21868   5.080   6.264   7.640  0.1844  0.8141  0.7056
  189SLPC   H6Y21869   4.904   6.252   7.635 -1.4614  2.1172  0.5292
  189SLPC   C3721870   4.962   6.445   7.666  1.3184 -0.1496  0.2496
  189SLPC   H7X21871   4.859   6.472   7.635  1.5923 -0.2927 -0.8419
  189SLPC   H7Y21872   5.041   6.514   7.629 -0.3836  0.8812 -1.6723
  189SLPC   C3821873   4.956   6.437   7.818  0.4763 -0.3030  0.0372
  189SLPC   H8X21874   5.051   6.401   7.863  0.8557  0.6746  0.0416
  189SLPC   H8Y21875   4.872   6.367   7.838  0.2068  0.1656  0.5690
  189SLPC   C3921876   4.928   6.568   7.886  0.5804  0.7340 -0.1375
  189SLPC   H9X21877   4.823   6.593   7.859  0.8375  1.0073 -0.9121
  189SLPC   H9Y21878   4.993   6.645   7.841  1.4987  0.5303  0.8178
  189SLPC  C31021879   4.938   6.560   8.040 -0.2438 -0.0565  0.0781
  189SLPC  H10X21880   5.034   6.512   8.067  0.7080  1.9835  0.5723
  189SLPC  H10Y21881   4.855   6.502   8.085 -1.1358  0.6250 -0.6376
  189SLPC  C31121882   4.943   6.699   8.099 -0.3499  0.0563 -0.4530
  189SLPC  H11X21883   4.836   6.711   8.128 -0.2899 -0.4284 -0.0124
  189SLPC  H11Y21884   4.976   6.780   8.031 -2.8438  1.5179 -0.0565
  189SLPC  C31221885   5.017   6.706   8.237 -0.4940  0.6372 -0.7771
  189SLPC  H12X21886   5.119   6.664   8.222 -0.0670  1.3201  0.1067
  189SLPC  H12Y21887   4.960   6.641   8.306 -1.5336  0.3632 -1.8761
  189SLPC  C31321888   5.034   6.844   8.299  0.1388 -0.0588 -0.1472
  189SLPC  H13X21889   4.936   6.894   8.312 -0.4288 -1.3224  0.6426
  189SLPC  H13Y21890   5.087   6.909   8.227 -1.6929 -1.0367 -2.5377
  189SLPC  C31421891   5.076   6.848   8.449  0.4647 -0.1457  0.5487
  189SLPC  H14X21892   5.095   6.956   8.472 -0.9490  0.3684 -0.5347
  189SLPC  H14Y21893   5.166   6.783   8.451  2.3675  2.1998 -1.2818
  189SLPC  C31521894   4.967   6.787   8.537 -0.3080 -0.1726  0.3493
  189SLPC  H15X21895   4.950   6.679   8.516 -1.1442 -0.2737  1.4460
  189SLPC  H15Y21896   4.874   6.833   8.499  0.6539 -0.9434 -3.2935
  189SLPC  C31621897   5.001   6.801   8.692  0.1995 -0.6622 -0.3007
  189SLPC  H16X21898   4.914   6.789   8.759 -0.8927  0.0090 -1.5550
  189SLPC  H16Y21899   5.040   6.904   8.690 -1.3232 -0.0613 -0.6543
  189SLPC  C31721900   5.115   6.711   8.733  0.0606  0.4532 -1.0067
  189SLPC  H17X21901   5.197   6.727   8.659  0.3435  1.4770 -0.4920
  189SLPC  H17Y21902   5.073   6.608   8.732 -1.0214  0.7228  2.3051
  189SLPC  C31821903   5.160   6.739   8.876 -0.4369  0.3496 -0.1270
  189SLPC  H18X21904   5.243   6.680   8.920 -1.1647 -0.4311  0.2442
  189SLPC  H18Y21905   5.075   6.703   8.937  1.1502 -2.9742  0.3086
  189SLPC  H18Z21906   5.180   6.848   8.889  1.1382 -0.0395  0.9629
  190SLPC     N21907   5.486   0.041   6.424 -0.1756 -0.3020  0.5475
  190SLPC   C1321908   5.602   0.022   6.326  0.4548  0.2240 -0.9552
  190SLPC  H13A21909   5.600   0.100   6.252 -0.9703  2.3763  1.1986
  190SLPC  H13B21910   5.690   0.035   6.386 -0.5491  2.0212  0.2289
  190SLPC  H13C21911   5.588  -0.074   6.277  1.6273  0.1449 -1.1603
  190SLPC   C1421912   5.358   0.040   6.346  0.4778  0.8951  0.4222
  190SLPC  H14A21913   5.353   0.114   6.268  0.6624  0.4826  0.0143
  190SLPC  H14B21914   5.355  -0.051   6.289  3.2353 -0.0559  1.6363
  190SLPC  H14C21915   5.272   0.049   6.412 -2.0110 -0.2013 -2.4377
  190SLPC   C1521916   5.502   0.167   6.489  0.9759 -0.2778  0.0331
  190SLPC  H15A21917   5.413   0.196   6.543  2.0217  0.3366  1.4992
  190SLPC  H15B21918   5.581   0.165   6.562 -0.8746  0.2148  2.1667
  190SLPC  H15C21919   5.512   0.251   6.422  0.4887 -0.4726 -0.2846
  190SLPC   C1221920   5.484  -0.071   6.526 -1.0637 -0.3075 -0.3466
  190SLPC  H12A21921   5.412  -0.037   6.599  1.0399  3.7999  0.1064
  190SLPC  H12B21922   5.579  -0.067   6.578 -0.6032 -2.0111 -0.9918
  190SLPC   C1121923   5.466  -0.214   6.480  0.6069  1.0235 -0.1879
  190SLPC  H11A21924   5.365  -0.227   6.436  0.6552  1.1903 -0.3481
  190SLPC  H11B21925   5.468  -0.274   6.574  1.2964  1.1934 -0.0877
  190SLPC     P21926   5.701  -0.328   6.428 -0.0823  0.0956  0.2729
  190SLPC   O1321927   5.669  -0.469   6.475 -1.0244 -0.0124 -0.8413
  190SLPC   O1421928   5.800  -0.324   6.323 -0.5140  0.4057  0.6561
  190SLPC   O1221929   5.564  -0.256   6.386 -0.1498 -0.0842 -0.1314
  190SLPC   O1121930   5.758  -0.245   6.549  0.7686 -0.0882  0.5020
  190SLPC    C121931   5.850  -0.297   6.641  0.3138  0.2034 -1.1970
  190SLPC    HA21932   5.921  -0.367   6.592  1.9867  0.7993  0.2536
  190SLPC    HB21933   5.916  -0.215   6.678  2.3331 -1.3203 -1.2059
  190SLPC    C221934   5.784  -0.366   6.759 -0.3562  0.5750 -0.2458
  190SLPC    HS21935   5.717  -0.444   6.717  1.7500 -1.0387 -0.8100
  190SLPC   O2121936   5.711  -0.263   6.824  0.5213  0.7196 -0.0412
  190SLPC   C2121937   5.599  -0.304   6.895  0.8600  0.1537 -0.0831
  190SLPC   O2221938   5.559  -0.420   6.906 -0.2627  0.1437 -0.0782
  190SLPC   C2221939   5.515  -0.173   6.927 -0.6875 -0.4363 -0.2457
  190SLPC   H2R21940   5.573  -0.087   6.967 -2.9994  0.3646  1.5715
  190SLPC   H2S21941   5.465  -0.140   6.833 -1.3395  1.4555  0.7291
  190SLPC    C321942   5.894  -0.428   6.852 -0.6168  0.4031  0.1160
  190SLPC    HX21943   5.968  -0.346   6.868 -0.7194  0.2668  1.4181
  190SLPC    HY21944   5.946  -0.504   6.790  1.1514  1.5400  0.1052
  190SLPC   O3121945   5.852  -0.477   6.983 -0.4367 -0.1756  0.6366
  190SLPC   C3121946   5.805  -0.603   6.976 -0.5182  0.4387  0.3051
  190SLPC   O3221947   5.805  -0.676   6.875 -0.1091 -0.0368  0.2310
  190SLPC   C3221948   5.753  -0.657   7.112  0.5027  0.2545 -1.1682
  190SLPC   H2X21949   5.824  -0.731   7.154 -0.3839 -0.8084 -1.5193
  190SLPC   H2Y21950   5.657  -0.711   7.100  0.6434 -0.7358  1.4846
  190SLPC   C2321951   5.405  -0.196   7.027 -0.3877 -0.6950 -0.4696
  190SLPC   H3R21952   5.333  -0.272   6.989 -1.5116  0.3058 -0.3956
  190SLPC   H3S21953   5.355  -0.097   7.041  0.3492 -0.7092  3.2617
  190SLPC   C2421954   5.467  -0.227   7.163 -0.0077 -0.1132  0.4030
  190SLPC   H4R21955   5.544  -0.148   7.182  0.5218 -0.7322  0.8717
  190SLPC   H4S21956   5.516  -0.327   7.159 -3.8123 -2.0946 -1.4667
  190SLPC   C2521957   5.366  -0.226   7.278  0.0334 -0.1185 -0.8934
  190SLPC   H5R21958   5.302  -0.315   7.262  0.2455 -0.0688 -2.1284
  190SLPC   H5S21959   5.301  -0.137   7.268 -0.6070 -0.6264 -1.3056
  190SLPC   C2621960   5.440  -0.236   7.417  0.1978  0.1119 -0.4236
  190SLPC   H6R21961   5.514  -0.155   7.437  2.9597 -2.2468 -0.4192
  190SLPC   H6S21962   5.494  -0.332   7.431  2.9288  1.8503  2.2822
  190SLPC   C2721963   5.334  -0.216   7.529 -0.1347  0.3016 -0.7895
  190SLPC   H7R21964   5.269  -0.306   7.516  1.5215 -0.7692 -2.0869
  190SLPC   H7S21965   5.277  -0.126   7.499 -0.1836  0.5505  0.0335
  190SLPC   C2821966   5.394  -0.202   7.673 -0.8276  0.8717  0.6417
  190SLPC   H8R21967   5.468  -0.119   7.676  0.9986 -0.7327  1.4569
  190SLPC   H8S21968   5.458  -0.290   7.695 -1.3046  0.6526  1.1697
  190SLPC   C2921969   5.294  -0.190   7.786  0.5141  0.1513  0.3941
  190SLPC   H9R21970   5.234  -0.099   7.799  0.2814  0.1675 -0.6853
  190SLPC  C21021971   5.278  -0.274   7.891  0.4113  0.4712 -0.7459
  190SLPC  H10R21972   5.208  -0.251   7.973 -0.2889 -0.1157 -1.1676
  190SLPC  C21121973   5.355  -0.401   7.919 -0.4177 -0.1543  0.3432
  190SLPC  H11R21974   5.435  -0.380   7.993 -0.7295  1.2184  0.3141
  190SLPC  H11S21975   5.404  -0.428   7.823  0.6545  2.0491  0.2139
  190SLPC  C21221976   5.279  -0.507   7.988  0.3488  1.0293  0.0981
  190SLPC  H12R21977   5.235  -0.582   7.921  2.4673 -1.2126  1.0593
  190SLPC  C21321978   5.265  -0.535   8.122  0.1061 -0.7095  0.0688
  190SLPC  H13R21979   5.195  -0.616   8.148 -1.0478  0.4468  0.6448
  190SLPC  C21421980   5.320  -0.461   8.237 -0.0181  0.0535 -0.3534
  190SLPC  H14R21981   5.371  -0.369   8.200 -1.3465  1.3547  0.9319
  190SLPC  H14S21982   5.404  -0.515   8.286 -0.5749  0.7056  1.3841
  190SLPC  C21521983   5.214  -0.424   8.343  0.8991 -0.5783  0.4677
  190SLPC  H15R21984   5.175  -0.518   8.388  1.9596  0.7369  4.5007
  190SLPC  H15S21985   5.131  -0.375   8.288  0.6103  0.2445  1.6093
  190SLPC  C21621986   5.274  -0.331   8.440  0.2374 -0.2568 -1.0447
  190SLPC  H16R21987   5.209  -0.307   8.527  1.9031 -0.2430  0.2754
  190SLPC  H16S21988   5.294  -0.234   8.390 -0.0182 -0.4743 -1.5654
  190SLPC  C21721989   5.403  -0.385   8.523 -0.5828 -0.3189  1.1126
  190SLPC  H17R21990   5.436  -0.311   8.599  0.9110 -0.6258  0.7898
  190SLPC  H17S21991   5.501  -0.394   8.470 -1.2196 -0.2658 -0.1020
  190SLPC  C21821992   5.380  -0.514   8.601 -0.5554 -0.7010  0.2907
  190SLPC  H18R21993   5.283  -0.507   8.655  0.2423 -0.0600  1.7114
  190SLPC  H18S21994   5.458  -0.540   8.676  1.3467 -2.0852 -2.0139
  190SLPC  H18T21995   5.392  -0.596   8.527  1.1051 -0.2841  0.0426
  190SLPC   C3321996   5.718  -0.544   7.213  0.3351 -0.0610 -0.1280
  190SLPC   H3X21997   5.638  -0.579   7.282  1.0926  0.0761  0.8358
  190SLPC   H3Y21998   5.678  -0.453   7.163  1.0192  1.0203  1.2235
  190SLPC   C3421999   5.833  -0.504   7.305 -0.4570 -0.2910 -0.2742
  190SLPC   H4X22000   5.913  -0.459   7.241 -0.7767 -0.2636 -0.6583
  190SLPC   H4Y22001   5.871  -0.602   7.342 -1.8015 -1.0750 -0.8928
  190SLPC   C3522002   5.789  -0.403   7.416  0.8778  0.3443  0.7306
  190SLPC   H5X22003   5.682  -0.377   7.428 -0.1724 -2.7332 -0.7751
  190SLPC   H5Y22004   5.851  -0.314   7.391 -0.1870  0.6482 -1.0230
  190SLPC   C3622005   5.832  -0.459   7.558  0.2150 -0.4415 -0.0176
  190SLPC   H6X22006   5.841  -0.379   7.635  2.1771  0.0140 -0.6786
  190SLPC   H6Y22007   5.935  -0.499   7.551  0.0524 -0.6449 -1.6671
  190SLPC   C3722008   5.734  -0.569   7.595 -0.2372 -0.3416 -1.0130
  190SLPC   H7X22009   5.713  -0.640   7.512  1.3329 -0.5054 -1.2950
  190SLPC   H7Y22010   5.638  -0.530   7.634  0.2737 -0.1573  0.0895
  190SLPC   C3822011   5.778  -0.664   7.707 -0.2276 -0.6511 -0.3370
  190SLPC   H8X22012   5.870  -0.723   7.686  0.8654  0.6571  0.5968
  190SLPC   H8Y22013   5.694  -0.734   7.725 -1.3608  0.6647 -0.3669
  190SLPC   C3922014   5.799  -0.588   7.841 -1.2499  0.1356  0.4368
  190SLPC   H9X22015   5.703  -0.534   7.854 -1.5850 -0.8864  2.7464
  190SLPC   H9Y22016   5.882  -0.513   7.836 -1.0093 -0.1519  0.0994
  190SLPC  C31022017   5.833  -0.678   7.964 -0.0595 -0.2793  0.0994
  190SLPC  H10X22018   5.932  -0.727   7.961  0.0559 -0.0255 -1.4677
  190SLPC  H10Y22019   5.761  -0.762   7.954  0.5731 -0.8387  0.2421
  190SLPC  C31122020   5.817  -0.605   8.099  0.2239 -0.1296 -0.0174
  190SLPC  H11X22021   5.725  -0.542   8.102  1.3675  1.6416 -0.8585
  190SLPC  H11Y22022   5.888  -0.521   8.111 -0.4369  0.2923  0.9979
  190SLPC  C31222023   5.838  -0.707   8.211 -0.9108 -0.0591  0.4486
  190SLPC  H12X22024   5.943  -0.739   8.223 -1.7036 -2.4144  1.6681
  190SLPC  H12Y22025   5.762  -0.788   8.199 -0.1793 -0.6563 -0.2468
  190SLPC  C31322026   5.804  -0.656   8.356  0.3392 -0.3780  0.4167
  190SLPC  H13X22027   5.694  -0.639   8.355 -0.0268 -2.0228 -2.8996
  190SLPC  H13Y22028   5.864  -0.569   8.391  0.4369 -0.4357  0.3909
  190SLPC  C31422029   5.820  -0.771   8.455  0.1848 -0.2096  0.1959
  190SLPC  H14X22030   5.930  -0.778   8.468  0.2562 -0.4984 -0.5094
  190SLPC  H14Y22031   5.791  -0.859   8.393 -1.2019 -0.3726  1.0385
  190SLPC  C31522032   5.749  -0.766   8.590  0.5570 -0.3054  0.4982
  190SLPC  H15X22033   5.760  -0.863   8.643 -0.2401 -0.0150  1.2191
  190SLPC  H15Y22034   5.644  -0.746   8.558  0.2835  0.0322  1.5733
  190SLPC  C31622035   5.793  -0.645   8.680 -0.4188 -0.5077  0.0202
  190SLPC  H16X22036   5.727  -0.653   8.769  0.7204 -0.1956  0.9245
  190SLPC  H16Y22037   5.766  -0.550   8.628  2.3246  0.1666 -0.3504
  190SLPC  C31722038   5.934  -0.632   8.739  0.1641 -0.0851 -0.2064
  190SLPC  H17X22039   5.953  -0.537   8.794  0.7813 -0.3080 -0.0254
  190SLPC  H17Y22040   6.003  -0.643   8.653 -0.5099 -2.3546 -0.5236
  190SLPC  C31822041   5.964  -0.736   8.847  0.2434  0.2561  0.0954
  190SLPC  H18X22042   5.883  -0.747   8.922 -0.9229  0.2955 -1.1368
  190SLPC  H18Y22043   6.062  -0.717   8.896 -0.9696  1.0602  2.3521
  190SLPC  H18Z22044   5.949  -0.833   8.795 -0.6267 -0.5625  1.7988
  191SLPC     N22045   2.976   0.898   5.850  0.1341 -0.9084 -0.1098
  191SLPC   C1322046   2.993   0.786   5.750  0.1153 -0.3768  0.1859
  191SLPC  H13A22047   2.978   0.818   5.648  1.6025 -1.3795 -0.3827
  191SLPC  H13B22048   3.095   0.753   5.759 -0.5816 -3.2046 -1.0067
  191SLPC  H13C22049   2.935   0.697   5.770  0.5091 -0.9003 -0.8849
  191SLPC   C1422050   3.065   1.005   5.790  0.4630 -0.2381  0.5826
  191SLPC  H14A22051   3.170   0.986   5.802  0.4168  0.2905  1.9998
  191SLPC  H14B22052   3.018   1.027   5.695 -1.7451 -0.9619  1.4290
  191SLPC  H14C22053   3.050   1.092   5.853  0.4128  0.4219 -0.3272
  191SLPC   C1522054   3.022   0.873   5.991 -0.1855  0.0008 -0.1556
  191SLPC  H15A22055   3.128   0.864   6.008 -0.5285 -0.3177  2.0500
  191SLPC  H15B22056   2.989   0.957   6.050 -1.0193  0.9718 -1.8994
  191SLPC  H15C22057   2.971   0.791   6.040 -0.7988 -0.6753 -1.8457
  191SLPC   C1222058   2.829   0.940   5.845 -1.4369  0.2851  0.0716
  191SLPC  H12A22059   2.772   0.852   5.869 -2.5858  0.5908 -1.3698
  191SLPC  H12B22060   2.810   0.966   5.742  2.0848 -0.7887 -0.9911
  191SLPC   C1122061   2.793   1.061   5.934  0.1120 -0.1552 -0.1923
  191SLPC  H11A22062   2.805   1.040   6.042 -4.1487 -0.8181  0.3064
  191SLPC  H11B22063   2.686   1.078   5.909  0.5255 -0.1118 -2.1137
  191SLPC     P22064   2.842   1.306   5.972 -0.0538 -0.1681  0.0858
  191SLPC   O1322065   2.934   1.415   5.933 -0.5577  0.1013 -0.0233
  191SLPC   O1422066   2.699   1.335   5.986  0.1108 -0.1550 -0.2986
  191SLPC   O1222067   2.861   1.179   5.884 -0.5081  0.5472 -0.4233
  191SLPC   O1122068   2.886   1.266   6.120  0.4105 -0.3025  0.8613
  191SLPC    C122069   2.837   1.329   6.239  0.3713 -0.5347  0.8415
  191SLPC    HA22070   2.890   1.427   6.239 -1.4971  0.6411 -2.3281
  191SLPC    HB22071   2.730   1.357   6.230  0.6687  0.2731 -0.6595
  191SLPC    C222072   2.862   1.251   6.366 -0.2299  0.2089  0.3076
  191SLPC    HS22073   2.777   1.180   6.371  0.1924 -0.3121  0.1777
  191SLPC   O2122074   2.867   1.335   6.477  0.1148  0.2929 -0.8683
  191SLPC   C2122075   2.773   1.319   6.569  0.0855 -0.5637  0.1809
  191SLPC   O2222076   2.666   1.263   6.556 -0.3716  0.0705  0.3387
  191SLPC   C2222077   2.816   1.390   6.696 -0.2396 -0.2881 -1.0051
  191SLPC   H2R22078   2.910   1.340   6.728 -0.8974 -0.8803  0.0433
  191SLPC   H2S22079   2.846   1.495   6.678  0.7752 -0.3931 -0.0146
  191SLPC    C322080   2.985   1.163   6.360 -0.1875 -0.4840 -0.8032
  191SLPC    HX22081   3.072   1.230   6.376  0.3135 -0.9961 -1.3206
  191SLPC    HY22082   2.984   1.111   6.262  0.3497  0.9651 -1.6032
  191SLPC   O3122083   2.984   1.069   6.466  0.4323 -0.3011 -0.2137
  191SLPC   C3122084   3.053   0.957   6.445 -0.0453 -0.1434 -0.7078
  191SLPC   O3222085   3.104   0.920   6.345 -0.4575 -0.3981  0.3237
  191SLPC   C3222086   3.064   0.883   6.573  0.6689 -0.4455  0.0455
  191SLPC   H2X22087   2.984   0.807   6.557  1.3520 -0.7827 -2.0334
  191SLPC   H2Y22088   3.041   0.952   6.657  3.0561  1.4911 -0.7661
  191SLPC   C2322089   2.709   1.375   6.805 -0.1627 -0.8174 -0.6728
  191SLPC   H3R22090   2.659   1.275   6.801  0.5558 -1.2057 -0.2289
  191SLPC   H3S22091   2.626   1.447   6.790  1.7757  1.2093 -2.2441
  191SLPC   C2422092   2.775   1.386   6.941  0.4424  1.5058 -0.1809
  191SLPC   H4R22093   2.873   1.334   6.942 -0.9099 -1.2391  0.9697
  191SLPC   H4S22094   2.708   1.318   6.999 -0.8720  2.2717 -0.7741
  191SLPC   C2522095   2.785   1.520   6.999 -0.3207 -0.2189 -0.5837
  191SLPC   H5R22096   2.682   1.559   7.014 -0.6510 -1.8461  2.0424
  191SLPC   H5S22097   2.824   1.592   6.924 -0.6846  0.5878 -0.0133
  191SLPC   C2622098   2.857   1.527   7.135 -0.3923 -0.1805  0.2421
  191SLPC   H6R22099   2.840   1.630   7.173  2.2457  0.9634 -1.3968
  191SLPC   H6S22100   2.967   1.515   7.123 -0.6282 -1.2575 -1.0287
  191SLPC   C2722101   2.815   1.408   7.227 -0.2996 -0.2141 -0.4752
  191SLPC   H7R22102   2.840   1.306   7.190  0.0324 -0.0856 -0.6023
  191SLPC   H7S22103   2.704   1.410   7.238 -0.3464 -0.0047 -0.9450
  191SLPC   C2822104   2.871   1.433   7.364  0.2540  0.2744 -0.2531
  191SLPC   H8R22105   2.826   1.529   7.398 -1.4687 -0.1500 -1.1965
  191SLPC   H8S22106   2.981   1.446   7.356  0.5099  0.0692  2.1302
  191SLPC   C2922107   2.842   1.319   7.461 -0.0254 -0.3704  0.2848
  191SLPC   H9R22108   2.879   1.223   7.422  2.6219  0.4241  0.6597
  191SLPC  C21022109   2.816   1.347   7.589  0.0812  0.2144 -0.1001
  191SLPC  H10R22110   2.795   1.260   7.654 -0.3733 -1.8142 -2.7568
  191SLPC  C21122111   2.792   1.485   7.655 -0.5000 -0.3264  0.5354
  191SLPC  H11R22112   2.701   1.534   7.616  0.7227  3.0617  1.6042
  191SLPC  H11S22113   2.877   1.547   7.619  0.4847  0.1239  3.3724
  191SLPC  C21222114   2.771   1.496   7.802 -0.2862  0.1791 -0.5348
  191SLPC  H12R22115   2.668   1.510   7.838 -0.0224  1.6025 -0.2686
  191SLPC  C21322116   2.868   1.511   7.892  0.2255  0.5858  0.3165
  191SLPC  H13R22117   2.841   1.518   7.999  0.0693 -1.2164  0.4265
  191SLPC  C21422118   3.011   1.514   7.861 -0.6073  0.5545  0.2934
  191SLPC  H14R22119   3.051   1.617   7.852 -1.4666  0.9533  0.9256
  191SLPC  H14S22120   3.022   1.464   7.763 -0.8656  0.0991  0.4935
  191SLPC  C21522121   3.083   1.431   7.967 -0.1331  0.0310 -0.2574
  191SLPC  H15R22122   3.186   1.413   7.928 -0.2648  2.4022 -1.9302
  191SLPC  H15S22123   3.037   1.331   7.974 -3.8840  1.6830  0.8794
  191SLPC  C21622124   3.083   1.483   8.111  0.3854  0.2287 -0.5927
  191SLPC  H16R22125   2.978   1.480   8.149  0.9031  0.7159  0.9425
  191SLPC  H16S22126   3.114   1.589   8.109 -0.4516  0.4752 -1.7577
  191SLPC  C21722127   3.173   1.401   8.208 -0.5082 -0.5131  0.5298
  191SLPC  H17R22128   3.276   1.417   8.169 -0.9765  4.3701  0.5931
  191SLPC  H17S22129   3.138   1.296   8.210 -2.4511  0.0525 -0.6692
  191SLPC  C21822130   3.163   1.441   8.358 -0.5681  0.2162  0.2150
  191SLPC  H18R22131   3.060   1.441   8.398 -0.7909 -3.2052 -0.1028
  191SLPC  H18S22132   3.211   1.540   8.377 -0.1675  0.0855 -0.1069
  191SLPC  H18T22133   3.220   1.368   8.420 -0.9816 -2.1636 -2.0326
  191SLPC   C3322134   3.202   0.821   6.604 -0.0992 -0.1196 -0.4245
  191SLPC   H3X22135   3.289   0.888   6.591 -0.2651  0.3034  0.5647
  191SLPC   H3Y22136   3.216   0.736   6.533  0.7002 -1.9054  1.7408
  191SLPC   C3422137   3.227   0.766   6.743  0.2122  0.3317  0.1424
  191SLPC   H4X22138   3.323   0.713   6.723  0.4533  0.7961  0.0561
  191SLPC   H4Y22139   3.134   0.707   6.752 -0.0127 -0.0856 -3.5863
  191SLPC   C3522140   3.248   0.876   6.849 -0.2630  0.5899 -0.0375
  191SLPC   H5X22141   3.169   0.953   6.838 -0.7669  0.2188  0.8550
  191SLPC   H5Y22142   3.349   0.920   6.835 -0.1075  0.8051  1.6124
  191SLPC   C3622143   3.237   0.822   6.998 -0.6399 -0.3698  0.6423
  191SLPC   H6X22144   3.156   0.747   7.012 -0.1082 -1.0851 -0.0411
  191SLPC   H6Y22145   3.217   0.914   7.057  1.8562  0.3602  0.4812
  191SLPC   C3722146   3.370   0.770   7.058 -0.2937  0.2542 -0.5020
  191SLPC   H7X22147   3.411   0.674   7.019  0.7478  1.1019 -1.5600
  191SLPC   H7Y22148   3.356   0.765   7.168  0.7373 -0.5788 -0.3947
  191SLPC   C3822149   3.486   0.868   7.033  0.5400  1.6132  0.0990
  191SLPC   H8X22150   3.445   0.971   7.040 -2.0644  0.6860 -0.7105
  191SLPC   H8Y22151   3.532   0.852   6.933  0.5667 -1.5506  0.5205
  191SLPC   C3922152   3.598   0.858   7.135  0.3960  0.0882 -0.0126
  191SLPC   H9X22153   3.670   0.933   7.095  0.4200  0.2054  0.2499
  191SLPC   H9Y22154   3.644   0.757   7.137 -0.0539 -0.1338  3.0752
  191SLPC  C31022155   3.569   0.895   7.278  0.2531  1.3347  0.1823
  191SLPC  H10X22156   3.469   0.943   7.286 -1.5662 -1.7149 -2.0384
  191SLPC  H10Y22157   3.655   0.962   7.300  1.2754  0.2907 -0.5315
  191SLPC  C31122158   3.599   0.782   7.384  0.6872  0.0305  0.7292
  191SLPC  H11X22159   3.706   0.756   7.375  0.8478  1.2895 -2.0582
  191SLPC  H11Y22160   3.538   0.696   7.348  1.2091  0.4842 -1.3685
  191SLPC  C31222161   3.563   0.806   7.529  0.2374 -0.6027 -0.3721
  191SLPC  H12X22162   3.463   0.854   7.539  0.1154 -1.0913  0.8310
  191SLPC  H12Y22163   3.639   0.869   7.579  2.0048 -2.9921  0.1097
  191SLPC  C31322164   3.553   0.682   7.620 -0.3651 -0.6575  0.3819
  191SLPC  H13X22165   3.650   0.658   7.669  0.4976 -0.3984 -1.1160
  191SLPC  H13Y22166   3.512   0.603   7.553  2.6456 -1.3627 -0.8097
  191SLPC  C31422167   3.468   0.719   7.742 -0.0552 -0.1474  0.2941
  191SLPC  H14X22168   3.361   0.736   7.717  0.0244 -0.2201 -0.1086
  191SLPC  H14Y22169   3.500   0.820   7.775  0.5055 -0.4391  0.6624
  191SLPC  C31522170   3.461   0.627   7.866  0.2051  0.3144 -0.0539
  191SLPC  H15X22171   3.556   0.629   7.925 -0.2442 -0.0960  0.6932
  191SLPC  H15Y22172   3.433   0.522   7.841  0.8154  0.2752 -0.6113
  191SLPC  C31622173   3.348   0.677   7.962 -0.0473 -0.3440  0.6039
  191SLPC  H16X22174   3.260   0.715   7.905  0.4375 -0.1987 -0.0684
  191SLPC  H16Y22175   3.395   0.767   8.008  0.6913 -0.1301 -0.5252
  191SLPC  C31722176   3.310   0.569   8.060  0.0601 -0.1276  0.4826
  191SLPC  H17X22177   3.277   0.477   8.006 -1.6497  0.6005  0.1993
  191SLPC  H17Y22178   3.231   0.595   8.133  1.2646 -0.3876  1.9118
  191SLPC  C31822179   3.432   0.517   8.146  0.1317  0.2667  0.0131
  191SLPC  H18X22180   3.490   0.434   8.099  3.6560  3.2352 -1.2940
  191SLPC  H18Y22181   3.395   0.478   8.243 -0.1973  0.3061 -0.0955
  191SLPC  H18Z22182   3.504   0.599   8.165 -0.4144  0.9000 -0.5802
  192SLPC     N22183   6.792   1.125   6.187 -0.0823  0.0818 -0.3488
  192SLPC   C1322184   6.753   1.014   6.097  0.4704 -0.3775  0.1449
  192SLPC  H13A22185   6.834   0.988   6.031  1.2640  0.0384  0.9475
  192SLPC  H13B22186   6.719   0.937   6.165 -0.3266  0.8309  1.1550
  192SLPC  H13C22187   6.673   1.041   6.030  0.9564 -1.5402 -0.9529
  192SLPC   C1422188   6.670   1.196   6.233  0.3043  1.0749  0.2611
  192SLPC  H14A22189   6.600   1.126   6.276 -0.0941  1.5457  0.4045
  192SLPC  H14B22190   6.713   1.260   6.309  0.3266  0.3307  0.8764
  192SLPC  H14C22191   6.627   1.242   6.145  0.5659  0.8499  0.0155
  192SLPC   C1522192   6.879   1.219   6.099 -0.0431  0.2058 -0.6145
  192SLPC  H15A22193   6.896   1.300   6.169 -0.5145  2.2493 -2.7307
  192SLPC  H15B22194   6.966   1.163   6.070 -0.7230 -1.4136  0.2867
  192SLPC  H15C22195   6.834   1.262   6.011 -0.7145  2.2839  0.6704
  192SLPC   C1222196   6.874   1.073   6.303 -0.1497  0.7467  0.2253
  192SLPC  H12A22197   6.906   1.161   6.357  0.2088  0.2674  0.8156
  192SLPC  H12B22198   6.958   1.018   6.264  0.8495  0.9413  1.9837
  192SLPC   C1122199   6.822   0.970   6.401  0.4706  1.0331 -0.5395
  192SLPC  H11A22200   6.893   0.955   6.485  0.0293  1.5908 -0.0603
  192SLPC  H11B22201   6.813   0.871   6.353  1.3783 -0.4850  2.2020
  192SLPC     P22202   6.574   0.921   6.460 -0.4095  0.2194 -0.0657
  192SLPC   O1322203   6.489   0.970   6.345  0.1772  0.6024 -0.2665
  192SLPC   O1422204   6.618   0.780   6.463 -0.2133  0.2034  0.0896
  192SLPC   O1222205   6.704   1.016   6.468 -0.1948 -0.2417 -0.1784
  192SLPC   O1122206   6.492   0.954   6.593  0.0604 -0.0567  0.2346
  192SLPC    C122207   6.568   0.979   6.711  1.1590  0.7058 -0.5090
  192SLPC    HA22208   6.632   0.891   6.735  0.3055  0.1826 -0.0976
  192SLPC    HB22209   6.633   1.069   6.706  0.2896  1.2937 -1.5543
  192SLPC    C222210   6.464   0.995   6.825 -0.1601  0.0318 -0.3060
  192SLPC    HS22211   6.393   1.075   6.794 -1.3718 -0.4234  1.1587
  192SLPC   O2122212   6.538   1.027   6.952  0.0368 -0.3879 -0.2074
  192SLPC   C2122213   6.517   1.149   6.997  0.0963  0.1496 -1.1211
  192SLPC   O2222214   6.445   1.238   6.952 -0.6533  0.2639  0.2706
  192SLPC   C2222215   6.590   1.159   7.132 -0.7390 -0.0252  0.1087
  192SLPC   H2R22216   6.593   1.064   7.191 -3.7399 -1.2846 -1.5341
  192SLPC   H2S22217   6.693   1.185   7.099 -0.2588 -1.0911  0.6962
  192SLPC    C322218   6.390   0.857   6.848 -0.1858  0.7882  0.1934
  192SLPC    HX22219   6.474   0.795   6.888 -0.4601  0.4433  0.2479
  192SLPC    HY22220   6.365   0.810   6.751  1.2754 -2.1467  1.0969
  192SLPC   O3122221   6.277   0.870   6.941  0.1322 -0.0830 -0.3673
  192SLPC   C3122222   6.230   0.759   6.983  0.2361  0.0995  0.6544
  192SLPC   O3222223   6.283   0.650   6.976 -0.3578  0.5690 -0.2181
  192SLPC   C3222224   6.091   0.781   7.052  0.8322  0.3645  0.0113
  192SLPC   H2X22225   6.015   0.747   6.979  0.7697 -1.4287  0.8565
  192SLPC   H2Y22226   6.070   0.889   7.065  1.1194  0.8178 -2.7118
  192SLPC   C2322227   6.539   1.273   7.219 -0.0755 -0.0620  0.1077
  192SLPC   H3R22228   6.437   1.244   7.254  0.0969 -1.4671 -0.4875
  192SLPC   H3S22229   6.525   1.365   7.158 -0.9977  0.2921  0.8171
  192SLPC   C2422230   6.635   1.307   7.340 -0.9322 -0.6215  0.6977
  192SLPC   H4R22231   6.729   1.342   7.293 -1.8613 -0.8465 -1.4329
  192SLPC   H4S22232   6.658   1.213   7.395 -0.3580 -1.5305 -1.0226
  192SLPC   C2522233   6.571   1.398   7.446 -0.5354  0.3943  0.4379
  192SLPC   H5R22234   6.482   1.342   7.482  0.4184 -1.1655  0.4501
  192SLPC   H5S22235   6.524   1.484   7.394 -2.4464 -1.2923 -0.7537
  192SLPC   C2622236   6.672   1.439   7.551  0.4429 -0.3778  0.2129
  192SLPC   H6R22237   6.656   1.542   7.591 -0.5122  1.0908 -3.5050
  192SLPC   H6S22238   6.772   1.430   7.505  0.4780 -2.7330  0.6438
  192SLPC   C2722239   6.682   1.347   7.674  0.1508 -0.2530  0.4074
  192SLPC   H7R22240   6.699   1.241   7.646  2.1640 -0.2740  1.5548
  192SLPC   H7S22241   6.582   1.359   7.722  0.2428 -0.2762  0.6036
  192SLPC   C2822242   6.785   1.384   7.775  0.5695  0.7357 -0.5089
  192SLPC   H8R22243   6.757   1.486   7.810  3.0455  0.7547  1.7320
  192SLPC   H8S22244   6.883   1.391   7.725  0.6985 -1.4634 -0.6376
  192SLPC   C2922245   6.782   1.287   7.890  0.1578 -0.2784  0.8944
  192SLPC   H9R22246   6.713   1.203   7.872 -0.1848  0.6478 -3.2563
  192SLPC  C21022247   6.857   1.288   8.003  1.0372 -0.1101  0.1722
  192SLPC  H10R22248   6.854   1.197   8.065 -0.6419 -0.1511  0.0900
  192SLPC  C21122249   6.952   1.395   8.039 -0.0853  0.1907  0.3634
  192SLPC  H11R22250   6.905   1.494   8.018  0.0662  0.0685 -0.5901
  192SLPC  H11S22251   7.037   1.386   7.968  0.4158  0.4906  0.9156
  192SLPC  C21222252   6.996   1.397   8.183 -0.8081  0.4127  0.1152
  192SLPC  H12R22253   7.064   1.315   8.210 -1.5808 -0.4361 -0.4298
  192SLPC  C21322254   6.959   1.481   8.284  0.3463 -0.8196 -0.7705
  192SLPC  H13R22255   6.998   1.468   8.386 -3.1720 -0.2292  0.7935
  192SLPC  C21422256   6.862   1.598   8.278 -0.3375  0.5332 -0.2142
  192SLPC  H14R22257   6.775   1.575   8.213 -0.5611 -0.2452  0.3433
  192SLPC  H14S22258   6.912   1.691   8.242  0.7809  0.6146  1.4572
  192SLPC  C21522259   6.808   1.619   8.420  0.1785 -0.3529  0.5807
  192SLPC  H15R22260   6.886   1.641   8.496  0.6967 -0.3346  0.0493
  192SLPC  H15S22261   6.753   1.534   8.467 -0.4181 -0.4037 -0.2061
  192SLPC  C21622262   6.705   1.737   8.426  0.0714  0.1396  0.0933
  192SLPC  H16R22263   6.621   1.714   8.357 -0.7839  2.9758  0.0384
  192SLPC  H16S22264   6.746   1.834   8.391  1.1515 -0.3584 -0.0726
  192SLPC  C21722265   6.642   1.754   8.566 -0.3906  0.5607 -0.2622
  192SLPC  H17R22266   6.578   1.841   8.541  0.0093  0.3134 -2.3504
  192SLPC  H17S22267   6.572   1.669   8.582 -0.7309  0.7159 -0.8858
  192SLPC  C21822268   6.733   1.801   8.683 -0.4230  0.5615 -1.1309
  192SLPC  H18R22269   6.806   1.720   8.709  0.0054  1.9179  2.4540
  192SLPC  H18S22270   6.676   1.827   8.775 -0.4381  0.7476 -1.1935
  192SLPC  H18T22271   6.791   1.888   8.645 -1.1098  1.9238  0.8188
  192SLPC   C3322272   6.060   0.709   7.187 -0.4213  0.6377  0.2081
  192SLPC   H3X22273   6.092   0.603   7.183  2.0455  1.3310  0.2998
  192SLPC   H3Y22274   5.950   0.711   7.205 -1.0678 -4.8557 -1.2328
  192SLPC   C3422275   6.130   0.775   7.306 -0.2583 -0.1370 -0.2760
  192SLPC   H4X22276   6.124   0.885   7.295  1.1503 -0.0240 -0.1174
  192SLPC   H4Y22277   6.237   0.745   7.292  0.1366  1.8772 -1.9584
  192SLPC   C3522278   6.068   0.726   7.441 -0.2363 -0.2913  0.0197
  192SLPC   H5X22279   6.059   0.616   7.437 -2.7090 -0.0864 -2.4188
  192SLPC   H5Y22280   5.966   0.767   7.453 -0.3981 -0.8879  0.7845
  192SLPC   C3622281   6.138   0.768   7.577 -0.3366  0.7847 -0.7420
  192SLPC   H6X22282   6.123   0.878   7.579 -1.0806  0.6826  0.9545
  192SLPC   H6Y22283   6.245   0.738   7.570 -0.6700 -0.2412 -1.8409
  192SLPC   C3722284   6.066   0.706   7.700  0.5404  0.3261 -0.1104
  192SLPC   H7X22285   6.022   0.608   7.668  1.7514 -0.8023  1.5161
  192SLPC   H7Y22286   5.981   0.763   7.744  0.4475 -0.8020  1.2552
  192SLPC   C3822287   6.154   0.659   7.806  0.2753 -0.3771 -0.1981
  192SLPC   H8X22288   6.201   0.746   7.857  0.2390 -0.6937  0.3916
  192SLPC   H8Y22289   6.237   0.597   7.766  1.9475  1.9172 -0.4186
  192SLPC   C3922290   6.087   0.565   7.909 -0.5214 -0.0985  0.3313
  192SLPC   H9X22291   6.162   0.553   7.990 -1.4950 -0.7142  1.1651
  192SLPC   H9Y22292   6.074   0.459   7.878  1.3931 -0.5801  1.0634
  192SLPC  C31022293   5.947   0.624   7.961  0.4796  0.7778  0.4067
  192SLPC  H10X22294   5.908   0.551   8.034 -1.5407  1.0614 -0.3232
  192SLPC  H10Y22295   5.885   0.614   7.869  2.5792  0.6448 -1.0723
  192SLPC  C31122296   5.957   0.762   8.019 -0.3061  0.1601 -0.6604
  192SLPC  H11X22297   5.858   0.787   8.064 -0.3754  0.5325 -1.0193
  192SLPC  H11Y22298   5.979   0.831   7.935 -0.5932 -1.2685 -1.9633
  192SLPC  C31222299   6.063   0.773   8.123 -0.7633 -0.1233 -0.0008
  192SLPC  H12X22300   6.165   0.784   8.079 -1.0422  1.6812 -0.2836
  192SLPC  H12Y22301   6.073   0.686   8.191 -0.6427  0.1564  0.3365
  192SLPC  C31322302   6.048   0.905   8.200 -0.0256 -0.4865 -0.7287
  192SLPC  H13X22303   6.046   0.991   8.130 -1.0310  1.3354  1.4146
  192SLPC  H13Y22304   6.134   0.913   8.269 -2.3559 -0.7586  2.4727
  192SLPC  C31422305   5.924   0.914   8.289 -0.2643 -1.2348 -0.1180
  192SLPC  H14X22306   5.827   0.908   8.236 -1.3674  0.7922  1.5084
  192SLPC  H14Y22307   5.915   1.011   8.342 -2.2921 -0.8003 -1.1603
  192SLPC  C31522308   5.926   0.813   8.407  0.1907  0.8625 -0.6538
  192SLPC  H15X22309   6.013   0.828   8.475  0.2994 -0.2977 -0.5229
  192SLPC  H15Y22310   5.947   0.713   8.364 -1.5223 -0.3018  1.0609
  192SLPC  C31622311   5.798   0.824   8.499  0.2265 -0.6513 -0.4386
  192SLPC  H16X22312   5.814   0.765   8.592  2.6783  0.8748  0.1991
  192SLPC  H16Y22313   5.714   0.780   8.441 -1.3137  1.7020 -0.1149
  192SLPC  C31722314   5.770   0.969   8.547  0.1150 -0.3974 -0.1690
  192SLPC  H17X22315   5.727   1.026   8.462 -0.9783 -1.2830 -0.2303
  192SLPC  H17Y22316   5.867   1.019   8.571 -0.4336  0.4441  0.3558
  192SLPC  C31822317   5.662   0.996   8.655 -0.1730  0.0307  0.2800
  192SLPC  H18X22318   5.652   1.101   8.691  0.5045  0.6850 -1.3362
  192SLPC  H18Y22319   5.670   0.926   8.740  1.0385  0.2149  0.3431
  192SLPC  H18Z22320   5.558   0.972   8.624 -0.4400 -1.3602  2.1229
  193SOD    SOD22321   2.856   3.700  14.729 -0.2108 -0.4728 -0.2907
  194SOD    SOD22322   4.670   4.482  14.705 -0.5742 -0.3131  0.4877
  195SOD    SOD22323   3.207   6.603   6.188 -0.2719 -0.0064 -0.5437
  196SOD    SOD22324   0.496   6.285   2.638  0.3497  0.0978  0.5810
  197SOD    SOD22325   5.802   2.014   0.753 -0.0398  0.3853  0.2848
  198SOD    SOD22326   6.098   3.466  11.202  0.4360 -0.0687 -0.2484
  199SOD    SOD22327   2.147   4.169  16.620 -0.4028  0.7799 -0.0060
  200SOD    SOD22328   3.309   4.859  11.307  0.1764  0.2218  0.1756
  201SOD    SOD22329   3.522   6.644   4.383  0.0521  0.0578  0.0270
  202SOD    SOD22330   2.314   4.547  10.924  0.0213 -0.0758 -0.4648
  203SOD    SOD22331   1.053   3.710   2.661  0.1480 -0.2123  0.0978
  204SOD    SOD22332   0.186   4.790   5.782  0.1371 -0.1051  0.2857
  205SOD    SOD22333   3.277   1.541   2.137 -0.3706 -0.0466 -0.3065
  206SOD    SOD22334   1.187   3.202   6.093 -0.0553  0.7609 -0.1504
  207SOD    SOD22335   3.694   5.971   2.541 -0.0633 -0.0834 -0.0266
  208SOD    SOD22336   1.299   1.681   5.794 -0.4450  0.1575 -0.0234
  209SOD    SOD22337   4.904   5.097   3.535  0.2826 -0.1132 -0.5105
  210SOD    SOD22338   5.708   5.258  13.992 -0.6286 -0.3538  0.0576
  211SOD    SOD22339   1.191   0.863  15.927 -0.0661  0.1052 -0.0138
  212SOD    SOD22340   3.191   5.426  13.113  0.0303  0.0698  0.1318
  213SOD    SOD22341   5.192   6.664  14.095 -0.3003 -0.0406  0.2563
  214SOD    SOD22342   5.733   6.725   0.696  0.7280  0.5406 -0.2034
  215SOD    SOD22343   3.223   2.662  16.027  0.1987  0.2880  0.2642
  216SOD    SOD22344   6.237   5.853  17.051  0.1189 -0.3222  0.2094
  217SOD    SOD22345   0.531   0.968   6.623 -0.5616  0.0377 -0.1444
  218SOD    SOD22346   5.835   3.980   2.528  0.4171  0.1127 -0.3391
  219SOD    SOD22347   3.500   2.911   5.788 -0.0996  0.1250 -0.8709
  220SOD    SOD22348   6.100   6.023  11.372 -0.4734  0.3335  0.6118
  221SOD    SOD22349   1.820   5.179   0.579  0.4219 -0.0370  0.2930
  222SOD    SOD22350   0.022   6.678   2.843  0.0695  0.4477 -0.4811
  223SOD    SOD22351   2.815   2.863  14.720 -0.0566  0.0335 -0.3263
  224SOD    SOD22352   1.200   1.155   1.123  0.2557 -0.5432  0.2742
  225SOD    SOD22353   4.486   3.864  11.029 -0.2245  0.0134 -0.2720
  226SOD    SOD22354   0.759   2.696  15.771 -0.1471  0.0144  0.0741
  227SOD    SOD22355   5.484   2.380   5.825  0.2093  0.6543  0.0191
  228SOD    SOD22356   5.503   1.563   2.569 -0.0487 -0.0412  0.2660
  229SOD    SOD22357   4.984   2.032  11.440  0.0896  0.2094  0.1946
  230SOD    SOD22358   1.593   6.424   1.439  0.6991  0.2252 -0.1743
  231SOD    SOD22359   2.868   2.866  16.351  0.1841  0.2340  0.0041
  232SOD    SOD22360   4.024   6.327  14.438  0.0214  0.3497 -0.1140
  233SOD    SOD22361   0.207   0.274  16.145  0.2049 -0.1329 -0.1240
  234SOD    SOD22362   3.340   2.784  13.643 -0.3680  0.0529  0.4389
  235SOD    SOD22363   6.738   2.868   6.741  0.4546 -0.0663 -0.1791
  236SOD    SOD22364   6.372   0.722  11.683 -0.0734 -0.4536 -0.2021
  237SOD    SOD22365   1.871   1.675  10.539 -0.2086 -0.1449  0.0672
  238SOD    SOD22366   4.117   3.227   0.081  0.3627  0.9079 -0.4114
  239SOD    SOD22367   1.393   2.917  11.145 -0.5130  0.3523 -0.4962
  240SOD    SOD22368   3.904   3.579  15.302  0.7158 -0.0134  0.2409
  241SOD    SOD22369   3.650   2.654  11.255  0.1130  0.2079  0.3961
  242SOD    SOD22370   4.641   2.577  15.664 -0.1750  0.2659 -0.4236
  243SOD    SOD22371   5.622   5.963  16.089  0.2296 -0.1205  0.0203
  244SOD    SOD22372   2.357   3.168   3.451  0.3041 -0.6181  0.1886
  245SOD    SOD22373   5.977   5.675   2.950  0.5016  0.7360 -0.1146
  246SOD    SOD22374   6.532   6.343  15.264  0.4833 -0.0930 -0.1436
  247SOD    SOD22375   1.468   3.018   5.575 -0.4916 -0.4247  0.2224
  248SOD    SOD22376   0.798   0.246  14.767 -0.3059  0.0330  0.0714
  249SOD    SOD22377   6.169   2.572  11.199 -0.0477  0.4118 -0.1390
  250SOD    SOD22378   6.622   1.943   5.795  0.2938  0.3855  0.3491
  251SOD    SOD22379   1.730   5.660  12.465  0.1158  0.1479  0.5406
  252SOD    SOD22380   3.470   2.494   3.901 -0.0668 -0.1236  0.1435
  253SOD    SOD22381   0.226   1.048   2.095 -0.1665 -0.2742  0.0665
  254SOD    SOD22382   1.759   4.189   5.684 -0.0592 -0.1994  0.1229
  255SOD    SOD22383   1.680   3.592  11.555  0.2853  0.5177  0.2072
  256SOD    SOD22384   1.714   5.225   5.017 -0.4838 -0.2808 -0.1172
  257SOD    SOD22385   3.336   0.120   5.724 -0.2672  0.1392  0.1025
  258SOD    SOD22386   0.477   4.592  13.716 -0.4516  0.0669 -0.4032
  259SOD    SOD22387   0.703   2.531   0.850  0.1428  0.2686 -0.6289
  260SOD    SOD22388   4.204   5.305   1.531 -0.2307 -0.4104 -0.4367
  261SOD    SOD22389   5.129   3.417   0.380  0.0456 -0.3089 -0.7015
  262SOD    SOD22390   4.253   5.601  16.118  0.1169  0.1989  0.1840
  263SOD    SOD22391   0.972   3.202   4.248 -0.4158 -0.1306  0.1514
  264SOD    SOD22392   3.785   0.027  17.186 -0.2335 -0.3319  0.2619
  265SOD    SOD22393   6.634   2.930  11.669  0.1861 -0.0921  0.1082
  266CLA    CLA22394   5.284   3.376  17.284  0.2838  0.1615 -0.0073
  267CLA    CLA22395   0.517   5.118   1.417  0.0799  0.0323 -0.1854
  268CLA    CLA22396   6.822   5.830  11.915  0.0041  0.2741 -0.4354
  269CLA    CLA22397   2.224   2.450  14.921 -0.5934  0.1363  0.1474
  270CLA    CLA22398   5.846   6.622   2.688  0.0313  0.4355 -0.4372
  271CLA    CLA22399   3.147   3.324  15.242  0.0930 -0.5231  0.3750
  272CLA    CLA22400   1.743   2.073   1.610  0.3355  0.1932 -0.3074
  273CLA    CLA22401   1.588   1.714   2.701 -0.1659 -0.0104 -0.0296
  274CLA    CLA22402   1.487   3.906   3.241 -0.7153  0.3800  0.3577
  275CLA    CLA22403   6.329   5.054  14.816 -0.0450 -0.1695  0.0327
  276CLA    CLA22404   1.249   3.805   0.793 -0.3134  0.2206  0.6647
  277CLA    CLA22405   0.970   1.760  13.256 -0.0263 -0.2477 -0.0427
  278CLA    CLA22406   2.931   2.941  12.795  0.0631 -0.0380 -0.0568
  279CLA    CLA22407   2.541   3.700  16.019  0.3379 -0.1264  0.1547
  280CLA    CLA22408   6.655   1.236   2.390  0.4073  0.0744  0.5149
  281CLA    CLA22409   6.148   5.403  13.788 -0.1245  0.0622  0.4014
  282CLA    CLA22410   3.540   5.622  15.567 -0.5361 -0.2201 -0.1446
  283CLA    CLA22411   0.772   3.480   4.887 -0.5109  0.1129  0.1140
  284CLA    CLA22412   1.271   1.115   3.854 -0.1695 -0.0579  0.2657
  285CLA    CLA22413   0.922   0.811  16.208 -0.1771 -0.0624 -0.0986
  286CLA    CLA22414   1.615   5.620   3.693 -0.0272  0.1365  0.2319
  287CLA    CLA22415   4.432   6.084   1.466  0.0719  0.0989  0.2080
  288CLA    CLA22416   0.818   0.448   1.017  0.2152 -0.5352 -0.2242
  289CLA    CLA22417   0.916   5.666   4.247  0.0104  0.3663 -0.1428
  290CLA    CLA22418   4.027   5.503  14.311 -0.2638  0.1777 -0.6321
  291CLA    CLA22419   2.575   4.231  14.537 -0.0744 -0.2300 -0.2063
  292CLA    CLA22420   4.604   1.035  13.322 -0.0691 -0.2562  0.1080
  293CLA    CLA22421   0.497   6.088  16.574 -0.0113  0.0249  0.2176
  294CLA    CLA22422   0.763   3.623   5.552 -0.1885 -0.1094 -0.0960
  295CLA    CLA22423   0.439   5.448   2.297 -0.0389 -0.0521  0.0070
  296CLA    CLA22424   4.192   2.694  15.610 -0.2099  0.4271  0.1990
  297CLA    CLA22425   1.399   0.917  12.175 -0.0898  0.3586 -0.0308
  298CLA    CLA22426   3.543   4.110  15.791 -0.5736 -0.0033 -0.2438
  299CLA    CLA22427   1.433   0.589  14.767  0.0984 -0.0318  0.0577
  300CLA    CLA22428   1.295   1.557  11.141 -0.0918 -0.2467  0.2861
  301CLA    CLA22429   1.747   2.158  12.800  0.2333 -0.3978  0.2123
  302CLA    CLA22430   3.580   3.633   0.108 -0.2211 -0.1973 -0.1539
  303CLA    CLA22431   2.372   5.388   4.873  0.3377 -0.1912 -0.1053
  304CLA    CLA22432   6.310   5.593  15.959 -0.2047 -0.0736  0.3642
  305CLA    CLA22433   5.198   1.865  16.161 -0.2088 -0.2642 -0.4972
  306CLA    CLA22434   1.343   2.527   5.728 -0.1870 -0.0725  0.0452
  307CLA    CLA22435   2.992   2.933   3.812  0.0852 -0.7224 -0.0311
  308CLA    CLA22436   4.780   0.319   0.598  0.0472 -0.2800 -0.4801
  309CLA    CLA22437   4.711   4.753   2.097 -0.6253 -0.1230  0.0978
  310CLA    CLA22438   1.267   5.220  12.630 -0.0922  0.0646 -0.3116
  311CLA    CLA22439   2.229   5.877  17.040  0.0504 -0.2482  0.0601
  312CLA    CLA22440   3.351   2.471   1.513  0.0692  0.2123 -0.4189
  313CLA    CLA22441   4.291   3.107   2.476 -0.2159 -0.1898  0.4001
  314CLA    CLA22442   4.643   3.358   0.911  0.1862  0.0439  0.1270
  315CLA    CLA22443   1.076   4.192  13.329  0.1719  0.5906 -0.0363
  316CLA    CLA22444   0.272   6.391  16.198  0.0182  0.2763 -0.0162
  317CLA    CLA22445   6.612   3.961   1.654  0.2586  0.2031 -0.0157
  318CLA    CLA22446   0.643   2.744   0.249  0.1203 -0.0587  0.3470
  319TIP3   OH222447   1.404   5.401   3.587 -0.0066  0.0800 -0.1902
  319TIP3    H122448   1.471   5.463   3.615  0.5173 -0.3713 -0.4227
  319TIP3    H222449   1.375   5.359   3.669 -1.6156  1.8332  0.1914
  320TIP3   OH222450   5.986   4.164  11.389 -0.2981 -0.6181  0.7617
  320TIP3    H122451   6.022   4.192  11.474  0.1317  1.1572  0.0424
  320TIP3    H222452   5.893   4.153  11.406 -0.4653  1.0876  1.1906
  321TIP3   OH222453   2.649   2.946  16.367 -0.4440 -0.5056 -0.2865
  321TIP3    H122454   2.578   2.905  16.417 -2.4250  1.9291 -0.9010
  321TIP3    H222455   2.608   2.975  16.286  1.8863 -1.1730 -1.8017
  322TIP3   OH222456   6.429   1.547   0.358 -0.2850  0.2237 -0.4370
  322TIP3    H122457   6.430   1.526   0.265 -0.0446 -0.9369 -0.1858
  322TIP3    H222458   6.519   1.576   0.377  0.1312 -1.1321 -0.2366
  323TIP3   OH222459   0.137   6.461   2.873 -0.0497  0.3979 -0.2918
  323TIP3    H122460   0.197   6.430   2.940  1.1464  0.6732 -1.2035
  323TIP3    H222461   0.063   6.400   2.878 -0.3713  0.9002  1.7833
  324TIP3   OH222462   1.752   1.461  15.548  0.3023  0.2119  0.0265
  324TIP3    H122463   1.698   1.518  15.494 -0.6684 -1.6196 -1.0321
  324TIP3    H222464   1.756   1.379  15.500  1.7305 -0.6074  1.4438
  325TIP3   OH222465   3.320   1.749  10.641  0.0494  0.4568 -0.8671
  325TIP3    H122466   3.293   1.827  10.593 -0.4675  0.6098 -0.3331
  325TIP3    H222467   3.374   1.782  10.713 -1.5934  0.5028  0.4044
  326TIP3   OH222468   2.160   0.952   0.636  0.2495  0.5822  0.8079
  326TIP3    H122469   2.088   0.987   0.582  0.9208 -0.2692 -0.7091
  326TIP3    H222470   2.138   0.860   0.647  0.7305  0.4912  0.9825
  327TIP3   OH222471   1.602   4.700   6.162  0.0827  0.0395  0.2357
  327TIP3    H122472   1.645   4.764   6.219  2.3760 -0.4294 -0.8721
  327TIP3    H222473   1.530   4.666   6.215  0.4566  1.5763  1.8361
  328TIP3   OH222474   5.401   4.093   3.734  0.6270 -0.1088 -0.3893
  328TIP3    H122475   5.441   4.165   3.685  0.9930 -0.5219 -0.7099
  328TIP3    H222476   5.309   4.117   3.743  0.3926 -0.3649 -1.9099
  329TIP3   OH222477   1.885   2.039  15.905  0.5424 -0.2844 -0.2698
  329TIP3    H122478   1.921   2.087  15.830 -1.3935  3.3558  0.8878
  329TIP3    H222479   1.799   2.010  15.875  0.8650 -1.2390 -0.2889
  330TIP3   OH222480   3.009   6.689  13.055  0.1385 -0.5031  0.3746
  330TIP3    H122481   3.104   6.696  13.063  0.1794 -0.5078 -0.1058
  330TIP3    H222482   2.979   6.676  13.145  0.4398  1.2328  0.7689
  331TIP3   OH222483   5.998   5.660  16.420 -0.1473  0.5526 -0.2852
  331TIP3    H122484   6.037   5.585  16.375  0.1415 -0.1060  1.0066
  331TIP3    H222485   6.052   5.735  16.394 -1.6587  0.7464 -3.2238
  332TIP3   OH222486   0.416   0.416  11.122  0.0955  0.0684 -0.2960
  332TIP3    H122487   0.425   0.506  11.092 -2.7971  0.9153  1.0428
  332TIP3    H222488   0.356   0.375  11.059 -0.3760 -0.2256  0.3266
  333TIP3   OH222489   4.527   4.443   1.407  0.4157 -0.2051  0.2797
  333TIP3    H122490   4.442   4.481   1.384  0.4866  0.6673  1.3220
  333TIP3    H222491   4.525   4.355   1.371 -0.9286 -0.1924  0.2678
  334TIP3   OH222492   2.386   3.620   2.583  0.0720 -0.1405  0.0461
  334TIP3    H122493   2.342   3.697   2.620  2.4905  1.2410  0.2652
  334TIP3    H222494   2.462   3.607   2.639  0.7159 -1.5529 -1.0972
  335TIP3   OH222495   1.002   0.973  13.989 -0.2862 -0.2764 -0.1392
  335TIP3    H122496   0.956   0.925  14.057 -0.0527 -2.3152 -1.3399
  335TIP3    H222497   1.078   0.919  13.968  0.9959  1.4952 -0.3419
  336TIP3   OH222498   0.995   3.542  11.783  0.2644 -0.7242 -0.3429
  336TIP3    H122499   1.005   3.599  11.706 -1.5276 -0.2048 -0.2389
  336TIP3    H222500   0.930   3.477  11.756 -0.9776 -0.0698  0.9567
  337TIP3   OH222501   3.146   5.198   5.127 -0.2310  0.4509 -0.0510
  337TIP3    H122502   3.158   5.151   5.044  2.6981  0.1011  0.4586
  337TIP3    H222503   3.116   5.285   5.101 -1.3428 -0.2786 -1.3199
  338TIP3   OH222504   4.870   6.758  12.837 -0.2100 -1.1734 -0.0874
  338TIP3    H122505   4.798   6.768  12.900  0.4445 -1.4893  0.7285
  338TIP3    H222506   4.909   6.674  12.859  0.0340 -1.2872 -0.9296
  339TIP3   OH222507   1.195   3.827  15.895 -0.0481  0.2142 -0.3832
  339TIP3    H122508   1.118   3.875  15.866  0.7003  2.0930  0.6007
  339TIP3    H222509   1.223   3.777  15.818 -1.1511  0.9725 -1.2984
  340TIP3   OH222510   3.185   3.302   6.257 -0.1528 -0.0619  0.2347
  340TIP3    H122511   3.221   3.358   6.325 -0.5013 -0.1635  0.5037
  340TIP3    H222512   3.127   3.242   6.303 -0.2701 -0.2343 -0.1322
  341TIP3   OH222513   2.562   1.819   5.314 -0.4558 -0.1875  0.2053
  341TIP3    H122514   2.549   1.790   5.224 -2.0652  2.5437 -0.5689
  341TIP3    H222515   2.479   1.797   5.358 -1.1434  1.7186 -0.0305
  342TIP3   OH222516   5.683   3.021   0.464 -0.1134  0.2388 -0.2364
  342TIP3    H122517   5.712   3.105   0.499  2.4242 -0.6961  0.1036
  342TIP3    H222518   5.736   3.008   0.385 -1.3276 -0.5162 -0.9701
  343TIP3   OH222519   6.065   6.654  15.612 -0.1070  0.1939  0.4735
  343TIP3    H122520   6.092   6.627  15.700 -1.7235  1.5608  1.4467
  343TIP3    H222521   6.005   6.727  15.627 -0.3447  0.5143 -1.7851
  344TIP3   OH222522   0.307   2.684  14.768 -0.7504  0.1711  0.4879
  344TIP3    H122523   0.257   2.613  14.809  0.1161 -0.5808  0.2548
  344TIP3    H222524   0.255   2.708  14.691  0.6296 -2.6191 -1.4679
  345TIP3   OH222525   5.653   6.201   1.529  0.4540  0.1366 -0.2866
  345TIP3    H122526   5.726   6.158   1.573  0.2938 -2.7931 -2.5177
  345TIP3    H222527   5.575   6.154   1.560 -0.1228  0.9854 -0.4200
  346TIP3   OH222528   3.642   4.606  10.957 -0.4640  0.3076  0.3431
  346TIP3    H122529   3.561   4.557  10.976 -1.0018  0.6578 -0.9364
  346TIP3    H222530   3.614   4.675  10.897  0.8820  0.0703 -0.5993
  347TIP3   OH222531   2.322   2.782  14.602 -0.1562 -0.0447 -0.1069
  347TIP3    H122532   2.360   2.726  14.669  1.0373  0.6252 -0.2070
  347TIP3    H222533   2.397   2.823  14.558 -0.9621  0.8294 -0.7214
  348TIP3   OH222534   5.750   0.564   0.668  0.2712  0.8196  0.2208
  348TIP3    H122535   5.791   0.543   0.584  1.2777  1.2876  0.5867
  348TIP3    H222536   5.658   0.541   0.655  0.6263 -0.1854 -0.6259
  349TIP3   OH222537   2.174   2.362  15.808 -0.0924  0.3555 -0.0927
  349TIP3    H122538   2.144   2.437  15.756  1.2343  0.3109 -0.9767
  349TIP3    H222539   2.242   2.398  15.865 -1.7972  0.4823  1.9832
  350TIP3   OH222540   1.101   2.000  11.851  0.3266 -0.0866 -0.2811
  350TIP3    H122541   1.029   1.950  11.891  0.1979 -0.3075 -0.7878
  350TIP3    H222542   1.165   1.934  11.825 -0.2337 -0.0881 -1.7585
  351TIP3   OH222543   0.759   1.599  12.629 -0.0504  0.3246 -0.1989
  351TIP3    H122544   0.725   1.546  12.558 -1.9056  1.3427 -0.1207
  351TIP3    H222545   0.741   1.689  12.603 -2.0824  0.6888  2.1043
  352TIP3   OH222546   1.190   5.786   6.101  0.4750 -0.5724  0.0344
  352TIP3    H122547   1.208   5.873   6.064  0.4028  0.0453  1.4008
  352TIP3    H222548   1.189   5.800   6.196  1.7787 -2.3073  0.3503
  353TIP3   OH222549   3.832   1.810   5.337 -0.3481  0.2761 -0.2312
  353TIP3    H122550   3.770   1.874   5.373  0.7794  1.4655 -0.3170
  353TIP3    H222551   3.828   1.824   5.242  0.4620  0.8063 -0.2064
  354TIP3   OH222552   1.760   2.626   0.791 -0.1559  0.2921 -0.1651
  354TIP3    H122553   1.758   2.560   0.721  0.6147  1.7551 -1.6385
  354TIP3    H222554   1.668   2.653   0.800 -0.3887 -0.5309  0.0138
  355TIP3   OH222555   1.183   3.332   4.875  0.9439  0.0423  0.0490
  355TIP3    H122556   1.142   3.263   4.927  0.5892 -0.6121 -1.0744
  355TIP3    H222557   1.273   3.337   4.909  0.8502 -0.6819  0.4159
  356TIP3   OH222558   5.172   6.171  13.603 -0.1591 -0.6958  0.7550
  356TIP3    H122559   5.179   6.083  13.640 -2.1759 -1.5631 -0.7123
  356TIP3    H222560   5.088   6.171  13.557  1.4890  0.7116 -2.5909
  357TIP3   OH222561   4.705   2.523   4.250 -0.1082 -0.0522 -0.2926
  357TIP3    H122562   4.768   2.512   4.179 -0.0884 -0.3529 -0.2305
  357TIP3    H222563   4.756   2.513   4.330 -0.0730  0.5962 -0.2266
  358TIP3   OH222564   5.977   2.645  12.999 -0.7687  0.0723  0.1259
  358TIP3    H122565   6.063   2.667  13.033  0.4471 -2.1278 -1.2812
  358TIP3    H222566   5.956   2.717  12.939  0.2543  0.4507  0.2119
  359TIP3   OH222567   2.734   1.902   3.464  0.0323 -0.0069  0.6393
  359TIP3    H122568   2.756   1.915   3.371  1.6001 -0.7323  0.8722
  359TIP3    H222569   2.692   1.984   3.491  0.2151  0.4883 -0.5239
  360TIP3   OH222570   5.999   2.841   6.638 -0.4416 -0.0678  0.2340
  360TIP3    H122571   5.972   2.761   6.682  0.3133  1.1940  3.1910
  360TIP3    H222572   5.917   2.883   6.611 -0.9519 -0.6601  0.8498
  361TIP3   OH222573   0.159   0.290   1.373  0.3582  0.2212  0.2809
  361TIP3    H122574   0.094   0.247   1.317  1.1029 -0.7994  0.1853
  361TIP3    H222575   0.232   0.311   1.314  0.6466  0.2276  0.6319
  362TIP3   OH222576   5.173   3.056   5.034 -0.4915 -0.4463 -0.1767
  362TIP3    H122577   5.193   3.085   4.945 -1.8064  0.3789 -0.2216
  362TIP3    H222578   5.196   3.130   5.090 -1.1894 -0.3551 -0.0012
  363TIP3   OH222579   4.005   2.948  14.581 -0.0854 -0.3500 -0.1959
  363TIP3    H122580   4.043   2.906  14.503 -0.5433  2.3256 -1.9889
  363TIP3    H222581   3.923   2.900  14.596  0.3119 -1.3081 -0.9560
  364TIP3   OH222582   4.339   2.338  16.177  0.1633 -0.0299 -0.2534
  364TIP3    H122583   4.349   2.348  16.082  2.6577 -1.0683 -0.1714
  364TIP3    H222584   4.355   2.245  16.194  0.3890  0.2549  1.2490
  365TIP3   OH222585   4.786   5.494   0.828 -0.3296  0.1498 -0.1794
  365TIP3    H122586   4.834   5.413   0.812  1.2256  1.2370 -1.3168
  365TIP3    H222587   4.731   5.506   0.751 -0.2260  0.3856 -0.2197
  366TIP3   OH222588   0.063   2.486  15.116 -0.4825  0.7902  0.3517
  366TIP3    H122589   0.085   2.528  15.033 -2.8737  0.0600 -0.7384
  366TIP3    H222590   0.088   2.394  15.104  0.8329  1.0146  1.1600
  367TIP3   OH222591   3.311   2.810   2.800  0.0065  0.1135  0.0496
  367TIP3    H122592   3.266   2.727   2.783  0.9158 -0.0680 -1.7129
  367TIP3    H222593   3.280   2.869   2.731 -0.3236  1.1251  1.0432
  368TIP3   OH222594   1.248   2.003  12.205  0.3191 -0.1865  0.3731
  368TIP3    H122595   1.256   2.098  12.199 -1.0412 -0.1385 -1.4393
  368TIP3    H222596   1.268   1.971  12.117 -0.5619 -1.4674  0.6012
  369TIP3   OH222597   4.624   6.395   3.336 -0.0112 -0.0794  0.5139
  369TIP3    H122598   4.653   6.307   3.316  1.6900  0.4969  0.3197
  369TIP3    H222599   4.535   6.400   3.301  0.3481 -1.3056 -0.6088
  370TIP3   OH222600   3.899   5.810   4.346 -0.5661 -0.2677 -0.0949
  370TIP3    H122601   3.866   5.899   4.342  0.5535  0.1719  0.1467
  370TIP3    H222602   3.874   5.771   4.262  0.1053  0.7014 -0.7608
  371TIP3   OH222603   0.676   0.273  14.398 -0.4807  0.6807 -0.0052
  371TIP3    H122604   0.676   0.177  14.399  0.1089  0.6762  1.7837
  371TIP3    H222605   0.593   0.296  14.356 -0.7626 -0.6030 -0.2019
  372TIP3   OH222606   6.561   5.692   3.402 -0.1984  0.7211  0.1902
  372TIP3    H122607   6.637   5.709   3.346 -0.4410  3.5226  0.5503
  372TIP3    H222608   6.498   5.760   3.378 -1.9368 -0.5228  1.0540
  373TIP3   OH222609   5.705   1.459   0.097  0.0311  0.3370  0.1598
  373TIP3    H122610   5.716   1.506   0.014 -1.2958 -0.2447 -0.3735
  373TIP3    H222611   5.633   1.399   0.081 -1.6178  1.5801  2.2976
  374TIP3   OH222612   5.010   6.309   1.115  0.8294 -0.4267  0.2401
  374TIP3    H122613   5.003   6.273   1.026  0.5303 -1.6799  0.7431
  374TIP3    H222614   5.016   6.403   1.102  2.7594 -0.6732 -1.2151
  375TIP3   OH222615   4.045   5.253  12.181  0.3284 -0.1587 -0.0650
  375TIP3    H122616   4.064   5.323  12.243  0.0232 -1.4835  1.5750
  375TIP3    H222617   4.082   5.284  12.098  1.5745  1.2638  0.9737
  376TIP3   OH222618   5.025   6.185   5.782  0.2639  0.7112 -0.3995
  376TIP3    H122619   5.111   6.223   5.801 -0.4229  2.1320 -0.0644
  376TIP3    H222620   5.002   6.220   5.696  1.2348 -1.9413 -1.8902
  377TIP3   OH222621   0.917   0.468  17.036 -0.2937 -0.3888 -0.2072
  377TIP3    H122622   0.955   0.407  16.973  1.6433  1.5885 -1.1234
  377TIP3    H222623   0.836   0.498  16.995 -1.2700 -2.2440  0.2593
  378TIP3   OH222624   3.483   0.434  14.413 -0.3833  0.7989 -0.0161
  378TIP3    H122625   3.463   0.400  14.326 -1.2459  2.5554 -0.5667
  378TIP3    H222626   3.399   0.431  14.459 -0.0634  0.4443  0.5468
  379TIP3   OH222627   6.041   1.488   5.465  0.7226 -0.4891  0.5906
  379TIP3    H122628   5.981   1.540   5.518 -0.8331 -1.0428 -0.5624
  379TIP3    H222629   6.126   1.498   5.509  0.2955  2.1717  1.0073
  380TIP3   OH222630   2.597   4.173   1.278 -0.3516  0.4977  0.1627
  380TIP3    H122631   2.627   4.108   1.342  1.2330 -0.3530 -1.3419
  380TIP3    H222632   2.676   4.222   1.255 -0.7532  0.4195 -1.5104
  381TIP3   OH222633   2.442   1.156   4.315  0.1090 -0.1398  0.0152
  381TIP3    H122634   2.459   1.086   4.378  0.8583 -0.5564 -0.6140
  381TIP3    H222635   2.503   1.226   4.339 -0.3685  0.1448  0.4088
  382TIP3   OH222636   5.215   0.982   3.163  0.1741 -0.1473  0.0187
  382TIP3    H122637   5.193   0.917   3.095  0.4176  1.8655 -2.1172
  382TIP3    H222638   5.299   0.952   3.197  1.8308  0.4946 -3.0703
  383TIP3   OH222639   1.104   6.307   3.088  0.1794  0.5555  0.6372
  383TIP3    H122640   1.030   6.274   3.036 -0.7818  1.0048  1.6632
  383TIP3    H222641   1.111   6.247   3.162 -0.1414  1.3351  1.3284
  384TIP3   OH222642   5.470   3.269  15.476 -0.1086 -0.1459 -0.1603
  384TIP3    H122643   5.497   3.347  15.427 -0.2856 -0.6136 -1.0264
  384TIP3    H222644   5.523   3.198  15.439 -2.2620 -1.0467 -1.7521
  385TIP3   OH222645   0.475   4.185  15.719  0.3958  0.2618 -0.0503
  385TIP3    H122646   0.431   4.268  15.736 -0.2356 -0.3334  1.3665
  385TIP3    H222647   0.562   4.211  15.688 -0.3388  1.4406 -1.2372
  386TIP3   OH222648   0.172   5.690   1.912 -0.1171 -0.2526 -0.0730
  386TIP3    H122649   0.164   5.677   2.006  0.5141 -0.5964 -0.0583
  386TIP3    H222650   0.162   5.602   1.875  1.2413 -0.3832 -0.1967
  387TIP3   OH222651   1.523   0.331  16.409  0.0150  0.0705  0.4149
  387TIP3    H122652   1.491   0.258  16.356 -2.0436  1.0429  0.1832
  387TIP3    H222653   1.527   0.296  16.498  1.4395 -0.9738 -0.0204
  388TIP3   OH222654   3.673   4.010   0.349  0.4133 -0.8669 -0.2584
  388TIP3    H122655   3.602   4.015   0.285  0.7160  1.9625 -0.4610
  388TIP3    H222656   3.718   3.927   0.328 -2.2124 -2.2850 -0.6891
  389TIP3   OH222657   3.329   0.941   4.454  0.0889 -0.6759 -0.1643
  389TIP3    H122658   3.416   0.951   4.415  0.4927 -0.7887  0.7072
  389TIP3    H222659   3.315   1.022   4.503  0.1435 -1.0925  0.5502
  390TIP3   OH222660   2.812   0.521   0.116  0.1617  0.5557 -0.0681
  390TIP3    H122661   2.795   0.428   0.129  1.5104  0.1289 -1.0290
  390TIP3    H222662   2.750   0.548   0.049  1.1419 -0.2130 -1.3371
  391TIP3   OH222663   4.470   5.456  13.524 -0.4538  0.4325 -0.3260
  391TIP3    H122664   4.544   5.438  13.466 -1.0762 -0.1745 -0.9502
  391TIP3    H222665   4.465   5.380  13.581 -0.5643  0.4909 -0.2568
  392TIP3   OH222666   3.804   5.262  17.295  0.0394 -0.0296  0.2780
  392TIP3    H122667   3.729   5.257  17.354 -0.2046  2.6215  0.3134
  392TIP3    H222668   3.880   5.251  17.352 -0.2280 -1.8491  0.3655
  393TIP3   OH222669   4.186   3.907   0.319 -0.1712  0.0477 -0.6267
  393TIP3    H122670   4.279   3.885   0.311 -0.5682 -1.1644 -3.3469
  393TIP3    H222671   4.154   3.906   0.228 -2.3551  2.8301 -0.0153
  394TIP3   OH222672   2.143   1.690  12.836 -0.4033 -0.4621 -0.1492
  394TIP3    H122673   2.216   1.707  12.775  0.4313  0.8537  1.1597
  394TIP3    H222674   2.065   1.690  12.780  0.2806  1.2002 -1.1775
  395TIP3   OH222675   2.568   1.790  14.839  0.1029 -0.3884  0.1382
  395TIP3    H122676   2.536   1.874  14.872  1.1037 -0.3144  0.9887
  395TIP3    H222677   2.501   1.761  14.777  0.8204  2.1629 -2.0170
  396TIP3   OH222678   4.021   1.506   2.817 -0.4156  0.3000 -0.0941
  396TIP3    H122679   3.991   1.479   2.730 -0.7894  0.2216  0.0550
  396TIP3    H222680   3.958   1.573   2.844  0.8506  1.8017 -0.7264
  397TIP3   OH222681   5.703   3.610   5.901 -0.2506  0.6500  0.3822
  397TIP3    H122682   5.784   3.567   5.877 -1.4502  0.0777 -3.2761
  397TIP3    H222683   5.695   3.597   5.995  4.1324  1.3300  1.0513
  398TIP3   OH222684   6.735   2.233  12.348  0.1009 -0.5232  0.2122
  398TIP3    H122685   6.754   2.270  12.434  0.1956 -0.9370  0.3740
  398TIP3    H222686   6.766   2.142  12.354  1.2078 -0.2127 -0.6467
  399TIP3   OH222687   5.509   3.034   1.309 -0.4900  0.1469 -0.0231
  399TIP3    H122688   5.592   3.079   1.321 -0.4016  0.0396 -0.2199
  399TIP3    H222689   5.449   3.076   1.371 -0.7396  1.3865 -1.0593
  400TIP3   OH222690   4.209   5.928  16.539  0.4090  0.1895 -0.3387
  400TIP3    H122691   4.295   5.970  16.548  0.7987 -0.4589 -0.9748
  400TIP3    H222692   4.175   5.961  16.456 -0.5688  1.4990  0.5419
  401TIP3   OH222693   1.350   3.482   3.189 -0.5622 -0.3308 -0.1651
  401TIP3    H122694   1.269   3.455   3.145 -0.6241  0.7901 -0.7793
  401TIP3    H222695   1.329   3.569   3.225  1.1353  1.2690 -2.6642
  402TIP3   OH222696   2.509   3.355   3.426 -0.3957  0.3241  0.3601
  402TIP3    H122697   2.547   3.383   3.343  1.2186 -1.3922  0.4661
  402TIP3    H222698   2.583   3.346   3.485 -1.0466 -1.9189  0.9385
  403TIP3   OH222699   0.223   1.984  10.803  0.0971  0.0943  0.4110
  403TIP3    H122700   0.247   2.041  10.729 -1.5752 -0.2325 -0.4303
  403TIP3    H222701   0.298   1.989  10.862  1.3380  0.6622 -1.1319
  404TIP3   OH222702   6.385   4.333  16.034 -0.1187 -0.2645 -0.5601
  404TIP3    H122703   6.400   4.240  16.047  0.4586 -0.2136 -0.7846
  404TIP3    H222704   6.456   4.375  16.082 -0.5120  0.0659 -0.2666
  405TIP3   OH222705   5.112   5.909   1.136 -0.1652 -0.6550 -0.1431
  405TIP3    H122706   5.129   5.815   1.140  1.9189 -0.3827 -1.1992
  405TIP3    H222707   5.071   5.922   1.051 -3.2428 -0.9161  1.1910
  406TIP3   OH222708   2.044   1.443   5.235  0.4587 -0.2227  0.7042
  406TIP3    H122709   2.122   1.389   5.242  0.5431  0.0120  1.7206
  406TIP3    H222710   2.034   1.459   5.141  0.1255 -2.4342  0.2976
  407TIP3   OH222711   4.187   5.146  17.269 -0.1447  0.2765  0.4671
  407TIP3    H122712   4.194   5.175  17.178  0.8709  1.2817  0.8309
  407TIP3    H222713   4.249   5.074  17.276 -0.9439 -0.4536  0.1357
  408TIP3   OH222714   1.948   0.696   1.765 -0.4910  0.7008 -0.2464
  408TIP3    H122715   1.908   0.760   1.824 -2.8058 -2.1566  1.5490
  408TIP3    H222716   2.038   0.686   1.796 -1.2904  0.2189  2.0424
  409TIP3   OH222717   0.920   5.427  11.573  0.1381 -0.3137 -0.6386
  409TIP3    H122718   0.829   5.458  11.568  0.2075  0.0166 -0.0231
  409TIP3    H222719   0.928   5.392  11.662  0.0821 -2.1028 -1.2984
  410TIP3   OH222720   4.613   5.095   2.841  0.1258 -0.2735  0.9280
  410TIP3    H122721   4.564   5.013   2.838 -0.0625 -0.3215  3.2755
  410TIP3    H222722   4.703   5.070   2.820 -0.6437 -0.1996 -3.3568
  411TIP3   OH222723   5.094   5.581  14.939  0.2449  0.0797 -0.2793
  411TIP3    H122724   5.118   5.623  14.856 -1.2824 -1.4332 -1.5494
  411TIP3    H222725   5.053   5.499  14.914 -0.7079 -0.2138  1.9810
  412TIP3   OH222726   6.466   0.179   5.367 -0.4744  0.1795  0.1320
  412TIP3    H122727   6.394   0.137   5.321 -2.0786  1.7492  1.0664
  412TIP3    H222728   6.452   0.157   5.459 -0.5484  1.5565  0.4753
  413TIP3   OH222729   1.259   0.105   4.475 -0.2712 -0.0227 -0.7466
  413TIP3    H122730   1.193   0.053   4.521  1.7685 -1.2285  1.0039
  413TIP3    H222731   1.241   0.090   4.382 -4.2584  2.1105 -0.5691
  414TIP3   OH222732   4.682   4.848   6.631 -0.2470  0.0782  0.4357
  414TIP3    H122733   4.770   4.846   6.670  0.3429 -0.0355 -0.8575
  414TIP3    H222734   4.686   4.917   6.565 -0.2389 -1.7216 -1.5736
  415TIP3   OH222735   5.312   5.766  11.494 -0.1958  0.1828 -0.1066
  415TIP3    H122736   5.277   5.798  11.577 -1.0571 -0.1028 -0.3541
  415TIP3    H222737   5.274   5.822  11.427 -0.8142 -0.6194 -0.4440
  416TIP3   OH222738   3.676   2.114  16.194  0.1031  0.0083 -0.1355
  416TIP3    H122739   3.625   2.190  16.167  0.6601  0.2392 -0.5459
  416TIP3    H222740   3.691   2.065  16.113 -1.8584 -1.5508  0.3663
  417TIP3   OH222741   0.245   3.227  15.170  0.2938 -0.1292  0.3862
  417TIP3    H122742   0.211   3.313  15.143  2.1407 -0.4038 -3.3897
  417TIP3    H222743   0.168   3.169  15.166 -0.2468  0.6265 -0.8705
  418TIP3   OH222744   5.183   4.017   4.294 -0.5390  0.8844  0.1815
  418TIP3    H122745   5.206   4.097   4.342 -2.5519  1.4635  0.2947
  418TIP3    H222746   5.127   3.968   4.354  0.6608 -0.6434  0.1048
  419TIP3   OH222747   0.015   2.641   5.941  0.5160  0.1474 -0.0354
  419TIP3    H122748   0.111   2.646   5.931  0.4751 -0.4799 -0.7475
  419TIP3    H222749   0.002   2.622   6.034  1.0590  0.7989  0.1872
  420TIP3   OH222750   1.305   4.754  13.347 -0.2769  0.5563  0.1216
  420TIP3    H122751   1.276   4.844  13.335  0.2772  0.8795  1.1289
  420TIP3    H222752   1.228   4.701  13.326 -0.7187  1.2790 -0.0972
  421TIP3   OH222753   5.740   2.545   4.404 -0.2341  0.2106 -0.0768
  421TIP3    H122754   5.793   2.500   4.470  0.1377 -0.4595 -0.8204
  421TIP3    H222755   5.692   2.476   4.360 -0.1511  0.6044 -0.8015
  422TIP3   OH222756   2.130   4.565  12.074  0.1510  0.2559 -0.6867
  422TIP3    H122757   2.192   4.502  12.110 -1.0577 -0.4481  0.2430
  422TIP3    H222758   2.053   4.513  12.052 -0.5255  1.2645 -0.7562
  423TIP3   OH222759   2.697   0.111   6.442  0.4460 -0.3999  0.4356
  423TIP3    H122760   2.608   0.140   6.465  0.4044 -1.1761  1.3052
  423TIP3    H222761   2.703   0.022   6.477  1.5511 -0.3799  0.3244
  424TIP3   OH222762   6.808   1.119   5.404 -0.3684 -0.0411 -0.1140
  424TIP3    H122763   6.818   1.066   5.325 -0.4930  0.6602 -0.6174
  424TIP3    H222764   6.750   1.191   5.377 -1.1086 -0.2520  0.8460
  425TIP3   OH222765   6.149   1.823  16.860 -0.1344  0.6204 -0.3265
  425TIP3    H122766   6.082   1.766  16.823  1.7679 -1.3137 -1.0053
  425TIP3    H222767   6.153   1.799  16.953 -1.3567  1.8125  0.0638
  426TIP3   OH222768   5.556   4.807   4.488  0.3162 -0.0685  0.1755
  426TIP3    H122769   5.526   4.896   4.509 -0.3783  0.4585 -2.6987
  426TIP3    H222770   5.479   4.752   4.502 -0.1031  0.2538 -0.7870
  427TIP3   OH222771   0.109   5.565   4.331  0.6992  0.1284 -0.0088
  427TIP3    H122772   0.181   5.591   4.388  0.3865  0.6157  0.1772
  427TIP3    H222773   0.126   5.610   4.248  0.0842  1.0793  0.3570
  428TIP3   OH222774   1.077   6.010   3.477 -0.4023 -0.4196  0.9003
  428TIP3    H122775   1.121   6.078   3.426 -1.5669 -1.0331 -1.0393
  428TIP3    H222776   1.069   6.047   3.565 -0.4042  1.6975  0.0720
  429TIP3   OH222777   4.285   4.496  15.509 -0.8565 -0.0321 -0.2417
  429TIP3    H122778   4.339   4.523  15.583 -2.1796  1.2931  0.2744
  429TIP3    H222779   4.269   4.403  15.524  2.4381 -0.8657 -1.1842
  430TIP3   OH222780   5.626   2.016  10.241  0.2153 -0.2486 -0.0636
  430TIP3    H122781   5.713   2.056  10.244  2.1002 -3.9097 -0.4667
  430TIP3    H222782   5.616   1.976  10.327 -1.1959  0.2972  0.0405
  431TIP3   OH222783   3.754   5.796   1.865 -0.7029 -0.0475  0.1061
  431TIP3    H122784   3.827   5.776   1.924 -1.9828  0.0207  1.7769
  431TIP3    H222785   3.777   5.881   1.827  0.0742 -0.0203  0.6165
  432TIP3   OH222786   0.596   2.606   4.690  0.0128 -1.1120  0.4194
  432TIP3    H122787   0.555   2.604   4.776  1.7269 -2.0610  1.2467
  432TIP3    H222788   0.689   2.618   4.707  0.5151 -2.2383 -1.2616
  433TIP3   OH222789   3.348   6.801   4.375  0.2757 -0.4167 -0.5481
  433TIP3    H122790   3.276   6.817   4.436  0.1117  0.2303 -0.9016
  433TIP3    H222791   3.334   6.863   4.304  1.5536  0.1933 -0.3035
  434TIP3   OH222792   3.473   4.535  14.398  0.2864 -1.0813  1.0412
  434TIP3    H122793   3.466   4.605  14.462  0.2218 -1.0605  1.0122
  434TIP3    H222794   3.384   4.528  14.361  0.7870  0.3292 -0.5656
  435TIP3   OH222795   5.716   1.507   5.325 -0.4762 -0.6044 -0.0884
  435TIP3    H122796   5.659   1.441   5.363 -1.1031 -0.6139 -0.9936
  435TIP3    H222797   5.724   1.482   5.233 -0.2828  0.2708 -0.3263
  436TIP3   OH222798   1.659   2.305   1.848 -0.4307  0.1145  0.2356
  436TIP3    H122799   1.716   2.345   1.914  1.4067 -1.5445 -0.2307
  436TIP3    H222800   1.693   2.337   1.764 -1.7126  0.9296  0.0061
  437TIP3   OH222801   1.119   6.776  16.084 -0.4771  0.0303  0.7152
  437TIP3    H122802   1.157   6.690  16.072  2.7574  1.3138  0.7537
  437TIP3    H222803   1.108   6.811  15.996 -1.6041 -0.3320  0.7047
  438TIP3   OH222804   1.760   3.025   4.937 -0.3580  0.1138 -0.4820
  438TIP3    H122805   1.697   3.088   4.902 -1.9404 -2.7944 -3.4915
  438TIP3    H222806   1.780   2.968   4.863  1.0820 -2.8215  1.9434
  439TIP3   OH222807   0.975   4.607  17.013 -0.6180  0.2228 -0.5156
  439TIP3    H122808   0.959   4.604  17.107 -1.6007  0.9782 -0.6482
  439TIP3    H222809   1.062   4.567  17.002  0.2037  1.5152  0.8680
  440TIP3   OH222810   3.049   3.038   1.360  0.4465 -0.6725  0.3105
  440TIP3    H122811   3.096   3.052   1.442 -1.6878 -1.1805  1.7239
  440TIP3    H222812   2.976   3.100   1.363  1.2375  0.5003 -2.0685
  441TIP3   OH222813   5.554   3.488  15.819 -0.2475 -0.1292  0.3738
  441TIP3    H122814   5.563   3.412  15.877  0.7677 -0.5832 -0.3529
  441TIP3    H222815   5.640   3.498  15.779 -0.6228  0.8658 -0.2169
  442TIP3   OH222816   4.556   5.176  13.274 -0.8964  1.0221 -0.6267
  442TIP3    H122817   4.563   5.089  13.235 -0.0733 -0.1400  1.9455
  442TIP3    H222818   4.512   5.161  13.357  1.0412  2.7359  0.7866
  443TIP3   OH222819   1.959   6.393   5.602 -0.6461 -0.4833  0.4516
  443TIP3    H122820   2.045   6.374   5.564  0.0918  4.0220 -0.6984
  443TIP3    H222821   1.896   6.364   5.536  0.2164 -0.2867 -0.4690
  444TIP3   OH222822   4.395   0.062  12.494 -0.1141  0.1158  0.1207
  444TIP3    H122823   4.472   0.060  12.551 -1.2254  0.6154  1.7152
  444TIP3    H222824   4.416   0.129  12.429 -0.5824  3.1209  2.7729
  445TIP3   OH222825   2.756   1.835  14.361 -0.4759 -0.0047  0.6774
  445TIP3    H122826   2.676   1.854  14.311  0.8896  0.7225 -1.3885
  445TIP3    H222827   2.824   1.828  14.294  1.2160 -0.5683  2.3790
  446TIP3   OH222828   1.523   1.988   4.922 -0.1307 -0.2173  0.0741
  446TIP3    H122829   1.527   1.927   4.996 -0.6416 -0.2678  0.0683
  446TIP3    H222830   1.498   1.935   4.847 -0.7228  0.0157  0.0983
  447TIP3   OH222831   3.367   1.549   3.596 -0.1795  0.7432 -0.3181
  447TIP3    H122832   3.384   1.456   3.578  0.6390  1.0851 -1.4261
  447TIP3    H222833   3.303   1.575   3.531 -1.4778  0.6424  0.8689
  448TIP3   OH222834   6.710   2.445   3.123 -0.6223 -0.0883  0.3138
  448TIP3    H122835   6.690   2.398   3.042 -0.3726  2.6045 -1.4431
  448TIP3    H222836   6.625   2.480   3.152 -0.3889  0.8237 -0.0742
  449TIP3   OH222837   6.296   1.298  15.682 -0.8881  0.1735  0.3596
  449TIP3    H122838   6.237   1.343  15.622 -1.4677 -0.3865  0.4979
  449TIP3    H222839   6.252   1.301  15.767  0.4573  2.0110  1.0659
  450TIP3   OH222840   5.949   0.708   0.786  0.3990  0.4399  0.9222
  450TIP3    H122841   5.892   0.647   0.739  0.4265  0.8147  0.4104
  450TIP3    H222842   5.921   0.795   0.759  0.2010  0.6754  1.8363
  451TIP3   OH222843   0.223   6.685  12.760 -0.0790 -0.9293  0.5805
  451TIP3    H122844   0.269   6.643  12.687  1.1027 -0.5111  1.0644
  451TIP3    H222845   0.197   6.771  12.725  1.2328 -0.3851  0.8925
  452TIP3   OH222846   2.118   3.671   0.100 -0.2296 -0.5469  0.5079
  452TIP3    H122847   2.052   3.647   0.035 -0.0454 -0.0595  0.1442
  452TIP3    H222848   2.076   3.738   0.154  0.6180  1.1886 -0.9156
  453TIP3   OH222849   5.559   2.754  17.202  0.4697 -0.2030  0.3871
  453TIP3    H122850   5.651   2.768  17.182  0.3869 -0.5562 -0.2514
  453TIP3    H222851   5.558   2.682  17.265  0.6708  0.2971  0.9734
  454TIP3   OH222852   3.004   2.363  12.670 -0.5419  0.2098 -0.0135
  454TIP3    H122853   2.912   2.338  12.669  0.3962 -4.1398 -1.2797
  454TIP3    H222854   3.039   2.321  12.749  0.7542 -0.4459 -0.8891
  455TIP3   OH222855   0.962   0.968   1.964  0.4144 -0.0236  0.2968
  455TIP3    H122856   1.024   0.896   1.956 -0.0332 -0.3652 -0.1890
  455TIP3    H222857   0.885   0.929   2.007  0.4087  0.3176  0.6034
  456TIP3   OH222858   1.941   4.117   5.847 -0.0647 -0.5781  0.4643
  456TIP3    H122859   1.890   4.043   5.880  1.3288 -1.1858  1.3986
  456TIP3    H222860   1.989   4.149   5.923  2.8457 -1.6664 -0.7599
  457TIP3   OH222861   5.111   5.657   5.371  0.2180  0.0934  0.2148
  457TIP3    H122862   5.083   5.606   5.447 -2.8292  0.6563 -0.4191
  457TIP3    H222863   5.088   5.747   5.392 -0.0512  0.3492 -1.0815
  458TIP3   OH222864   5.657   1.256   1.091  0.2986 -0.5606 -0.1461
  458TIP3    H122865   5.657   1.197   1.167 -1.6055  0.1680  0.4763
  458TIP3    H222866   5.593   1.217   1.031  1.1909 -0.6845 -1.0436
  459TIP3   OH222867   2.614   2.501   5.730  0.4865 -0.7355  0.0868
  459TIP3    H122868   2.549   2.560   5.766 -0.4487 -2.2888  1.0616
  459TIP3    H222869   2.687   2.557   5.705  0.0462  0.7228  1.8732
  460TIP3   OH222870   2.637   3.100   0.244  0.4253  0.0687 -0.3427
  460TIP3    H122871   2.591   3.182   0.259  2.4468  0.9815  1.3509
  460TIP3    H222872   2.601   3.039   0.309 -1.7549 -0.7831 -2.2149
  461TIP3   OH222873   6.359   5.357  16.117 -0.1281 -0.1062  0.5123
  461TIP3    H122874   6.369   5.428  16.054 -2.2297  0.1469  0.4108
  461TIP3    H222875   6.433   5.299  16.099  0.7249  1.2271 -0.4740
  462TIP3   OH222876   0.638   5.767   0.236  0.2856  0.0562  0.1796
  462TIP3    H122877   0.662   5.771   0.329 -0.3194 -1.1423  0.4151
  462TIP3    H222878   0.627   5.673   0.219  2.2841  0.0646 -1.6147
  463TIP3   OH222879   6.017   1.865  15.099 -0.3418 -0.5127  0.0465
  463TIP3    H122880   6.096   1.863  15.045 -0.3211 -0.5881  0.0786
  463TIP3    H222881   6.028   1.792  15.159 -0.3377 -0.3932  0.1912
  464TIP3   OH222882   0.079   0.475  15.424 -0.0054 -0.1496  0.3714
  464TIP3    H122883  -0.013   0.450  15.418  0.3821 -1.4499 -0.3407
  464TIP3    H222884   0.077   0.566  15.455 -1.6078  0.6297 -1.7771
  465TIP3   OH222885   3.939   6.066   3.089 -0.0223 -0.2422 -0.2933
  465TIP3    H122886   3.957   5.983   3.046  1.0931  0.4052 -1.1368
  465TIP3    H222887   3.919   6.126   3.017  1.1020  0.6738  0.1187
  466TIP3   OH222888   5.078   0.470  10.911  0.1433 -0.4527 -0.0162
  466TIP3    H122889   5.027   0.550  10.920 -0.8106 -1.0115 -0.2526
  466TIP3    H222890   5.141   0.489  10.841 -0.1721  0.0470 -0.1694
  467TIP3   OH222891   1.395   5.909  14.289 -0.1277  0.0632 -0.0346
  467TIP3    H122892   1.332   5.878  14.354 -0.9421  0.9524 -0.3720
  467TIP3    H222893   1.347   5.975  14.239  1.0320  0.6489 -0.4085
  468TIP3   OH222894   2.326   0.915  14.399 -0.2639  0.3895 -0.2483
  468TIP3    H122895   2.288   0.956  14.321 -2.6581 -2.2702 -0.6321
  468TIP3    H222896   2.262   0.930  14.468  0.2100 -0.2089  0.3346
  469TIP3   OH222897   0.116   5.529  14.211  0.0353  0.2827  0.0218
  469TIP3    H122898   0.142   5.438  14.226  0.0924  0.2389 -0.3469
  469TIP3    H222899   0.039   5.541  14.268 -1.2291 -0.6013 -1.4170
  470TIP3   OH222900   1.614   0.082   5.030  0.3306 -0.2395  0.0568
  470TIP3    H122901   1.657   0.163   5.056 -1.6830  0.5162  1.3116
  470TIP3    H222902   1.680   0.034   4.980  1.6719  2.0452 -0.4985
  471TIP3   OH222903   3.808   5.674  11.728  0.4247  0.0585  0.5388
  471TIP3    H122904   3.786   5.590  11.771 -2.6608 -0.2744 -1.4058
  471TIP3    H222905   3.759   5.739  11.778 -0.6083  0.0880 -0.4794
  472TIP3   OH222906   1.937   4.015   0.595 -0.2135 -0.0010  0.4496
  472TIP3    H122907   1.879   4.001   0.520  0.8253 -1.0451 -0.1944
  472TIP3    H222908   2.008   4.069   0.561 -0.0256 -0.0056  0.8224
  473TIP3   OH222909   5.607   4.767  16.553 -0.1129  0.4027  0.0484
  473TIP3    H122910   5.585   4.715  16.476 -0.4446 -1.1601  1.1427
  473TIP3    H222911   5.696   4.798  16.537  0.2766 -0.9122 -0.4639
  474TIP3   OH222912   6.466   3.143   1.769  0.1618 -0.7680  0.3384
  474TIP3    H122913   6.402   3.098   1.715  0.6757 -0.9088 -0.1730
  474TIP3    H222914   6.465   3.097   1.852 -1.2635 -0.0090  0.7741
  475TIP3   OH222915   0.011   4.580  15.567  0.1166  0.3717  0.1013
  475TIP3    H122916   0.084   4.597  15.627  0.0955 -1.8755  0.8630
  475TIP3    H222917   0.045   4.517  15.504 -0.8114  0.2658 -0.3159
  476TIP3   OH222918   2.779   0.876   5.261 -0.0709  0.2385  0.0850
  476TIP3    H122919   2.794   0.842   5.173 -0.1727 -1.0095  0.5327
  476TIP3    H222920   2.719   0.814   5.302 -2.0101  2.0905  0.2413
  477TIP3   OH222921   6.503   0.806  14.824  0.0791 -0.1976  0.0045
  477TIP3    H122922   6.430   0.867  14.817  1.4869  1.5648 -0.1530
  477TIP3    H222923   6.466   0.729  14.868 -1.8826  0.5546 -0.2207
  478TIP3   OH222924   0.594   6.041  14.719  0.0946 -0.5211 -0.4501
  478TIP3    H122925   0.498   6.035  14.715 -0.0388  0.7360  0.2146
  478TIP3    H222926   0.618   6.089  14.640  0.2805 -1.6372 -1.0904
  479TIP3   OH222927   0.883   3.807   6.310  0.4885  0.4248 -0.6171
  479TIP3    H122928   0.883   3.903   6.315  2.2898  0.5259 -1.8413
  479TIP3    H222929   0.884   3.788   6.216  1.3639 -0.7877 -0.3807
  480TIP3   OH222930   0.374   1.637  14.571 -0.6810 -0.0323 -0.5897
  480TIP3    H122931   0.325   1.555  14.571  0.7136 -0.9138  0.2203
  480TIP3    H222932   0.446   1.622  14.510  0.3852  0.0503  0.6098
  481TIP3   OH222933   3.370   0.012   1.911 -0.1337  0.4901  0.2835
  481TIP3    H122934   3.392  -0.054   1.976  0.7850  0.2533 -0.2388
  481TIP3    H222935   3.376  -0.034   1.827  0.6832  1.2472 -0.1046
  482TIP3   OH222936   6.599   4.726  15.568 -0.2877 -0.1097  0.1921
  482TIP3    H122937   6.569   4.710  15.658 -0.2935  0.0671  0.2217
  482TIP3    H222938   6.692   4.701  15.570  0.7086  3.1205  1.1700
  483TIP3   OH222939   1.689   5.245   2.211 -0.2624  0.5488 -0.5805
  483TIP3    H122940   1.778   5.222   2.239  0.3997  1.7286 -1.6438
  483TIP3    H222941   1.694   5.338   2.191 -1.9773  0.8302  0.1722
  484TIP3   OH222942   0.127   4.267   1.616  0.1077 -0.0342 -0.1515
  484TIP3    H122943   0.148   4.360   1.613  0.7436 -0.1814 -0.4606
  484TIP3    H222944   0.086   4.255   1.701 -0.1359  0.5585 -0.1780
  485TIP3   OH222945   3.941   0.765  12.926 -0.3866 -0.7488 -0.2522
  485TIP3    H122946   3.956   0.847  12.973 -0.1137 -1.3757  0.7877
  485TIP3    H222947   3.942   0.790  12.834  2.8022 -0.0236 -0.1499
  486TIP3   OH222948   5.805   5.208   5.257  0.0861 -0.7764  0.2329
  486TIP3    H122949   5.826   5.283   5.202  0.8968 -0.8729  0.3908
  486TIP3    H222950   5.720   5.176   5.225 -1.3251  1.4565  1.5028
  487TIP3   OH222951   0.295   3.277   3.355  0.4509  0.3049  0.4789
  487TIP3    H122952   0.314   3.362   3.396  0.8252  0.9491 -0.9406
  487TIP3    H222953   0.255   3.301   3.270 -1.2069 -0.9683  0.8495
  488TIP3   OH222954   0.838   2.971  11.248  0.0626  0.1218 -0.3184
  488TIP3    H122955   0.870   2.902  11.189  0.3368  1.5778 -1.9738
  488TIP3    H222956   0.916   3.023  11.267 -0.3828  0.7738 -0.2507
  489TIP3   OH222957   6.498   6.762   6.147  0.4218 -0.2394  0.0651
  489TIP3    H122958   6.533   6.766   6.236 -2.4005 -2.2225  1.4298
  489TIP3    H222959   6.449   6.843   6.136  1.1716  0.2281  0.0907
  490TIP3   OH222960   3.086   2.156  12.166 -0.0142  0.0668 -0.0777
  490TIP3    H122961   3.035   2.213  12.223  2.0167  1.6363  0.2689
  490TIP3    H222962   3.177   2.181  12.181  0.9909 -3.0853 -0.1500
  491TIP3   OH222963   1.302   4.189   0.550  0.0227 -0.5796  0.7661
  491TIP3    H122964   1.390   4.205   0.584  0.1406 -1.5684  0.9438
  491TIP3    H222965   1.259   4.135   0.616 -0.6066 -0.3975  0.5163
  492TIP3   OH222966   4.518   5.771   6.314  0.3584 -0.3085 -0.2829
  492TIP3    H122967   4.449   5.833   6.338  1.8310  1.2985  0.0873
  492TIP3    H222968   4.576   5.771   6.390  1.3008 -0.7993 -0.9852
  493TIP3   OH222969   3.614   3.035   4.695 -0.0224 -0.0617 -0.0995
  493TIP3    H122970   3.649   3.081   4.619  0.9600 -1.1310 -0.3209
  493TIP3    H222971   3.600   3.103   4.761  2.7696  0.3992  0.1218
  494TIP3   OH222972   5.937   4.301  12.628  0.0423  0.2407 -0.5174
  494TIP3    H122973   5.870   4.278  12.692 -0.4947  0.2780 -1.0568
  494TIP3    H222974   5.995   4.225  12.626  0.1490  0.3044  0.1197
  495TIP3   OH222975   1.400   4.713   1.004  0.1748  0.0769  0.2242
  495TIP3    H122976   1.446   4.731   1.085 -0.1957 -0.5057  0.5680
  495TIP3    H222977   1.465   4.669   0.949  0.7992  1.5597 -0.2715
  496TIP3   OH222978   5.595   5.662   1.670 -0.5968 -0.1976 -0.3869
  496TIP3    H122979   5.629   5.660   1.580  0.9677  2.8751 -0.0119
  496TIP3    H222980   5.531   5.733   1.669 -2.1912 -1.5735  0.4752
  497TIP3   OH222981   6.355   4.642  15.135 -0.4211  0.6200 -0.2805
  497TIP3    H122982   6.445   4.611  15.147 -0.7959 -1.0215 -1.3403
  497TIP3    H222983   6.300   4.573  15.174 -1.2361  1.7236  0.5828
  498TIP3   OH222984   1.740   1.814  11.015 -0.3376 -0.3696 -0.1791
  498TIP3    H122985   1.803   1.851  11.078 -1.0160 -0.3357  0.4879
  498TIP3    H222986   1.667   1.876  11.015 -0.9747 -1.1082  0.0733
  499TIP3   OH222987   5.417   0.781   0.386 -0.0178 -0.1395 -0.2559
  499TIP3    H122988   5.450   0.852   0.442  0.0737 -1.3636  1.3045
  499TIP3    H222989   5.326   0.770   0.413  0.0399 -0.7777 -0.3052
  500TIP3   OH222990   2.259   1.697  14.091  0.6434  0.6820  0.2773
  500TIP3    H122991   2.205   1.694  14.012 -1.2135  0.1684  1.4978
  500TIP3    H222992   2.196   1.703  14.163  2.2170 -0.0937  1.8022
  501TIP3   OH222993   1.923   1.471  10.803 -0.0639  0.2825  0.5623
  501TIP3    H122994   2.011   1.498  10.778  0.8651 -2.1237  0.9509
  501TIP3    H222995   1.874   1.553  10.812  1.9038  1.6435 -0.4099
  502TIP3   OH222996   5.567   4.736  13.737  0.2078 -0.1919  0.6862
  502TIP3    H122997   5.568   4.694  13.651 -1.4070  0.6963  0.1860
  502TIP3    H222998   5.623   4.682  13.791 -0.9943 -2.4121 -0.1682
  503TIP3   OH222999   1.464   5.847   0.388  0.2703 -0.1234  0.8920
  503TIP3    H123000   1.505   5.903   0.455 -0.6399  0.3576  1.0545
  503TIP3    H223001   1.515   5.766   0.391  0.5902  0.0958  1.7779
  504TIP3   OH223002   6.649   1.843  15.529  0.3081 -0.6329 -0.0209
  504TIP3    H123003   6.677   1.760  15.491  0.2832 -0.7901  0.2981
  504TIP3    H223004   6.677   1.910  15.466 -0.6048 -0.9532 -0.8068
  505TIP3   OH223005   4.113   5.183   4.086 -0.8779 -0.0669  0.3124
  505TIP3    H123006   4.020   5.189   4.062 -0.7018  2.0083 -0.0661
  505TIP3    H223007   4.158   5.162   4.004 -1.0359 -1.7249  0.6196
  506TIP3   OH223008   6.228   4.691   2.683 -0.5047  0.0881  0.1994
  506TIP3    H123009   6.249   4.613   2.632  0.2504  0.4694 -0.0760
  506TIP3    H223010   6.195   4.656   2.767 -1.4980 -0.5338 -0.4235
  507TIP3   OH223011   3.570   5.780  11.395 -0.3586 -0.1619  0.1942
  507TIP3    H123012   3.615   5.699  11.417 -0.5444 -0.1503  0.6417
  507TIP3    H223013   3.590   5.796  11.303 -0.3857 -0.7580  0.0867
  508TIP3   OH223014   5.967   3.989  15.125  0.0895 -0.1223  0.5942
  508TIP3    H123015   5.900   4.012  15.060 -0.6478 -1.4092  0.8417
  508TIP3    H223016   5.948   4.046  15.200  0.4843  0.8567 -0.0398
  509TIP3   OH223017   1.445   5.167   0.841 -0.2554  0.7060 -0.3316
  509TIP3    H123018   1.501   5.242   0.864  0.5513 -0.3316  1.2287
  509TIP3    H223019   1.361   5.187   0.881  0.3556  0.1927  1.3038
  510TIP3   OH223020   2.936   5.956   1.918 -0.4471  0.3563 -0.5337
  510TIP3    H123021   2.976   5.947   2.005 -1.7512 -1.6879 -0.0578
  510TIP3    H223022   3.005   5.992   1.863  0.9118  0.2251  1.0130
  511TIP3   OH223023   4.025   0.256   1.562  0.4481 -0.2610  0.6990
  511TIP3    H123024   4.029   0.348   1.590 -3.0146  0.2153  0.0395
  511TIP3    H223025   4.017   0.261   1.467  0.8877 -1.3125  0.6014
  512TIP3   OH223026   2.121   5.424  16.005  0.0969  0.3463 -0.7482
  512TIP3    H123027   2.125   5.463  15.918  1.4339  0.8072 -0.5074
  512TIP3    H223028   2.178   5.480  16.058 -1.8327  0.9648  0.7883
  513TIP3   OH223029   6.016   0.117  11.592 -0.3500  1.1522 -0.6356
  513TIP3    H123030   6.105   0.090  11.614 -0.2336  1.8850 -0.1816
  513TIP3    H223031   5.968   0.035  11.582  0.6874  0.7149 -2.2469
  514TIP3   OH223032   3.951   3.082   1.397 -0.2190 -0.6139 -0.6787
  514TIP3    H123033   3.902   3.021   1.454  0.2605 -0.9069 -0.5735
  514TIP3    H223034   3.888   3.151   1.376 -0.5052 -0.6795 -0.0642
  515TIP3   OH223035   5.348   2.966  13.378  0.3335 -0.2052  0.3076
  515TIP3    H123036   5.278   3.016  13.336 -0.4195  1.0422  2.8762
  515TIP3    H223037   5.311   2.878  13.390  0.1626 -0.2646 -0.5634
  516TIP3   OH223038   1.617   0.520  17.285  0.1301 -0.7553 -0.3869
  516TIP3    H123039   1.667   0.543  17.364  0.2003 -0.1667 -0.5997
  516TIP3    H223040   1.624   0.597  17.229  0.4948 -1.3579 -1.1885
  517TIP3   OH223041   0.668   2.742   5.904 -0.0449 -0.4775  0.0315
  517TIP3    H123042   0.667   2.679   5.977  2.7655 -0.8290 -0.1208
  517TIP3    H223043   0.707   2.821   5.941 -1.6507  0.5247 -0.3158
  518TIP3   OH223044   5.982   4.115   0.548  0.4857 -0.1934 -0.2646
  518TIP3    H123045   6.032   4.163   0.614  1.4741 -0.3408 -0.8794
  518TIP3    H223046   5.938   4.045   0.597  2.5682 -1.3745  0.0397
  519TIP3   OH223047   0.104   0.500  13.390  0.0939 -0.0315 -0.6611
  519TIP3    H123048   0.016   0.530  13.409  0.3146 -0.7972  1.9760
  519TIP3    H223049   0.160   0.575  13.408  0.0813  0.1002 -1.1633
  520TIP3   OH223050   0.593   1.582   2.668 -0.2960  0.5853 -0.0201
  520TIP3    H123051   0.537   1.518   2.712  1.2569  0.3290  1.7188
  520TIP3    H223052   0.536   1.657   2.653 -1.4769 -0.1967  0.3483
  521TIP3   OH223053   4.617   6.752  10.578 -0.1934  0.3937  1.0376
  521TIP3    H123054   4.563   6.676  10.599 -0.6782  0.8814  1.6073
  521TIP3    H223055   4.554   6.824  10.570  0.0792  0.4609 -1.0052
  522TIP3   OH223056   4.391   2.905  15.837 -0.1397 -0.0187  0.6471
  522TIP3    H123057   4.310   2.864  15.869  0.5798 -1.2527  0.9378
  522TIP3    H223058   4.399   2.875  15.747  0.0614 -0.0024  0.6595
  523TIP3   OH223059   5.527   0.294   5.695 -0.4724 -0.0397  0.1476
  523TIP3    H123060   5.601   0.326   5.643 -1.7012  0.6883 -1.2393
  523TIP3    H223061   5.451   0.337   5.657 -1.6777 -1.0865  1.2676
  524TIP3   OH223062   5.405   2.773  13.021 -0.7825  0.0147 -0.5054
  524TIP3    H123063   5.404   2.677  13.013  1.0750  0.0472 -1.4129
  524TIP3    H223064   5.394   2.788  13.115 -0.4978 -1.1068 -0.2712
  525TIP3   OH223065   2.949   4.869  13.038 -0.0283  0.6233  0.1489
  525TIP3    H123066   2.902   4.918  13.104 -0.3264 -0.1497  0.5287
  525TIP3    H223067   2.922   4.778  13.052  0.2253  0.3944 -0.7614
  526TIP3   OH223068   4.839   0.633   3.882  0.1401 -0.3273 -0.1771
  526TIP3    H123069   4.746   0.653   3.892  0.7410  1.8811  2.1768
  526TIP3    H223070   4.846   0.590   3.797 -2.8688  0.3959 -0.8955
  527TIP3   OH223071   0.105   6.675  16.326 -0.0312 -0.0220  0.9538
  527TIP3    H123072   0.140   6.586  16.316  1.0112  0.5042 -0.3251
  527TIP3    H223073   0.010   6.663  16.322  0.1106 -1.0200  0.2209
  528TIP3   OH223074   2.942   0.725  16.409 -0.8393 -0.0799  0.2306
  528TIP3    H123075   2.988   0.782  16.470  0.2924 -0.2095 -0.4511
  528TIP3    H223076   2.877   0.679  16.462 -0.2779  0.2390  1.2119
  529TIP3   OH223077   4.686   1.599   2.161  0.2002 -0.0959 -0.6406
  529TIP3    H123078   4.626   1.629   2.093  1.3454  0.9487 -1.2350
  529TIP3    H223079   4.701   1.676   2.216 -0.0963 -0.7231  0.3430
  530TIP3   OH223080   3.651   4.411  15.177  0.3545 -0.0560  0.0182
  530TIP3    H123081   3.599   4.491  15.172 -1.9621 -1.4593  0.1346
  530TIP3    H223082   3.695   4.406  15.092 -2.2707 -0.3737 -1.4392
  531TIP3   OH223083   3.402   2.581   4.365  0.0771  0.5383 -0.2038
  531TIP3    H123084   3.442   2.568   4.451  0.7521 -1.6052 -0.7664
  531TIP3    H223085   3.468   2.627   4.313  0.0684  0.9239  0.1250
  532TIP3   OH223086   2.303   5.749  14.221 -0.4035  0.0668 -0.0772
  532TIP3    H123087   2.361   5.728  14.148  0.2209  1.2702  0.0414
  532TIP3    H223088   2.362   5.782  14.290 -1.0478 -0.4174  0.7262
  533TIP3   OH223089   2.015   1.134  13.416  0.0022  0.0996 -0.1911
  533TIP3    H123090   1.962   1.062  13.382 -0.3361 -0.0924  0.7096
  533TIP3    H223091   2.102   1.096  13.427 -0.6779 -0.9435  2.5179
  534TIP3   OH223092   5.406   0.070  15.036 -0.3635  0.1710  0.1364
  534TIP3    H123093   5.329   0.127  15.042 -0.8958 -0.6068  0.9513
  534TIP3    H223094   5.373  -0.013  15.002 -0.2244 -0.6823  1.9267
  535TIP3   OH223095   4.414   3.094   2.152  0.0817 -0.7330  0.6050
  535TIP3    H123096   4.360   3.018   2.130 -1.2636 -0.1097  1.6393
  535TIP3    H223097   4.390   3.115   2.242 -2.8069  3.5025 -0.8721
  536TIP3   OH223098   3.662   6.350   0.227  0.1438  0.2444 -0.0365
  536TIP3    H123099   3.598   6.278   0.230 -0.3659  0.7158  1.2456
  536TIP3    H223100   3.671   6.370   0.134 -1.4943  0.0614 -0.2748
  537TIP3   OH223101   2.050   1.845  16.651 -1.1575 -0.5716 -0.4944
  537TIP3    H123102   2.118   1.853  16.719 -1.6136  1.8516 -0.2227
  537TIP3    H223103   2.056   1.754  16.622 -0.9401 -1.7410  2.7954
  538TIP3   OH223104   6.189   2.682  15.516 -0.2387 -0.3703  0.4426
  538TIP3    H123105   6.191   2.624  15.440  1.8693  0.7024 -0.4042
  538TIP3    H223106   6.157   2.766  15.482  2.0820  0.5464  0.3081
  539TIP3   OH223107   1.650   1.987   5.725 -0.2536  0.3034 -0.7500
  539TIP3    H123108   1.657   1.912   5.666  2.0306  0.4412 -0.7396
  539TIP3    H223109   1.682   1.955   5.809 -0.7168  0.8958 -0.3398
  540TIP3   OH223110   2.389   1.836  11.799  0.4390 -0.3989  1.0072
  540TIP3    H123111   2.392   1.796  11.712  1.0375 -1.3921  1.4623
  540TIP3    H223112   2.477   1.870  11.813  0.7433 -1.4236  1.7359
  541TIP3   OH223113   4.441   5.172  11.323 -0.1103  0.3557 -0.1507
  541TIP3    H123114   4.517   5.115  11.334  0.2220  0.8132 -0.0303
  541TIP3    H223115   4.370   5.128  11.369  0.5252  0.7926  1.3025
  542TIP3   OH223116   0.957   3.009   1.732 -0.3638 -0.6067  0.7425
  542TIP3    H123117   0.890   2.969   1.788 -0.3723  0.9726  1.9072
  542TIP3    H223118   1.038   3.003   1.783 -0.5150  1.5239  1.3399
  543TIP3   OH223119   5.647   0.935   3.795 -0.0983 -0.0139 -0.1091
  543TIP3    H123120   5.615   0.953   3.706  0.6982  1.8464 -0.0827
  543TIP3    H223121   5.669   0.842   3.795  0.0311 -0.0156 -1.9144
  544TIP3   OH223122   4.131   2.896   3.825 -0.0712 -0.2943 -0.6190
  544TIP3    H123123   4.059   2.833   3.816  0.5068 -1.1827  0.6726
  544TIP3    H223124   4.147   2.926   3.736 -0.8536 -1.4402 -1.1805
  545TIP3   OH223125   2.262   2.745  11.118 -0.0117  0.9833 -0.2301
  545TIP3    H123126   2.252   2.709  11.029  1.3684 -2.4090  0.7977
  545TIP3    H223127   2.172   2.757  11.149 -0.5783 -0.3338 -1.2250
  546TIP3   OH223128   3.821   1.006  13.462 -0.1314 -0.3503 -0.5828
  546TIP3    H123129   3.791   0.959  13.540  1.6964 -3.0054 -1.3047
  546TIP3    H223130   3.765   0.974  13.392 -1.4268  1.6296 -0.5107
  547TIP3   OH223131   4.584   4.519  14.493 -0.4637 -0.0715  0.0151
  547TIP3    H123132   4.491   4.509  14.472 -0.2255  0.0583 -1.1696
  547TIP3    H223133   4.621   4.564  14.417  0.8671 -1.4582 -0.2026
  548TIP3   OH223134   1.279   5.693  13.379  0.1893 -0.0866 -0.0843
  548TIP3    H123135   1.207   5.674  13.438  1.2639 -0.1141  1.2530
  548TIP3    H223136   1.337   5.752  13.428  1.0912 -0.0702 -1.1143
  549TIP3   OH223137   2.037   6.374  12.815  0.2294 -0.1865 -0.0103
  549TIP3    H123138   2.017   6.323  12.736 -1.8357  0.3201  0.1242
  549TIP3    H223139   2.098   6.441  12.785  3.8782 -3.1228 -0.0123
  550TIP3   OH223140   0.889   3.582   5.842 -0.0247  0.1222 -0.4322
  550TIP3    H123141   0.840   3.596   5.761  0.8443 -1.2613 -1.2441
  550TIP3    H223142   0.856   3.499   5.876  1.3264 -0.5640 -0.7189
  551TIP3   OH223143   4.973   1.894  16.844  0.5426  0.4330 -0.1789
  551TIP3    H123144   4.887   1.921  16.875  0.2809  0.7747 -1.1907
  551TIP3    H223145   5.034   1.938  16.904  0.0299 -1.5438  1.9508
  552TIP3   OH223146   5.909   3.605  15.278 -0.4166  0.2383 -0.4013
  552TIP3    H123147   5.874   3.618  15.366  0.8186 -0.1164  0.1685
  552TIP3    H223148   5.842   3.641  15.220 -0.8910  1.2298  0.7153
  553TIP3   OH223149   3.116   6.054  17.290  0.4726  0.7130 -0.5750
  553TIP3    H123150   3.051   6.003  17.338  2.8340 -1.2523  0.8112
  553TIP3    H223151   3.169   6.095  17.358  2.2675  0.0646 -1.5061
  554TIP3   OH223152   5.277   4.220  11.698 -0.0845 -0.0180 -0.1973
  554TIP3    H123153   5.258   4.292  11.639 -0.0158  0.2149  0.0610
  554TIP3    H223154   5.371   4.204  11.687 -0.1006 -0.0719 -0.2587
  555TIP3   OH223155   6.420   5.049  13.661 -0.0265  0.1297 -1.0255
  555TIP3    H123156   6.441   5.139  13.635 -2.3298  0.2866 -2.6471
  555TIP3    H223157   6.415   5.001  13.578 -3.1674 -0.4309 -0.6393
  556TIP3   OH223158   6.686   5.624   5.676 -0.2857  0.4183 -0.1954
  556TIP3    H123159   6.666   5.704   5.629  0.0791  1.2517  1.0044
  556TIP3    H223160   6.644   5.554   5.626 -0.0564  1.2747 -1.6177
  557TIP3   OH223161   4.983   2.286  13.726  0.4485 -0.4179 -0.0476
  557TIP3    H123162   5.040   2.226  13.678  0.6457  0.4984 -0.9860
  557TIP3    H223163   5.027   2.297  13.811  1.7346  0.3371 -0.7848
  558TIP3   OH223164   3.571   4.998   3.354  0.6868 -0.2123  0.2030
  558TIP3    H123165   3.523   4.952   3.285  2.0336  0.2396 -1.0949
  558TIP3    H223166   3.630   5.057   3.307  0.3315  1.5021  1.7833
  559TIP3   OH223167   3.763   1.188   2.130  0.3750  1.2113 -0.4932
  559TIP3    H123168   3.759   1.208   2.036 -1.0961  0.4856 -0.6158
  559TIP3    H223169   3.679   1.218   2.164  1.0340  1.8030  0.6856
  560TIP3   OH223170   0.164   1.471   4.485 -0.1585  0.4352 -0.1458
  560TIP3    H123171   0.115   1.535   4.433  1.8794  3.1214  1.0281
  560TIP3    H223172   0.217   1.423   4.421 -2.9680 -1.4682 -1.2444
  561TIP3   OH223173   0.503   4.185   2.751  0.3870 -0.2949  0.0456
  561TIP3    H123174   0.497   4.167   2.657  0.8750  1.0466 -0.2587
  561TIP3    H223175   0.593   4.162   2.774  0.4719  0.0360  0.0407
  562TIP3   OH223176   3.187   6.576   3.333  0.3709  0.2642  0.4828
  562TIP3    H123177   3.166   6.551   3.423  0.8161 -1.3819  0.1731
  562TIP3    H223178   3.103   6.576   3.288  0.3549 -0.8942  0.4727
  563TIP3   OH223179   1.494   4.578  14.690 -0.2477 -0.0119  0.4897
  563TIP3    H123180   1.499   4.522  14.612  0.1370  1.0573 -0.2624
  563TIP3    H223181   1.461   4.661  14.658 -1.6430 -0.0416  1.7506
  564TIP3   OH223182   6.777   5.520  13.564  0.0543  0.2858 -0.2623
  564TIP3    H123183   6.780   5.474  13.480  0.2307 -0.6510  0.2511
  564TIP3    H223184   6.737   5.605  13.543 -1.9640 -0.7818 -0.9003
  565TIP3   OH223185   2.090   2.826   3.600  0.1205  0.2304 -0.1089
  565TIP3    H123186   2.021   2.866   3.548  0.1790 -0.0532 -0.4031
  565TIP3    H223187   2.055   2.827   3.690 -0.2426  0.1293 -0.2485
  566TIP3   OH223188   2.720   6.351  10.996  0.5835  0.0901 -0.4159
  566TIP3    H123189   2.630   6.320  11.002  0.6187  0.0938  0.1315
  566TIP3    H223190   2.731   6.375  10.903  0.9585 -2.7853 -1.2117
  567TIP3   OH223191   2.568   2.534   1.682 -0.5692 -0.9574 -0.3789
  567TIP3    H123192   2.568   2.606   1.618 -1.1029  0.8254  1.5347
  567TIP3    H223193   2.478   2.502   1.682 -0.9523  0.0416  0.4840
  568TIP3   OH223194   5.263   1.264  16.810 -0.3444 -0.1509  0.5412
  568TIP3    H123195   5.321   1.202  16.765 -1.4039 -0.5545 -0.3080
  568TIP3    H223196   5.203   1.209  16.861 -1.2269  0.1613 -0.1378
  569TIP3   OH223197   5.553   1.943  14.972 -0.0220  0.1692  0.1817
  569TIP3    H123198   5.461   1.951  14.946  0.1415  0.9012 -0.1941
  569TIP3    H223199   5.553   1.966  15.065 -0.2502 -0.0308  0.2318
  570TIP3   OH223200   6.770   3.286  12.139  0.6243 -0.3875 -0.7620
  570TIP3    H123201   6.717   3.358  12.171 -0.0117 -0.0342 -2.4656
  570TIP3    H223202   6.720   3.207  12.162 -0.8243 -0.0593 -2.4582
  571TIP3   OH223203   2.762   2.495  12.921 -0.2212  0.3165  0.0966
  571TIP3    H123204   2.710   2.536  12.852 -3.4247 -1.4955  1.2047
  571TIP3    H223205   2.721   2.523  13.003  1.6286  0.0947  1.1609
  572TIP3   OH223206   6.561   6.626   1.531 -0.1332 -0.5393 -0.1027
  572TIP3    H123207   6.642   6.678   1.532 -0.4033 -0.1075  0.5568
  572TIP3    H223208   6.591   6.535   1.529  0.3688 -0.3796 -0.0684
  573TIP3   OH223209   2.488   6.482  16.916  0.3180  0.0347 -0.1385
  573TIP3    H123210   2.567   6.431  16.935 -0.2778 -0.3230  1.5341
  573TIP3    H223211   2.430   6.465  16.989 -1.0543  0.8590 -0.9871
  574TIP3   OH223212   0.072   2.310  14.278 -0.1346  0.2335 -0.1114
  574TIP3    H123213   0.087   2.285  14.187  2.8363  2.3273 -0.3127
  574TIP3    H223214   0.154   2.291  14.322 -1.5879 -0.9892  2.3151
  575TIP3   OH223215   5.816   4.190  12.004 -0.3097 -0.2574  0.0057
  575TIP3    H123216   5.892   4.245  12.026 -2.0732  1.7854  1.4115
  575TIP3    H223217   5.769   4.240  11.937 -0.7864 -1.1593 -0.3438
  576TIP3   OH223218   2.428   0.690  14.544 -0.0018  0.5321  0.7247
  576TIP3    H123219   2.463   0.736  14.620 -0.1889  2.1207 -0.1112
  576TIP3    H223220   2.407   0.759  14.481  0.2045 -0.7318 -0.8076
  577TIP3   OH223221   3.330   1.587  14.853 -0.5109 -0.1237  0.4441
  577TIP3    H123222   3.357   1.530  14.780  0.2562 -1.0884  1.4325
  577TIP3    H223223   3.267   1.647  14.815  0.9679  0.3680 -1.3566
  578TIP3   OH223224   3.693   5.819  17.029 -0.4591  0.1329  0.1529
  578TIP3    H123225   3.779   5.831  16.989  1.5385  0.3762  4.0290
  578TIP3    H223226   3.695   5.728  17.061 -0.2720  1.0066  2.8642
  579TIP3   OH223227   0.941   0.024   2.563 -0.2483 -0.6406 -0.9237
  579TIP3    H123228   0.942   0.051   2.655  3.4033 -0.9369 -0.7448
  579TIP3    H223229   0.903   0.099   2.517 -1.0867 -0.0234  0.6785
  580TIP3   OH223230   5.763   6.254  15.499  0.0100  0.2819 -0.0717
  580TIP3    H123231   5.697   6.303  15.450 -1.3919 -0.2046  1.2480
  580TIP3    H223232   5.718   6.227  15.579  2.1084  0.7225  1.3105
  581TIP3   OH223233   0.956   0.167  13.349  0.4749 -0.0124  0.4414
  581TIP3    H123234   0.935   0.202  13.263 -2.9689 -0.1362  1.0806
  581TIP3    H223235   1.008   0.236  13.391 -0.7059  1.5717 -0.5791
  582TIP3   OH223236   3.217   2.070   5.018 -0.1061 -0.2285 -0.1374
  582TIP3    H123237   3.195   2.084   5.111  1.5018 -0.2950  0.2791
  582TIP3    H223238   3.248   2.155   4.988  0.0879 -0.3962 -0.4077
  583TIP3   OH223239   1.519   4.869  14.372  0.0120  0.3720 -0.2795
  583TIP3    H123240   1.562   4.953  14.360 -2.2857  1.4884 -1.1347
  583TIP3    H223241   1.533   4.822  14.289 -1.5145  1.2982 -1.1024
  584TIP3   OH223242   6.198   4.064  10.892 -0.1896  0.2530 -0.4295
  584TIP3    H123243   6.139   4.085  10.819 -0.6174 -3.2934 -1.3149
  584TIP3    H223244   6.156   3.989  10.935  2.8038 -1.3320 -0.0411
  585TIP3   OH223245   5.246   5.020   6.154  0.1224  0.1236  1.1082
  585TIP3    H123246   5.173   4.960   6.141  0.9602 -0.5529 -0.7912
  585TIP3    H223247   5.207   5.107   6.144 -0.2559 -0.2520 -1.2430
  586TIP3   OH223248   6.530   0.436  11.060 -0.0074  0.1534 -0.2161
  586TIP3    H123249   6.522   0.362  11.000 -0.7526 -0.2353  0.3379
  586TIP3    H223250   6.573   0.504  11.009 -0.0677 -0.3795 -0.9966
  587TIP3   OH223251   3.822   4.089   0.876  0.2032  0.4609 -0.0139
  587TIP3    H123252   3.752   4.077   0.811 -1.7081  0.6481  1.9092
  587TIP3    H223253   3.882   4.151   0.834 -0.5043 -0.0444 -1.9128
  588TIP3   OH223254   6.477   0.562  15.581  0.3092  0.0850 -0.1874
  588TIP3    H123255   6.482   0.656  15.566  0.5212  0.4527  1.8218
  588TIP3    H223256   6.460   0.524  15.495 -0.2585  1.9892 -0.9639
  589TIP3   OH223257   6.667   5.013   1.653  0.6058 -0.0083 -0.0635
  589TIP3    H123258   6.742   4.983   1.705 -0.3142 -1.2746  0.5724
  589TIP3    H223259   6.623   4.933   1.626  0.4310  0.6679 -1.8991
  590TIP3   OH223260   5.992   6.342  15.365 -0.3490 -0.5638 -0.0552
  590TIP3    H123261   5.910   6.311  15.403  0.6269  0.2008  2.8922
  590TIP3    H223262   6.049   6.359  15.440  2.5772 -1.1390 -1.9828
  591TIP3   OH223263   5.630   6.124  15.708 -0.2822  0.0202  0.7836
  591TIP3    H123264   5.600   6.206  15.747 -2.1047  0.7901 -1.9338
  591TIP3    H223265   5.550   6.079  15.682  0.7650 -0.8806 -1.0989
  592TIP3   OH223266   2.642   6.598  16.347  0.1915 -0.1310  0.3090
  592TIP3    H123267   2.684   6.553  16.273  2.3075 -0.0946  1.4188
  592TIP3    H223268   2.555   6.559  16.352  0.4560 -1.0572 -1.3913
  593TIP3   OH223269   1.148   0.845  11.653  0.7582  0.2456  0.0775
  593TIP3    H123270   1.187   0.903  11.719 -1.3802  2.3427 -0.4093
  593TIP3    H223271   1.055   0.867  11.652  0.4771 -0.6192 -2.7338
  594TIP3   OH223272   2.644   4.345  16.235 -0.1029  0.2958 -0.1285
  594TIP3    H123273   2.616   4.425  16.279 -0.3108  0.6458 -0.8682
  594TIP3    H223274   2.724   4.370  16.188  0.1465 -0.0808  0.0987
  595TIP3   OH223275   0.720   1.120   4.597  0.2085 -0.2828 -0.0008
  595TIP3    H123276   0.780   1.146   4.528  0.6235 -0.2980  0.3496
  595TIP3    H223277   0.635   1.114   4.554 -0.0090  2.0345 -0.0460
  596TIP3   OH223278   4.490   4.314   0.867 -0.5808  0.2273  0.3445
  596TIP3    H123279   4.436   4.375   0.817 -0.8853 -2.2734 -2.6324
  596TIP3    H223280   4.567   4.366   0.892 -1.8966  2.4400  0.1298
  597TIP3   OH223281   0.331   3.362  15.952 -0.0555 -0.1564  0.1127
  597TIP3    H123282   0.344   3.425  16.022 -0.9288 -0.3201  0.4286
  597TIP3    H223283   0.287   3.288  15.993 -0.7716 -0.1656 -0.6437
  598TIP3   OH223284   2.602   0.018   3.197 -0.7336  0.5316  0.2428
  598TIP3    H123285   2.628  -0.026   3.278  0.2986 -1.9133 -1.3059
  598TIP3    H223286   2.664   0.091   3.188  3.2367 -2.6178 -1.1598
  599TIP3   OH223287   6.775   2.154  17.212  0.1727  0.0439 -0.0676
  599TIP3    H123288   6.718   2.167  17.136  2.9512  1.8934 -2.0134
  599TIP3    H223289   6.741   2.214  17.278 -0.4037  0.7734 -1.0045
  600TIP3   OH223290   2.840   3.213  11.799  1.1282 -0.1945  0.6191
  600TIP3    H123291   2.868   3.194  11.709 -0.7060 -0.9664  0.1581
  600TIP3    H223292   2.900   3.280  11.829  1.8004  0.0732 -1.1912
  601TIP3   OH223293   5.296   1.493  13.944 -0.2853 -0.3623  0.2459
  601TIP3    H123294   5.262   1.463  14.029  0.4625 -0.8140  0.3952
  601TIP3    H223295   5.280   1.419  13.885  1.1567 -0.9033  0.5087
  602TIP3   OH223296   2.753   4.020  14.966  0.1446 -0.1372 -0.0637
  602TIP3    H123297   2.770   4.103  14.921  0.6464  0.0614  0.4760
  602TIP3    H223298   2.827   3.965  14.942 -1.3343 -1.2815 -2.3333
  603TIP3   OH223299   5.067   0.661  16.472  0.7033  0.0981  0.0437
  603TIP3    H123300   5.056   0.678  16.565 -0.3054  0.0660 -0.0640
  603TIP3    H223301   5.042   0.743  16.429  0.8680  0.0152 -0.2174
  604TIP3   OH223302   2.181   6.733   5.234  0.4939 -0.1087  0.0814
  604TIP3    H123303   2.130   6.652   5.235  0.3860 -0.0614 -0.9409
  604TIP3    H223304   2.227   6.733   5.318 -2.6361  0.7864  1.9972
  605TIP3   OH223305   2.662   0.783   0.439 -0.7064 -0.4170  0.1761
  605TIP3    H123306   2.645   0.689   0.442  0.5300 -0.6508  0.6632
  605TIP3    H223307   2.588   0.823   0.483 -0.7690 -1.2452  0.8438
  606TIP3   OH223308   1.382   6.410  13.664 -0.2259  0.7149 -0.8197
  606TIP3    H123309   1.351   6.445  13.580 -1.1491 -0.4297 -0.9738
  606TIP3    H223310   1.326   6.335  13.681  0.2318  0.6804  0.6330
  607TIP3   OH223311   2.036   1.876   2.125 -0.8433  0.6531 -0.5771
  607TIP3    H123312   1.957   1.911   2.166  0.5070  0.9732  1.9440
  607TIP3    H223313   2.022   1.781   2.126 -0.0428  0.4583  2.6888
  608TIP3   OH223314   2.730   4.519  16.732  0.3825 -0.6379  0.2685
  608TIP3    H123315   2.780   4.475  16.801 -0.0549 -1.5506  0.0224
  608TIP3    H223316   2.764   4.609  16.731  1.4062 -1.0012  0.6895
  609TIP3   OH223317   4.287   5.795  16.798 -0.2977  1.0369 -0.0447
  609TIP3    H123318   4.378   5.771  16.781 -0.5657 -0.4568  0.5157
  609TIP3    H223319   4.253   5.822  16.712  0.0195 -0.7274 -0.7772
  610TIP3   OH223320   3.466   3.634  14.582  0.2809 -0.0973 -0.6509
  610TIP3    H123321   3.533   3.573  14.610 -0.5925  0.8895  4.5809
  610TIP3    H223322   3.391   3.579  14.559  0.7676 -1.0893  0.0783
  611TIP3   OH223323   0.594   2.623   2.999 -0.5585 -0.4820 -0.1253
  611TIP3    H123324   0.588   2.566   3.076  1.0718  0.2470  0.5934
  611TIP3    H223325   0.529   2.691   3.015  0.3694  0.1667  1.0947
  612TIP3   OH223326   4.320   2.807   0.845 -0.2047  0.0684  0.3675
  612TIP3    H123327   4.322   2.855   0.927  0.2853  1.2437 -0.3129
  612TIP3    H223328   4.310   2.874   0.777  0.4468 -0.7788 -0.6099
  613TIP3   OH223329   2.087   4.719   0.279  0.5324 -0.2877  0.2396
  613TIP3    H123330   1.994   4.706   0.301  0.3629 -0.2191 -0.4103
  613TIP3    H223331   2.133   4.708   0.362  0.0407 -1.4092  0.3816
  614TIP3   OH223332   2.491   0.336   3.104 -0.0972 -0.1012 -0.1624
  614TIP3    H123333   2.545   0.302   3.033 -0.1458 -0.0713 -0.2136
  614TIP3    H223334   2.451   0.416   3.069  0.4390  0.3091  0.1376
  615TIP3   OH223335   3.774   0.367   1.280  0.4680  0.5831  0.8368
  615TIP3    H123336   3.831   0.388   1.354  1.0852 -1.3677  0.9866
  615TIP3    H223337   3.800   0.278   1.255 -0.7592  0.6342 -0.7694
  616TIP3   OH223338   2.308   0.832  12.316  0.1261  0.4263 -0.4161
  616TIP3    H123339   2.242   0.840  12.248  1.5743 -1.0398 -2.0921
  616TIP3    H223340   2.263   0.787  12.388 -0.9620  0.3530 -1.1185
  617TIP3   OH223341   0.279   5.392   2.567  0.0317  0.7271 -0.3471
  617TIP3    H123342   0.227   5.471   2.552  0.6881  0.8429 -2.1904
  617TIP3    H223343   0.344   5.392   2.498 -1.2981 -2.5361 -1.8194
  618TIP3   OH223344   2.505   4.452  15.173  0.1677 -0.1526  0.1763
  618TIP3    H123345   2.428   4.464  15.118  0.3254  0.7070  0.1270
  618TIP3    H223346   2.507   4.359  15.192  0.0571 -0.4597 -1.2175
  619TIP3   OH223347   1.148   2.421  12.000 -0.0289 -0.4437  0.6713
  619TIP3    H123348   1.086   2.487  11.966  1.5986 -0.2762 -2.3059
  619TIP3    H223349   1.128   2.342  11.950  1.7425 -0.5310  0.0271
  620TIP3   OH223350   3.127   6.520   5.814  0.9609  0.1453 -0.0351
  620TIP3    H123351   3.084   6.452   5.763 -0.3146  0.6082  0.3936
  620TIP3    H223352   3.190   6.472   5.868  0.2775 -0.6735  0.0571
  621TIP3   OH223353   3.129   5.404  16.182 -0.1650 -0.6740  0.1637
  621TIP3    H123354   3.178   5.333  16.141  0.9668  0.3906 -0.3829
  621TIP3    H223355   3.166   5.411  16.270 -1.4368 -1.8360  0.8385
  622TIP3   OH223356   6.428   1.535   5.247 -0.3841  0.5895  0.5239
  622TIP3    H123357   6.472   1.476   5.307 -2.0191 -2.4801 -1.0585
  622TIP3    H223358   6.435   1.492   5.162  1.7236  4.6523 -1.6676
  623TIP3   OH223359   2.882   4.881  14.504 -0.4859  0.2670 -0.8763
  623TIP3    H123360   2.848   4.969  14.521 -1.0703  0.0438 -0.8572
  623TIP3    H223361   2.924   4.888  14.419 -0.6377  0.5385 -0.9327
  624TIP3   OH223362   5.351   0.765   3.636 -0.3059  0.2080  0.5673
  624TIP3    H123363   5.428   0.810   3.603 -0.5645  0.7745  0.7281
  624TIP3    H223364   5.284   0.833   3.644 -1.1781 -0.4731 -0.6498
  625TIP3   OH223365   5.123   1.875  15.589 -0.0146 -0.2869 -0.8529
  625TIP3    H123366   5.202   1.862  15.642 -0.7482  0.2407  0.4251
  625TIP3    H223367   5.127   1.807  15.522  1.1661 -0.7118 -0.3757
  626TIP3   OH223368   1.770   3.147  11.590 -0.3076 -0.0337 -0.0327
  626TIP3    H123369   1.822   3.119  11.665  1.1668  0.9459 -0.6271
  626TIP3    H223370   1.788   3.082  11.523 -0.0017  0.1895 -0.1701
  627TIP3   OH223371   5.558   6.277  12.538 -0.5264 -0.6705 -0.3360
  627TIP3    H123372   5.600   6.356  12.574 -0.3476 -1.1155  0.4568
  627TIP3    H223373   5.585   6.275  12.446  0.4643 -0.4616 -0.0616
  628TIP3   OH223374   3.935   3.643   3.131 -0.3534  0.3089 -0.4722
  628TIP3    H123375   3.997   3.573   3.152  1.7192  2.0563 -0.4079
  628TIP3    H223376   3.914   3.629   3.039 -0.1348 -0.5098 -0.4059
  629TIP3   OH223377   0.564   2.948   5.416  0.3842  0.1322 -0.2726
  629TIP3    H123378   0.582   3.037   5.444 -4.0810  0.9180  0.8308
  629TIP3    H223379   0.578   2.895   5.494  0.7233  0.1957 -0.2860
  630TIP3   OH223380   1.264   2.410   2.168  0.9029 -0.0630  0.5848
  630TIP3    H123381   1.284   2.323   2.203  1.8908  0.1921  0.6613
  630TIP3    H223382   1.330   2.425   2.100 -1.2088 -0.7316 -1.7878
  631TIP3   OH223383   3.905   0.590   4.544  0.2121 -0.0782 -0.3739
  631TIP3    H123384   3.897   0.563   4.453  0.9416  0.8018 -0.7223
  631TIP3    H223385   3.987   0.550   4.574  0.3285  0.2008 -0.3181
  632TIP3   OH223386   3.975   3.120   3.481 -0.2613 -0.4964  0.0375
  632TIP3    H123387   4.019   3.060   3.421  0.2257 -0.6783  0.5765
  632TIP3    H223388   3.900   3.071   3.514 -1.2576  0.0166 -1.3432
  633TIP3   OH223389   2.509   5.285   5.599 -0.4474 -0.4177 -0.2954
  633TIP3    H123390   2.528   5.274   5.506  2.0017  2.3189 -0.2832
  633TIP3    H223391   2.528   5.377   5.616 -2.0264 -0.5257  2.7003
  634TIP3   OH223392   0.450   4.610  13.038 -0.5546  0.0108 -0.0704
  634TIP3    H123393   0.462   4.673  12.967  1.2939 -0.4022 -0.1894
  634TIP3    H223394   0.379   4.645  13.091 -0.2248  1.6759 -0.6879
  635TIP3   OH223395   0.960   4.789   4.815  0.0502 -0.5442 -0.1191
  635TIP3    H123396   1.042   4.828   4.845  0.9453 -2.3047 -0.1666
  635TIP3    H223397   0.940   4.835   4.734  0.6145  0.3594  0.2252
  636TIP3   OH223398   3.247   5.183  16.103  0.3176  0.4246  0.3070
  636TIP3    H123399   3.200   5.107  16.137 -1.8429  2.2998  1.8127
  636TIP3    H223400   3.259   5.165  16.010 -1.3052 -1.1895  0.3701
  637TIP3   OH223401   3.206   0.119   1.049 -0.2180  0.5704 -0.2726
  637TIP3    H123402   3.243   0.202   1.077 -0.6475  0.2937  1.2416
  637TIP3    H223403   3.118   0.140   1.019 -0.9079  0.5091  1.5681
  638TIP3   OH223404   4.142   5.353   3.143 -0.7530 -0.1176 -0.1039
  638TIP3    H123405   4.079   5.305   3.196 -3.1853  1.7615 -1.1211
  638TIP3    H223406   4.169   5.290   3.075 -0.1912 -1.4622  1.3047
  639TIP3   OH223407   5.425   6.598   6.147  0.3783  0.2736 -0.8991
  639TIP3    H123408   5.444   6.553   6.229  0.3773  0.0997 -0.9937
  639TIP3    H223409   5.487   6.560   6.084  0.4411  0.4721 -0.9562
  640TIP3   OH223410   6.758   6.805   5.252 -0.1310  0.7091  0.1585
  640TIP3    H123411   6.692   6.826   5.319  0.2826  0.8454  0.5322
  640TIP3    H223412   6.841   6.814   5.298  0.0930 -2.1943  0.4881
  641TIP3   OH223413   0.483   2.332   6.037 -0.1262 -0.5841 -0.5066
  641TIP3    H123414   0.513   2.265   5.977  2.2560 -1.2670  1.3111
  641TIP3    H223415   0.551   2.338   6.103 -1.0931  2.4027  0.3880
  642TIP3   OH223416   6.812   4.231   0.706  0.0778  0.6808  0.4335
  642TIP3    H123417   6.771   4.238   0.792  0.5469 -0.6853  0.8030
  642TIP3    H223418   6.829   4.137   0.695 -0.6261  0.7292 -1.4650
  643TIP3   OH223419   0.379   6.614   3.129 -0.4395  0.0222 -0.3439
  643TIP3    H123420   0.313   6.675   3.161 -0.0935  0.8236 -1.1082
  643TIP3    H223421   0.452   6.622   3.190 -0.7413 -0.3105  0.0706
  644TIP3   OH223422   3.462   5.127  12.421  0.6097  0.3183  0.2522
  644TIP3    H123423   3.493   5.072  12.349  1.6508  0.2784  0.7016
  644TIP3    H223424   3.532   5.192  12.432 -0.0064  0.9377  0.5768
  645TIP3   OH223425   5.205   4.633   2.183 -0.1301 -0.0815  0.1929
  645TIP3    H123426   5.212   4.544   2.147 -1.2561 -0.4383  0.7902
  645TIP3    H223427   5.182   4.688   2.109 -1.3638 -0.6304  0.1505
  646TIP3   OH223428   6.258   4.950  15.689  0.4264  0.1389 -0.3796
  646TIP3    H123429   6.234   4.913  15.604 -0.5693 -0.7189  0.2544
  646TIP3    H223430   6.274   5.043  15.671 -2.7857  0.6922 -1.0219
  647TIP3   OH223431   5.460   6.682  15.676  0.1079  0.0398 -0.2964
  647TIP3    H123432   5.398   6.755  15.678 -1.5916 -1.3706  1.5755
  647TIP3    H223433   5.412   6.611  15.633  1.1279 -0.5216 -0.5429
  648TIP3   OH223434   1.042   4.256   2.322  0.2517 -0.0720  0.1601
  648TIP3    H123435   1.033   4.202   2.401 -1.0922  0.1273  0.1648
  648TIP3    H223436   1.125   4.303   2.334  0.6018 -0.8592  0.9367
  649TIP3   OH223437   4.291   6.737   1.131 -0.1450 -0.4224  0.2146
  649TIP3    H123438   4.300   6.725   1.225 -0.8838 -0.3615  0.2987
  649TIP3    H223439   4.337   6.818   1.112 -2.8239  1.4423  1.0717
  650TIP3   OH223440   5.646   4.658   3.178  0.3673  0.2206  0.2882
  650TIP3    H123441   5.564   4.659   3.228  0.3559 -0.4488  0.2907
  650TIP3    H223442   5.636   4.584   3.117  0.2375  1.2220 -0.9505
  651TIP3   OH223443   1.580   6.232  12.740  0.0515 -0.0807 -0.0042
  651TIP3    H123444   1.489   6.237  12.770  0.1074 -1.7549  0.5367
  651TIP3    H223445   1.630   6.278  12.807 -0.2255 -0.6932  0.6455
  652TIP3   OH223446   0.872   1.004  13.607  0.0745  0.1549  0.6074
  652TIP3    H123447   0.960   0.982  13.577  0.2959  0.5882  0.9228
  652TIP3    H223448   0.821   0.924  13.594  0.2222  0.2394 -0.6782
  653TIP3   OH223449   0.585   2.259  14.726 -0.3311 -0.9342  0.0047
  653TIP3    H123450   0.659   2.270  14.666 -0.7379 -0.7258 -0.4576
  653TIP3    H223451   0.530   2.192  14.685 -0.2440 -1.3270  0.5080
  654TIP3   OH223452   6.734   6.439  15.656 -0.7684  0.2102 -0.5054
  654TIP3    H123453   6.788   6.360  15.663  0.2628  0.8119 -1.3348
  654TIP3    H223454   6.646   6.410  15.678 -0.4899 -1.2616 -1.2318
  655TIP3   OH223455   2.488   0.396  15.853  0.3632  1.0049 -0.3692
  655TIP3    H123456   2.486   0.475  15.800 -0.5390  1.9977  1.0567
  655TIP3    H223457   2.571   0.400  15.900  0.7043  0.6460 -0.9281
  656TIP3   OH223458   6.385   5.472   3.454 -0.0004 -0.0372 -0.2992
  656TIP3    H123459   6.451   5.536   3.426  2.4413 -2.7671 -1.3106
  656TIP3    H223460   6.301   5.511   3.429  1.4955  1.7344 -3.0384
  657TIP3   OH223461   6.039   3.423   4.310  0.6604  0.3475 -0.0349
  657TIP3    H123462   6.079   3.468   4.235 -0.0448  0.5860 -0.2745
  657TIP3    H223463   5.956   3.390   4.276  0.7139 -0.2743  0.4189
  658TIP3   OH223464   0.889   4.342  13.104 -0.3883  0.4601  0.4930
  658TIP3    H123465   0.940   4.280  13.157 -0.0522  0.7791  0.5440
  658TIP3    H223466   0.856   4.406  13.167 -1.8425 -0.3923  0.6392
  659TIP3   OH223467   1.000   2.709  13.359 -0.3937  0.5634  0.4087
  659TIP3    H123468   1.001   2.787  13.415  1.6061 -0.2549  1.6311
  659TIP3    H223469   0.950   2.735  13.282 -0.0399  2.9648  0.9142
  660TIP3   OH223470   2.446   3.134  12.890  0.0048 -0.4301 -0.0363
  660TIP3    H123471   2.467   3.194  12.962 -0.0755 -0.2103 -0.1955
  660TIP3    H223472   2.361   3.164  12.859  0.4224  0.0129 -0.7793
  661TIP3   OH223473   5.544   1.318  16.421 -0.1132  0.1473  0.4746
  661TIP3    H123474   5.494   1.357  16.492 -2.1633 -3.2713  1.1615
  661TIP3    H223475   5.481   1.311  16.349  0.5900 -0.4922 -0.0898
  662TIP3   OH223476   5.391   2.835   0.243 -0.1032 -0.1588 -0.0227
  662TIP3    H123477   5.437   2.888   0.179  0.1493  0.3508  0.5794
  662TIP3    H223478   5.337   2.897   0.292 -1.3353 -0.7112 -0.6072
  663TIP3   OH223479   4.560   4.251  15.396 -1.0555  0.1058  1.0128
  663TIP3    H123480   4.540   4.165  15.432 -0.1491  0.8212  3.4053
  663TIP3    H223481   4.628   4.285  15.453 -1.4939  2.4806  0.2101
  664TIP3   OH223482   4.067   3.249   5.100 -0.5546 -0.0687 -0.6251
  664TIP3    H123483   4.075   3.283   5.189  0.2922  1.1369 -1.1409
  664TIP3    H223484   4.023   3.318   5.052  0.9320  0.2094 -1.6345
  665TIP3   OH223485   0.517   1.311  14.545 -0.1173  0.4551 -0.6576
  665TIP3    H123486   0.557   1.300  14.459  0.0947  0.2784 -0.5397
  665TIP3    H223487   0.512   1.222  14.580 -1.8785  0.3009 -1.2232
  666TIP3   OH223488   4.914   1.622   4.924 -0.0474 -0.0514  0.5300
  666TIP3    H123489   4.946   1.674   4.997  0.7050  0.0627  0.1382
  666TIP3    H223490   4.840   1.671   4.889  0.3747  0.5307  0.4402
  667TIP3   OH223491   1.712   0.577  11.221 -0.8233  0.1216  0.5118
  667TIP3    H123492   1.747   0.490  11.242 -1.6690  0.1418  2.2182
  667TIP3    H223493   1.789   0.629  11.199 -0.1405 -0.7009  0.8634
  668TIP3   OH223494   1.155   0.172   6.204 -0.6224  0.8180  0.0428
  668TIP3    H123495   1.184   0.123   6.281  2.9679  1.4034 -0.7349
  668TIP3    H223496   1.069   0.137   6.183  0.2172 -2.5553  1.6466
  669TIP3   OH223497   3.398   6.522   4.571 -0.1658 -0.7567  0.0526
  669TIP3    H123498   3.315   6.477   4.556 -0.8760 -0.1946  1.9383
  669TIP3    H223499   3.413   6.512   4.665 -0.1198  2.4574  0.4904
  670TIP3   OH223500   0.846   0.799  11.789  0.0803  0.0875 -0.0576
  670TIP3    H123501   0.932   0.760  11.778  0.6835  1.3399  0.0058
  670TIP3    H223502   0.849   0.879  11.736 -0.3378  1.1772  1.5063
  671TIP3   OH223503   2.548   2.005   0.312  0.0335 -0.3148  0.2732
  671TIP3    H123504   2.489   1.981   0.241  0.9985  2.4677 -1.6333
  671TIP3    H223505   2.614   1.935   0.313 -0.9950 -1.3360 -0.2780
  672TIP3   OH223506   2.003   3.698  15.923  0.0968  0.0877  0.0340
  672TIP3    H123507   1.979   3.622  15.976  0.1873  0.0849  0.0710
  672TIP3    H223508   2.096   3.711  15.940  0.5228 -0.8837 -1.3500
  673TIP3   OH223509   2.370   6.639  11.263 -0.0844  0.3070  0.2250
  673TIP3    H123510   2.358   6.647  11.168  0.8865 -0.9281 -0.0388
  673TIP3    H223511   2.410   6.552  11.274  0.0450  0.5384  1.7472
  674TIP3   OH223512   3.061   2.658   2.864  0.3102  0.0207  0.4445
  674TIP3    H123513   3.130   2.662   2.930 -0.1545  0.2482  0.9158
  674TIP3    H223514   2.999   2.594   2.897  1.1215 -1.4675 -0.7889
  675TIP3   OH223515   4.252   1.399  11.920  0.4325 -0.4432  0.1811
  675TIP3    H123516   4.159   1.409  11.938  0.2786 -1.2024 -0.1570
  675TIP3    H223517   4.268   1.305  11.928  0.8579 -0.5043 -1.1683
  676TIP3   OH223518   4.961   2.886  12.588  0.1412  0.0018  0.5271
  676TIP3    H123519   4.966   2.833  12.668 -0.7008 -0.8707  0.0196
  676TIP3    H223520   5.019   2.841  12.526  0.7071  0.6156  0.6023
  677TIP3   OH223521   4.979   1.773   0.557 -0.0650  0.1169 -0.3328
  677TIP3    H123522   4.888   1.781   0.527  0.5115  0.1544 -2.1957
  677TIP3    H223523   4.973   1.770   0.653 -2.1627 -1.5672 -0.4466
  678TIP3   OH223524   0.629   5.240  13.439 -0.2176 -0.2506  0.9146
  678TIP3    H123525   0.587   5.291  13.508 -2.9388 -0.2305 -0.6261
  678TIP3    H223526   0.675   5.304  13.385 -0.7519  0.1209  0.9023
  679TIP3   OH223527   6.751   3.112   4.321 -0.6483 -0.0231  0.0102
  679TIP3    H123528   6.792   3.157   4.395  1.0523  0.0629 -0.9326
  679TIP3    H223529   6.733   3.182   4.258 -0.2316 -0.3289 -0.4613
  680TIP3   OH223530   6.528   1.379   1.514  1.1235  0.2739 -0.0807
  680TIP3    H123531   6.521   1.284   1.512  0.8543  0.2732  0.5887
  680TIP3    H223532   6.512   1.403   1.605 -0.8571  1.0957 -0.5813
  681TIP3   OH223533   2.368   4.564   1.908 -0.4144  0.0086 -0.2274
  681TIP3    H123534   2.273   4.577   1.911 -0.5320 -0.9341  0.8486
  681TIP3    H223535   2.383   4.510   1.831 -0.7678  0.0302 -0.3110
  682TIP3   OH223536   1.767   0.033  15.792 -0.2249  0.3148 -0.2205
  682TIP3    H123537   1.795   0.004  15.879 -0.7177 -0.5465 -0.3239
  682TIP3    H223538   1.755   0.127  15.800  2.0910  0.6351 -0.0347
  683TIP3   OH223539   5.282   6.377   2.109 -0.4834  0.0303  0.0101
  683TIP3    H123540   5.372   6.349   2.121 -0.6803 -0.2393  0.9201
  683TIP3    H223541   5.280   6.468   2.136 -0.6273 -0.1674  0.6776
  684TIP3   OH223542   3.149   2.487   3.235  0.4684 -0.6140 -0.0912
  684TIP3    H123543   3.201   2.519   3.162  0.7863 -0.0401  0.3818
  684TIP3    H223544   3.067   2.536   3.230  1.0715  0.5249  0.8109
  685TIP3   OH223545   6.395   2.309  12.655 -0.4886 -0.1673  0.2388
  685TIP3    H123546   6.421   2.356  12.576  0.3098 -0.3696  0.3671
  685TIP3    H223547   6.467   2.248  12.672 -1.1793 -0.9554  0.4615
  686TIP3   OH223548   5.562   1.342   5.687  0.2230  0.3967 -0.0427
  686TIP3    H123549   5.584   1.344   5.593 -1.1156 -0.8365 -0.4122
  686TIP3    H223550   5.639   1.301   5.728 -0.6712 -2.7219 -1.1547
  687TIP3   OH223551   5.643   4.034  14.066  0.4823  0.2323 -0.7532
  687TIP3    H123552   5.669   3.953  14.021  2.7235  0.9545 -0.8872
  687TIP3    H223553   5.718   4.092  14.056 -1.3578  2.6681 -1.3571
  688TIP3   OH223554   1.523   6.545   0.192  0.1716  0.3357 -0.6125
  688TIP3    H123555   1.558   6.496   0.267  2.2171  1.5719 -0.7154
  688TIP3    H223556   1.519   6.480   0.122  1.6129 -0.0416 -0.3862
  689TIP3   OH223557   0.526   3.127   4.268 -0.1468 -0.4661  0.2967
  689TIP3    H123558   0.487   3.131   4.355  0.9457 -1.9153  0.8977
  689TIP3    H223559   0.526   3.034   4.247 -0.0458 -0.1636 -1.1047
  690TIP3   OH223560   3.628   4.220  17.163 -1.0823 -0.2670 -0.2644
  690TIP3    H123561   3.665   4.137  17.130  1.1491  0.5351  0.0038
  690TIP3    H223562   3.535   4.203  17.172 -1.2460 -1.7295 -3.3461
  691TIP3   OH223563   1.461   6.529   0.904  0.4822  0.2052 -0.3491
  691TIP3    H123564   1.425   6.591   0.841 -1.0791  1.4548  1.6682
  691TIP3    H223565   1.393   6.519   0.970  1.5864 -1.9653  0.5680
  692TIP3   OH223566   0.239   4.691  16.887 -0.1660  0.1067  0.3206
  692TIP3    H123567   0.193   4.634  16.950 -1.7181 -1.7464 -2.2704
  692TIP3    H223568   0.319   4.643  16.866  0.3953  0.7676  0.9351
  693TIP3   OH223569   3.375   3.122  13.000  0.7623 -0.2111  0.3772
  693TIP3    H123570   3.451   3.064  13.001  2.2309  1.5898 -0.8518
  693TIP3    H223571   3.409   3.206  12.970 -1.3222  1.2667  1.8694
  694TIP3   OH223572   3.925   6.803   4.163 -0.5602 -0.1917  1.0619
  694TIP3    H123573   3.898   6.712   4.153  1.0041 -0.4331 -2.8285
  694TIP3    H223574   3.997   6.800   4.226  0.3596 -1.9297  0.0016
  695TIP3   OH223575   5.636   5.156   4.245 -0.2786  0.1376 -0.6692
  695TIP3    H123576   5.642   5.145   4.150 -0.4631 -0.7474 -0.5846
  695TIP3    H223577   5.707   5.101   4.279 -2.2391 -2.2372 -0.1526
  696TIP3   OH223578   1.009   3.694   3.842 -0.3340 -0.7021  0.6373
  696TIP3    H123579   1.036   3.711   3.752  0.3613 -1.0688  0.7639
  696TIP3    H223580   1.014   3.779   3.885 -0.5646 -0.5454  0.3595
  697TIP3   OH223581   1.104   0.841   5.371 -0.5335 -0.1122 -0.5083
  697TIP3    H123582   1.110   0.747   5.355 -0.5924 -0.2748  0.3751
  697TIP3    H223583   1.121   0.881   5.286  1.3922 -0.8670 -0.5166
  698TIP3   OH223584   1.636   2.333   5.090 -0.7375 -0.3727 -0.0352
  698TIP3    H123585   1.618   2.391   5.164 -1.3771  0.3583 -0.7561
  698TIP3    H223586   1.570   2.264   5.096 -0.4217 -0.6447  0.4044
  699TIP3   OH223587   5.368   0.061  13.102 -0.4846  0.1311 -0.6706
  699TIP3    H123588   5.299  -0.005  13.091 -0.1094 -0.2981 -0.4670
  699TIP3    H223589   5.321   0.143  13.109 -0.9646 -0.1239 -0.8581
  700TIP3   OH223590   5.074   6.775  14.265  0.1239  0.2130  0.0962
  700TIP3    H123591   5.129   6.804  14.338  0.2442 -0.9615  0.4977
  700TIP3    H223592   4.991   6.753  14.306  0.2269 -0.5535 -0.0910
  701TIP3   OH223593   1.812   4.129   3.421 -0.1203  0.2432 -0.7662
  701TIP3    H123594   1.857   4.045   3.429 -0.2717  0.2147 -0.1821
  701TIP3    H223595   1.729   4.108   3.378 -1.0308 -0.2372  1.0931
  702TIP3   OH223596   5.044   0.982   1.088  0.4175  0.1545  0.6204
  702TIP3    H123597   5.098   1.049   1.046 -0.3574 -0.5104 -1.5914
  702TIP3    H223598   5.097   0.952   1.162  1.5396  1.9260  0.5960
  703TIP3   OH223599   0.532   5.858  14.385  0.1407  0.0523  0.2715
  703TIP3    H123600   0.575   5.936  14.419 -0.2035  1.1422 -1.6582
  703TIP3    H223601   0.442   5.864  14.419 -0.0513  0.8432 -0.3384
  704TIP3   OH223602   4.194   5.826   1.429  0.2486  0.2437 -0.0871
  704TIP3    H123603   4.284   5.861   1.430  0.1572  0.5325  1.5486
  704TIP3    H223604   4.141   5.896   1.466 -0.2759 -0.8112  1.2328
  705TIP3   OH223605   3.892   0.485  17.216 -0.1583 -0.3805  0.1640
  705TIP3    H123606   3.910   0.445  17.131 -0.0226  1.1092 -0.5523
  705TIP3    H223607   3.964   0.548  17.228 -0.8672  0.3276  0.7768
  706TIP3   OH223608   3.094   0.089   3.596 -0.5841  0.4634 -0.1082
  706TIP3    H123609   3.075   0.035   3.672 -0.5264 -0.5558 -0.8087
  706TIP3    H223610   3.151   0.035   3.541  1.4320  2.0955  0.2657
  707TIP3   OH223611   5.932   4.540   3.046  0.0624 -0.3626 -0.2942
  707TIP3    H123612   5.856   4.482   3.051  0.8017 -1.3900 -0.7934
  707TIP3    H223613   5.899   4.619   3.002 -1.2797  0.1917  1.5359
  708TIP3   OH223614   0.633   1.232   2.677  0.3894 -0.4444  0.1443
  708TIP3    H123615   0.567   1.295   2.706  1.4994  1.0452 -0.4375
  708TIP3    H223616   0.696   1.228   2.750  0.9393  0.0431 -0.2927
  709TIP3   OH223617   1.241   6.359  13.998 -0.1628  0.1345 -0.9294
  709TIP3    H123618   1.307   6.420  13.963 -1.4219  1.8835 -0.3920
  709TIP3    H223619   1.201   6.320  13.920  0.3971  0.2981 -1.3048
  710TIP3   OH223620   5.753   3.016   3.124  0.5117  0.4659 -0.4123
  710TIP3    H123621   5.771   2.922   3.119  0.1982  0.4245 -0.8068
  710TIP3    H223622   5.658   3.022   3.120  0.5819  0.8751 -1.7665
  711TIP3   OH223623   3.469   2.067   4.634 -0.4131  0.6985 -0.6043
  711TIP3    H123624   3.563   2.086   4.631 -0.0205 -1.0711 -3.3442
  711TIP3    H223625   3.430   2.130   4.573 -0.7172  0.1753 -0.9546
  712TIP3   OH223626   6.345   3.549  16.950  0.5894 -0.3613  0.1038
  712TIP3    H123627   6.429   3.511  16.921  1.2805  1.2762 -0.1451
  712TIP3    H223628   6.369   3.631  16.992 -0.8373 -0.3323  0.9178
  713TIP3   OH223629   5.091   3.193   5.529 -0.0308  0.4460 -0.1961
  713TIP3    H123630   5.094   3.244   5.448 -1.3555  0.8389 -0.0338
  713TIP3    H223631   5.079   3.259   5.598  0.4533  0.0726  0.2503
  714TIP3   OH223632   2.461   4.694   1.113 -0.1687  0.0074  1.0171
  714TIP3    H123633   2.493   4.613   1.154 -0.1436 -0.6686 -0.2973
  714TIP3    H223634   2.366   4.688   1.120 -0.1848 -0.3480  0.5528
  715TIP3   OH223635   4.055   6.133  16.072  0.3915  0.3044  0.8474
  715TIP3    H123636   4.125   6.173  16.123  0.6805 -0.0622  0.7410
  715TIP3    H223637   4.079   6.148  15.980  0.8116 -0.6370  0.7994
  716TIP3   OH223638   0.768   2.321  14.552  0.5093 -0.0174  0.2516
  716TIP3    H123639   0.802   2.257  14.489  1.3886  0.6670  0.0176
  716TIP3    H223640   0.846   2.367  14.584 -0.1587  1.3487 -0.0298
  717TIP3   OH223641   6.234   5.365  12.304  0.5503 -0.0668 -0.1214
  717TIP3    H123642   6.250   5.326  12.390 -0.5409 -0.7925 -0.2372
  717TIP3    H223643   6.274   5.304  12.242  1.1002  0.3200 -0.1558
  718TIP3   OH223644   0.218   1.058   3.405 -0.1878  0.6218 -0.3102
  718TIP3    H123645   0.220   0.963   3.416 -0.6317  0.4400 -1.5292
  718TIP3    H223646   0.130   1.083   3.434 -0.0011  0.6908  0.1994
  719TIP3   OH223647   1.437   0.846  15.130  0.5178  0.0692 -0.1227
  719TIP3    H123648   1.398   0.933  15.117  1.8365  0.6368 -0.5001
  719TIP3    H223649   1.510   0.844  15.068  0.5440 -1.2976 -0.0672
  720TIP3   OH223650   3.129   0.989   3.941 -0.3178  0.1618  0.0882
  720TIP3    H123651   3.062   0.923   3.959 -0.7361 -0.0023 -1.8362
  720TIP3    H223652   3.113   1.014   3.850  3.0675 -0.8746 -0.9202
  721TIP3   OH223653   1.649   1.320   4.466  0.1592 -0.0521 -0.7495
  721TIP3    H123654   1.687   1.271   4.539 -0.1013  0.2181 -0.4322
  721TIP3    H223655   1.579   1.372   4.505 -0.1081 -0.0477 -1.2237
  722TIP3   OH223656   1.874   6.520  17.242  0.3746  0.1119 -0.1238
  722TIP3    H123657   1.939   6.548  17.178 -0.8598  0.6942 -1.1763
  722TIP3    H223658   1.894   6.428  17.259  1.8823  0.4653  0.1204
  723TIP3   OH223659   2.696   6.489  16.130  0.4425  0.3022 -0.1647
  723TIP3    H123660   2.672   6.539  16.052  1.2857  0.7784 -0.1295
  723TIP3    H223661   2.668   6.399  16.110  2.1356  0.0533 -1.7245
  724TIP3   OH223662   1.999   5.396   5.713  0.0530  0.0387  0.2864
  724TIP3    H123663   2.083   5.438   5.730  0.8068 -0.9908 -0.7136
  724TIP3    H223664   1.952   5.400   5.796 -0.0255  3.0225  0.1891
  725TIP3   OH223665   0.614   2.771  13.075  0.4900 -0.1535  0.1717
  725TIP3    H123666   0.522   2.750  13.059  0.8843 -0.2801 -2.5049
  725TIP3    H223667   0.663   2.710  13.019  2.0679  1.4482 -0.3280
  726TIP3   OH223668   1.504   2.103  15.235 -0.3461 -0.2095  0.4955
  726TIP3    H123669   1.472   2.110  15.145  0.2412 -0.0139  0.2946
  726TIP3    H223670   1.595   2.132  15.230  0.1010 -1.4674  0.9070
  727TIP3   OH223671   6.353   3.793  11.639  0.4480 -0.5640  0.0592
  727TIP3    H123672   6.404   3.872  11.622  1.1356 -1.4572 -2.5806
  727TIP3    H223673   6.415   3.721  11.622 -0.4711 -1.6851  1.2593
  728TIP3   OH223674   5.224   4.876   4.452  0.4530  0.3770 -0.4336
  728TIP3    H123675   5.293   4.942   4.453  0.2397  0.5952  0.9189
  728TIP3    H223676   5.260   4.805   4.399  0.2989  1.9444 -2.8104
  729TIP3   OH223677   4.022   6.761   6.079  0.6237  0.0985  0.4180
  729TIP3    H123678   3.996   6.792   5.992 -0.8832  1.7611  1.3929
  729TIP3    H223679   4.115   6.780   6.085  1.1980 -1.7615 -1.4834
  730TIP3   OH223680   3.827   5.868  12.224 -0.5536 -0.2726 -0.4036
  730TIP3    H123681   3.879   5.906  12.295  1.6548 -1.6158 -1.1722
  730TIP3    H223682   3.739   5.859  12.260 -0.4067  2.4343  0.8691
  731TIP3   OH223683   0.815   2.697  16.007  0.0039 -0.1035 -0.2761
  731TIP3    H123684   0.738   2.730  16.053  0.9688  0.2630  1.1373
  731TIP3    H223685   0.853   2.632  16.066  1.8018  1.0506 -0.0640
  732TIP3   OH223686   5.787   3.703   0.509 -0.7944 -0.6374  0.5342
  732TIP3    H123687   5.792   3.764   0.435 -0.1208  0.9300  1.8107
  732TIP3    H223688   5.805   3.757   0.586  1.2861 -2.6974  1.6157
  733TIP3   OH223689   3.492   6.816   2.693  0.2852 -0.6980  0.1210
  733TIP3    H123690   3.472   6.792   2.784  1.1741  2.3437  1.2584
  733TIP3    H223691   3.420   6.780   2.642 -0.4574 -2.1509  2.0822
  734TIP3   OH223692   4.077   5.241   3.498 -0.3121  0.6476  0.2712
  734TIP3    H123693   4.120   5.184   3.434 -0.4384  0.9364 -0.0758
  734TIP3    H223694   4.126   5.227   3.579  1.0937  1.6954 -0.3411
  735TIP3   OH223695   2.634   5.773   1.026  0.2892  0.5778 -0.1183
  735TIP3    H123696   2.551   5.785   1.071  0.2581 -0.0270 -0.0020
  735TIP3    H223697   2.698   5.758   1.096  0.1888 -0.6600 -0.2609
  736TIP3   OH223698   6.042   3.870   2.503 -0.1762 -0.0571 -0.1102
  736TIP3    H123699   6.131   3.906   2.493  0.5410 -1.2117  1.6300
  736TIP3    H223700   6.054   3.776   2.498 -1.3440 -0.2205  0.0771
  737TIP3   OH223701   0.986   5.076   1.615  0.0525 -0.2605 -0.6064
  737TIP3    H123702   1.017   5.076   1.706 -2.7025 -1.5492  0.4458
  737TIP3    H223703   1.062   5.047   1.564  1.3779 -0.5349  1.4051
  738TIP3   OH223704   0.663   0.275   0.664 -0.0856  0.1739 -0.6720
  738TIP3    H123705   0.717   0.326   0.724  1.4398 -2.1611  0.0322
  738TIP3    H223706   0.573   0.290   0.694  0.4052  1.4180  0.2566
  739TIP3   OH223707   5.052   1.662  15.399 -0.3927 -0.3313  0.0055
  739TIP3    H123708   5.101   1.584  15.426  0.9528 -0.2276 -1.9301
  739TIP3    H223709   4.960   1.637  15.410 -0.1196 -0.1649  4.7393
  740TIP3   OH223710   6.630   3.145  14.570 -0.6417  0.4804  0.2546
  740TIP3    H123711   6.540   3.130  14.599 -0.6730  0.3902  0.1111
  740TIP3    H223712   6.643   3.239  14.582 -0.6639  0.4473  0.5334
  741TIP3   OH223713   3.052   1.186  16.990 -0.1436  0.0914  0.1673
  741TIP3    H123714   3.081   1.161  17.077  0.7026  0.6004  0.0381
  741TIP3    H223715   3.096   1.269  16.972  0.3417 -0.4031 -1.0662
  742TIP3   OH223716   6.557   5.832   2.462  0.3890 -0.0161 -0.1801
  742TIP3    H123717   6.557   5.858   2.370  1.2064  1.4769  0.2171
  742TIP3    H223718   6.610   5.752   2.464 -0.2829 -0.5086 -1.0961
  743TIP3   OH223719   5.819   3.473  15.761  0.3809  0.3855  0.0622
  743TIP3    H123720   5.894   3.533  15.763  0.8938 -0.0991 -2.0325
  743TIP3    H223721   5.845   3.400  15.817  0.0048  1.7546  2.1371
  744TIP3   OH223722   6.686   2.212  14.387  0.2845 -0.4598  0.4574
  744TIP3    H123723   6.743   2.262  14.329  0.0065  0.4834  0.9737
  744TIP3    H223724   6.687   2.123  14.352  1.6987 -0.3500  0.1974
  745TIP3   OH223725   5.761   1.810   0.581  0.3140 -0.9097  0.1121
  745TIP3    H123726   5.713   1.779   0.504 -0.2838 -2.7280  1.1368
  745TIP3    H223727   5.853   1.812   0.553  0.1481 -1.9026 -0.5699
  746TIP3   OH223728   5.614   1.128   2.162  0.2145  0.2459 -0.1481
  746TIP3    H123729   5.597   1.218   2.133  0.1367  0.3079  0.0866
  746TIP3    H223730   5.663   1.138   2.243 -1.8973  0.1249  1.2121
  747TIP3   OH223731   3.309   0.276   3.157  0.1352  0.0094 -0.8321
  747TIP3    H123732   3.382   0.260   3.217 -0.3258  1.0665  0.0714
  747TIP3    H223733   3.342   0.250   3.071  2.3555  2.3389 -0.8280
  748TIP3   OH223734   2.191   0.771  11.566 -0.0245 -1.1529  0.4988
  748TIP3    H123735   2.195   0.823  11.485  0.7747 -1.0443  0.6069
  748TIP3    H223736   2.161   0.685  11.536 -2.7653 -0.3032  0.4942
  749TIP3   OH223737   3.933   2.479   4.874  0.2405  0.0012 -0.3146
  749TIP3    H123738   4.003   2.476   4.810  0.7800 -1.9918  0.2722
  749TIP3    H223739   3.906   2.387   4.883  1.2659 -0.0878  3.4281
  750TIP3   OH223740   2.976   3.760  15.537  0.4504 -0.0886  0.2551
  750TIP3    H123741   2.919   3.684  15.538  0.3979 -0.0474  0.4454
  750TIP3    H223742   3.065   3.724  15.546  0.6116 -0.2825 -1.7054
  751TIP3   OH223743   5.063   4.879  16.902 -0.6269  0.2471 -0.1836
  751TIP3    H123744   4.990   4.877  16.840 -1.0093  0.1146  0.2614
  751TIP3    H223745   5.040   4.812  16.967 -0.3301  0.5220  0.2055
  752TIP3   OH223746   2.972   1.993   4.936 -0.2879  0.2842  0.1166
  752TIP3    H123747   3.061   2.012   4.965  0.7864 -1.3654 -1.8421
  752TIP3    H223748   2.983   1.952   4.850 -2.8844 -0.8243  0.2249
  753TIP3   OH223749   1.170   3.343  12.229  0.0928 -0.1572  0.3047
  753TIP3    H123750   1.262   3.361  12.211 -0.4055  0.8340 -1.5951
  753TIP3    H223751   1.161   3.352  12.323  1.9289 -0.2914  0.5317
  754TIP3   OH223752   6.665   1.984  10.691  0.2528 -0.1869 -0.2306
  754TIP3    H123753   6.692   1.903  10.733  0.9912 -0.7065 -1.6389
  754TIP3    H223754   6.729   1.997  10.621 -0.4239  1.0926 -0.6452
  755TIP3   OH223755   6.433   6.491  13.184 -0.0092  0.2144 -0.3779
  755TIP3    H123756   6.473   6.412  13.147  1.4726  0.2997  0.9182
  755TIP3    H223757   6.433   6.475  13.279 -1.0310  1.1805 -0.1959
  756TIP3   OH223758   0.896   1.789  12.194  0.1730  0.5262 -0.0697
  756TIP3    H123759   0.829   1.815  12.257  0.4429  0.3654  0.2857
  756TIP3    H223760   0.979   1.814  12.236  0.3037  1.4317 -0.8285
  757TIP3   OH223761   2.658   1.033  11.658 -0.3211  0.2306  0.2482
  757TIP3    H123762   2.712   0.970  11.610 -0.6694  0.6188 -0.6734
  757TIP3    H223763   2.678   1.016  11.750 -0.9430 -1.7473  0.0796
  758TIP3   OH223764   2.305   3.708   0.310 -0.3039 -0.0652  0.3409
  758TIP3    H123765   2.277   3.662   0.231 -2.2099  1.9123 -0.2236
  758TIP3    H223766   2.401   3.711   0.303 -0.3997 -0.3709 -1.6432
  759TIP3   OH223767   0.844   1.547  10.814 -0.0079  0.6507 -0.4080
  759TIP3    H123768   0.771   1.491  10.791 -1.1407  1.2689  1.4475
  759TIP3    H223769   0.803   1.624  10.855  1.6853  0.4789  1.7765
  760TIP3   OH223770   5.552   6.613  13.288 -0.1365  0.5832 -0.4475
  760TIP3    H123771   5.607   6.646  13.217 -0.0318  0.2450 -0.5269
  760TIP3    H223772   5.539   6.520  13.267 -0.3353  0.5457 -0.1709
  761TIP3   OH223773   5.457   1.604   1.757 -0.0823  0.3403 -0.4396
  761TIP3    H123774   5.467   1.699   1.763 -0.7000  0.3254  1.5376
  761TIP3    H223775   5.501   1.580   1.675  1.5743  2.1185 -0.1283
  762TIP3   OH223776   5.497   4.408  13.120 -0.3923 -0.4627 -0.5169
  762TIP3    H123777   5.473   4.317  13.101 -1.8419 -0.6930  1.8832
  762TIP3    H223778   5.430   4.460  13.075 -0.3211 -0.6572 -0.8501
  763TIP3   OH223779   5.279   0.194  13.370 -0.3918 -0.2428  0.8029
  763TIP3    H123780   5.214   0.217  13.303  1.3582  0.4672 -0.7139
  763TIP3    H223781   5.252   0.244  13.447 -0.5143  1.6560 -0.4129
  764TIP3   OH223782   1.776   1.617   5.072  0.1401  0.2920 -0.0217
  764TIP3    H123783   1.855   1.574   5.039 -0.5387 -0.8614 -0.1993
  764TIP3    H223784   1.717   1.545   5.095 -1.4831  1.0975 -1.3936
  765TIP3   OH223785   2.258   6.709   2.876 -0.4096  0.1024  0.0933
  765TIP3    H123786   2.291   6.668   2.956  0.5978  0.6895  0.0022
  765TIP3    H223787   2.256   6.802   2.896 -1.3656  0.1376 -0.1550
  766TIP3   OH223788   0.357   5.757  14.934  0.0401 -0.5294 -0.1428
  766TIP3    H123789   0.284   5.800  14.978 -0.5689 -1.0990 -0.5833
  766TIP3    H223790   0.355   5.667  14.964  2.5044  0.1025  2.2993
  767TIP3   OH223791   5.802   5.033  13.962 -0.5023 -0.4685  0.2019
  767TIP3    H123792   5.773   4.947  13.993 -0.6290  0.1229  1.8353
  767TIP3    H223793   5.830   5.018  13.871  0.8210 -2.5311  0.8651
  768TIP3   OH223794   3.140   6.310   2.691  0.2645 -0.1462 -0.2700
  768TIP3    H123795   3.162   6.343   2.604  0.6540  1.5707  0.4530
  768TIP3    H223796   3.224   6.288   2.731  0.0152 -2.3821 -0.8134
  769TIP3   OH223797   3.416   2.133  14.844  0.1294 -0.4875  0.3929
  769TIP3    H123798   3.369   2.153  14.763 -0.3083 -0.5769  0.6258
  769TIP3    H223799   3.460   2.050  14.826  0.6261 -0.1485 -0.0047
  770TIP3   OH223800   1.759   6.664   4.615  0.1272 -0.0728 -0.0253
  770TIP3    H123801   1.671   6.701   4.602  0.5452  0.9858  0.0278
  770TIP3    H223802   1.765   6.594   4.551 -0.3435  0.5987 -0.8347
  771TIP3   OH223803   2.873   4.441  11.819 -0.3921 -0.2076  0.2429
  771TIP3    H123804   2.832   4.360  11.849  0.1205 -1.0017 -1.1217
  771TIP3    H223805   2.825   4.511  11.864 -0.8567 -1.2625  1.4100
  772TIP3   OH223806   5.840   3.601  12.085 -0.0036  0.0474  0.1976
  772TIP3    H123807   5.849   3.694  12.104  1.3764 -0.0766  0.2253
  772TIP3    H223808   5.747   3.583  12.097 -0.4249  1.5804 -0.5517
  773TIP3   OH223809   4.950   0.509   1.883  0.3809 -0.5649  0.1587
  773TIP3    H123810   4.980   0.516   1.793 -1.7353  1.1007 -0.5120
  773TIP3    H223811   4.859   0.480   1.876 -0.1616  0.6183  1.6678
  774TIP3   OH223812   1.925   6.426  10.623  0.2000  0.3194  0.7386
  774TIP3    H123813   1.981   6.352  10.645  0.4728 -0.0802 -1.0941
  774TIP3    H223814   1.838   6.387  10.609  0.2088  0.4213  0.3734
  775TIP3   OH223815   3.819   2.048   4.366 -0.0136  0.0713 -0.4891
  775TIP3    H123816   3.806   2.094   4.449  0.5972  1.1141 -0.9504
  775TIP3    H223817   3.902   2.002   4.377 -0.2602 -0.3320 -0.2921
  776TIP3   OH223818   2.101   2.330  16.471 -0.2574 -0.5584 -0.4924
  776TIP3    H123819   2.016   2.288  16.486 -0.4024 -0.1190 -0.0576
  776TIP3    H223820   2.122   2.309  16.380 -1.3327  0.2193 -0.9404
  777TIP3   OH223821   5.381   3.444   2.967 -0.0404 -0.0949 -0.3915
  777TIP3    H123822   5.372   3.538   2.978 -1.5681 -0.4139  1.7579
  777TIP3    H223823   5.346   3.426   2.880 -0.9519  1.1871 -0.3074
  778TIP3   OH223824   4.413   3.215  11.617  0.4403  0.0774  0.3583
  778TIP3    H123825   4.387   3.219  11.710 -0.3085  0.1128  0.1563
  778TIP3    H223826   4.385   3.128  11.588  2.5539 -0.7669  0.6871
  779TIP3   OH223827   2.117   1.554   5.750  0.5635  0.4858 -0.1874
  779TIP3    H123828   2.124   1.527   5.658 -0.4025  0.8389 -0.3822
  779TIP3    H223829   2.027   1.586   5.758  1.3486  2.7199  0.2707
  780TIP3   OH223830   1.299   2.905   5.053  0.0225 -0.3900  0.3812
  780TIP3    H123831   1.382   2.903   5.100  0.7316  2.4379 -0.5567
  780TIP3    H223832   1.299   2.825   5.001  2.0477 -0.5698  0.5787
  781TIP3   OH223833   5.219   3.763   3.272  0.0270 -0.7194  0.0333
  781TIP3    H123834   5.297   3.806   3.237  0.6666  0.7680  2.9072
  781TIP3    H223835   5.147   3.821   3.249  0.1703 -0.6950 -0.3542
  782TIP3   OH223836   5.035   0.119  15.706  0.3693 -0.5174  0.5718
  782TIP3    H123837   4.966   0.164  15.754  0.6104  1.2686 -0.6825
  782TIP3    H223838   4.989   0.060  15.647 -0.0834  0.2250  0.1705
  783TIP3   OH223839   0.327   4.975   3.393  0.3168  0.6319 -0.0130
  783TIP3    H123840   0.360   4.921   3.321  2.0213 -0.1163  1.2610
  783TIP3    H223841   0.400   4.978   3.455 -0.5211  2.6264  0.9427
  784TIP3   OH223842   2.401   4.203  13.733 -0.0330 -0.2030 -0.3208
  784TIP3    H123843   2.483   4.175  13.692 -0.7445 -0.1134 -1.9134
  784TIP3    H223844   2.410   4.298  13.741 -0.5564  0.0140 -1.9520
  785TIP3   OH223845   2.555   3.008   4.619  0.9252 -0.2584  0.0945
  785TIP3    H123846   2.649   3.021   4.629  0.8784  0.6904 -0.5282
  785TIP3    H223847   2.517   3.041   4.700  1.1656 -1.4542  0.7248
  786TIP3   OH223848   4.681   5.551  13.061  0.5591 -0.1214  0.2375
  786TIP3    H123849   4.733   5.584  13.134 -1.1696 -0.8668  1.8870
  786TIP3    H223850   4.595   5.532  13.099 -0.6944  0.3110 -2.2025
  787TIP3   OH223851   1.723   0.763   4.175  0.2120  0.5351 -0.0083
  787TIP3    H123852   1.699   0.684   4.222  1.7478 -0.2630 -0.5046
  787TIP3    H223853   1.725   0.832   4.242 -1.9602  0.3839  0.2838
  788TIP3   OH223854   1.480   2.622   1.355 -0.1849 -0.0143  0.6843
  788TIP3    H123855   1.441   2.535   1.356  1.3950 -0.7865 -0.9631
  788TIP3    H223856   1.574   2.607   1.362  0.0369  1.6826  2.1732
  789TIP3   OH223857   0.589   0.151   4.035  0.1556  0.1543  0.7748
  789TIP3    H123858   0.562   0.066   4.070 -0.8362  1.0628  2.3591
  789TIP3    H223859   0.584   0.211   4.110 -0.0021  1.7839 -0.4662
  790TIP3   OH223860   3.027   0.580  14.657  0.4124  0.0470 -0.4296
  790TIP3    H123861   3.070   0.621  14.732 -0.7241  1.3868 -0.4689
  790TIP3    H223862   2.935   0.605  14.666 -0.0122 -1.1149 -1.4013
  791TIP3   OH223863   2.113   5.621   3.526 -0.3065 -0.1223  0.2788
  791TIP3    H123864   2.055   5.661   3.591 -1.5197 -1.3805  0.0374
  791TIP3    H223865   2.128   5.689   3.461 -2.0450  0.0716  0.0396
  792TIP3   OH223866   0.783   2.955  14.459 -0.6586  0.2233  0.4837
  792TIP3    H123867   0.764   3.019  14.391 -0.2777  0.4506  0.5916
  792TIP3    H223868   0.861   2.988  14.503  0.0204 -0.7277  0.0201
  793TIP3   OH223869   3.073   1.256  12.921  0.0895 -0.2372  0.3541
  793TIP3    H123870   2.983   1.265  12.889 -0.0923 -2.6341  0.0253
  793TIP3    H223871   3.067   1.193  12.992  1.4233  0.1863  0.8688
  794TIP3   OH223872   4.348   6.459   1.901 -0.3123 -0.5000 -0.2519
  794TIP3    H123873   4.426   6.446   1.954 -1.0149 -0.2179  0.8748
  794TIP3    H223874   4.296   6.379   1.914 -0.5872 -0.3385 -0.3370
  795TIP3   OH223875   2.810   1.243  11.027 -0.1877 -0.3128 -0.1716
  795TIP3    H123876   2.798   1.272  11.117  1.8585 -1.2573  0.4698
  795TIP3    H223877   2.871   1.169  11.034  1.2849  0.5926 -2.4544
  796TIP3   OH223878   2.109   3.454  11.470  0.2991 -0.1850  0.3592
  796TIP3    H123879   2.204   3.443  11.467  0.4128  0.7470  0.3427
  796TIP3    H223880   2.093   3.541  11.434 -0.6760 -0.8564 -0.9027
  797TIP3   OH223881   0.189   2.764  14.530  0.3693 -0.7184 -0.3540
  797TIP3    H123882   0.140   2.830  14.481  2.1015  0.6887 -0.2917
  797TIP3    H223883   0.237   2.714  14.464  0.3999 -0.7761 -0.2891
  798TIP3   OH223884   2.616   6.802  13.345 -0.1136  0.1280  0.1170
  798TIP3    H123885   2.651   6.840  13.264 -0.2218  0.6598  0.3141
  798TIP3    H223886   2.639   6.865  13.413 -0.7000  0.0690  0.3815
  799TIP3   OH223887   4.041   5.745   4.726 -0.6257  0.6975 -0.4970
  799TIP3    H123888   4.119   5.774   4.679 -1.2095  3.3789  0.0369
  799TIP3    H223889   3.986   5.823   4.732 -1.9326 -0.3046  1.9520
  800TIP3   OH223890   0.098   1.082   0.270  0.6593  0.0089  1.1284
  800TIP3    H123891   0.047   1.163   0.261  1.8001  0.6088 -0.5207
  800TIP3    H223892   0.188   1.112   0.281  1.4629 -0.9259 -1.8745
  801TIP3   OH223893   4.415   6.212   4.334 -0.0432 -0.0734 -0.2898
  801TIP3    H123894   4.469   6.284   4.366 -2.2699  0.5274  2.6045
  801TIP3    H223895   4.477   6.143   4.310  2.0536  0.7497  2.3031
  802TIP3   OH223896   0.308   5.345   3.712 -0.0067 -0.1805  0.4865
  802TIP3    H123897   0.402   5.326   3.717  1.0525  2.8118 -3.0790
  802TIP3    H223898   0.279   5.298   3.633 -0.4776  1.9345 -0.6664
  803TIP3   OH223899   2.066   4.789   3.935 -0.0854  0.7340 -0.0786
  803TIP3    H123900   2.016   4.759   3.860  0.6857  1.7783 -1.0392
  803TIP3    H223901   2.144   4.830   3.897  0.8900  0.2539  1.3242
  804TIP3   OH223902   6.411   3.465   4.068  0.0430 -0.6979 -0.3523
  804TIP3    H123903   6.408   3.508   4.153  0.3509 -0.7772 -0.2961
  804TIP3    H223904   6.323   3.473   4.032  0.6814  2.3137 -1.5296
  805TIP3   OH223905   4.588   4.489   6.452 -0.0603  0.8631  0.6568
  805TIP3    H123906   4.539   4.552   6.398 -2.2976  0.0275  1.6022
  805TIP3    H223907   4.646   4.543   6.505 -0.1043  1.9185 -0.3218
  806TIP3   OH223908   0.018   0.033  15.315  0.5890 -0.5941 -0.2164
  806TIP3    H123909   0.103   0.077  15.315  0.2898 -0.0016  0.6169
  806TIP3    H223910   0.009  -0.003  15.403  0.9536 -2.6097 -0.9493
  807TIP3   OH223911   1.507   5.908  15.041  0.1183 -0.3932  0.3445
  807TIP3    H123912   1.520   5.879  15.131  0.9333 -0.5784  0.1804
  807TIP3    H223913   1.474   5.998  15.049  1.0122 -0.0944  0.8283
  808TIP3   OH223914   2.119   4.202  13.581  0.1193  0.6540  0.1204
  808TIP3    H123915   2.092   4.268  13.645 -0.3938 -0.3139  0.9471
  808TIP3    H223916   2.210   4.183  13.603 -0.3084 -0.3062  1.1761
  809TIP3   OH223917   2.560   5.090  15.283  0.2540 -0.0367  0.2621
  809TIP3    H123918   2.603   5.014  15.321  1.9272  0.0003 -1.4074
  809TIP3    H223919   2.534   5.063  15.195 -0.5327  0.8431  0.2039
  810TIP3   OH223920   6.522   4.899  11.250  0.1483  0.1713  0.4126
  810TIP3    H123921   6.577   4.824  11.227  0.3059  0.5495 -0.4759
  810TIP3    H223922   6.543   4.965  11.185  1.3303  1.6746  2.2409
  811TIP3   OH223923   0.293   1.151  12.464  0.3005  0.0494  0.0341
  811TIP3    H123924   0.267   1.129  12.374  0.3663 -0.4115  0.1213
  811TIP3    H223925   0.385   1.126  12.468  1.3367  3.3186 -0.8084
  812TIP3   OH223926   4.074   5.287   0.434 -0.3137  0.1994 -0.4589
  812TIP3    H123927   4.090   5.264   0.525 -1.6639 -0.9961 -0.4852
  812TIP3    H223928   4.036   5.374   0.437  0.0468  0.3378  0.0862
  813TIP3   OH223929   0.157   2.280  13.465  0.1414  0.2972 -0.9494
  813TIP3    H123930   0.072   2.316  13.491 -0.6461 -1.0850 -1.5149
  813TIP3    H223931   0.203   2.354  13.424 -0.2678  1.3869  0.4725
  814TIP3   OH223932   5.757   2.457   5.630 -0.3960  0.0078  0.0495
  814TIP3    H123933   5.664   2.480   5.627 -0.8987 -1.9674 -1.9123
  814TIP3    H223934   5.774   2.438   5.722 -2.0081  0.1287  0.3970
  815TIP3   OH223935   3.014   4.229   5.009  0.0647  0.4164  0.0313
  815TIP3    H123936   2.920   4.225   4.991 -0.0699 -0.5542  0.8293
  815TIP3    H223937   3.040   4.317   4.982 -1.0703  0.6978 -0.2084
  816TIP3   OH223938   5.413   0.826   1.501  0.3504 -0.4906 -0.0290
  816TIP3    H123939   5.494   0.785   1.470 -0.5976 -2.5945  0.1236
  816TIP3    H223940   5.427   0.841   1.594  0.9938  0.3313 -0.2403
  817TIP3   OH223941   5.894   0.043  15.577 -0.0790  0.3314 -0.4882
  817TIP3    H123942   5.944   0.038  15.496  0.9696  1.2946  0.0583
  817TIP3    H223943   5.893   0.137  15.599 -1.3839  0.2260 -0.0199
  818TIP3   OH223944   6.394   4.859   1.441 -1.0752  0.3416 -0.9980
  818TIP3    H123945   6.464   4.887   1.382  0.1775 -1.8400 -0.6391
  818TIP3    H223946   6.438   4.838   1.523 -1.7014 -3.0903 -1.3795
  819TIP3   OH223947   2.895   0.855   2.024  0.0948 -0.2817 -0.1773
  819TIP3    H123948   2.984   0.848   2.059  0.9485 -1.0790 -2.3396
  819TIP3    H223949   2.890   0.946   1.992  1.3832 -1.0579 -2.9340
  820TIP3   OH223950   2.753   4.156  14.300 -0.3626 -0.6276 -0.3019
  820TIP3    H123951   2.681   4.127  14.245 -0.8635 -0.1405  0.0855
  820TIP3    H223952   2.711   4.199  14.374  0.3148 -1.0766  0.3491
  821TIP3   OH223953   3.003   1.484  11.654  0.3274  0.7068 -0.5272
  821TIP3    H123954   2.960   1.568  11.667  0.5606  0.7048  0.3055
  821TIP3    H223955   3.071   1.481  11.721  1.1362  0.3804 -1.3348
  822TIP3   OH223956   6.654   1.993   3.519 -0.3728 -0.2831  0.2969
  822TIP3    H123957   6.566   1.954   3.521 -0.1405 -0.8965 -1.0141
  822TIP3    H223958   6.692   1.964   3.437  1.2736 -0.4493  1.0760
  823TIP3   OH223959   5.769   0.227  12.717  0.2938 -0.6590 -0.1035
  823TIP3    H123960   5.703   0.289  12.746  1.4865  0.3735  0.5053
  823TIP3    H223961   5.721   0.163  12.664 -1.0551  0.4695 -0.2902
  824TIP3   OH223962   6.686   6.525   2.385 -0.1322  0.3126  0.4279
  824TIP3    H123963   6.645   6.446   2.419  0.2483 -0.1332 -0.1265
  824TIP3    H223964   6.616   6.574   2.343 -0.0929 -0.4804 -0.5871
  825TIP3   OH223965   1.548   3.697  14.618 -0.0078  0.1845  0.8124
  825TIP3    H123966   1.524   3.768  14.677  0.5099  1.2285 -0.1724
  825TIP3    H223967   1.515   3.726  14.532 -2.7831 -2.3158  0.8940
  826TIP3   OH223968   5.938   0.735  17.153  0.1119  0.4269 -0.3842
  826TIP3    H123969   5.943   0.822  17.193 -0.1762  0.6814 -0.8944
  826TIP3    H223970   6.014   0.688  17.188 -1.4307 -0.2036  2.4049
  827TIP3   OH223971   6.360   0.723  10.865  0.2765  0.5101 -0.9595
  827TIP3    H123972   6.450   0.706  10.891 -0.4928  1.6326  3.1194
  827TIP3    H223973   6.360   0.814  10.835  0.1942  1.2649  1.2099
  828TIP3   OH223974   4.774   2.092   3.034 -0.1178  0.6864  0.4489
  828TIP3    H123975   4.823   2.010   3.043 -0.7534  0.3779  1.1175
  828TIP3    H223976   4.754   2.118   3.123  0.7270  1.9833  0.2851
  829TIP3   OH223977   2.961   4.024   0.120  0.0029  0.4613 -0.0111
  829TIP3    H123978   2.982   4.117   0.128 -0.6530  0.8733 -2.1964
  829TIP3    H223979   2.931   3.997   0.206 -0.6169  2.5025  0.4483
  830TIP3   OH223980   3.936   5.747  11.493  0.5929  0.2186 -0.4176
  830TIP3    H123981   3.925   5.723  11.584  0.6367  1.3159 -0.1087
  830TIP3    H223982   3.865   5.703  11.447 -0.6961  1.3255  0.4561
  831TIP3   OH223983   6.478   1.539   1.299  0.0577 -0.1294  0.1692
  831TIP3    H123984   6.540   1.495   1.241  1.2715  1.7801 -0.0702
  831TIP3    H223985   6.488   1.494   1.383 -1.0900 -2.3482 -0.7882
  832TIP3   OH223986   3.608   2.832   0.458  0.4829 -0.0562 -0.0882
  832TIP3    H123987   3.602   2.851   0.551 -0.4343 -3.2896  0.6461
  832TIP3    H223988   3.521   2.851   0.423  0.5845  0.3666 -0.1128
  833TIP3   OH223989   0.013   0.377  13.084  0.6592  0.2360 -0.5808
  833TIP3    H123990   0.086   0.389  13.145 -0.8733  0.1819  1.3772
  833TIP3    H223991   0.029   0.440  13.014  1.4940  1.7143  0.8780
  834TIP3   OH223992   6.319   4.108   5.826 -0.6154 -0.2485 -0.3125
  834TIP3    H123993   6.389   4.173   5.823 -1.0073  0.1579 -0.6829
  834TIP3    H223994   6.307   4.091   5.920 -0.2049 -0.1256 -0.2341
  835TIP3   OH223995   5.047   4.111  17.018 -0.0954  0.3798 -0.8934
  835TIP3    H123996   4.962   4.097  16.977  0.0733  0.1589 -1.1735
  835TIP3    H223997   5.076   4.196  16.986 -1.0184  1.3005  0.6214
  836TIP3   OH223998   5.938   3.256  15.875 -0.1469  0.0690  0.0368
  836TIP3    H123999   5.983   3.297  15.950  1.2394  0.4748 -0.9744
  836TIP3    H224000   5.983   3.172  15.864  0.5679  0.5940 -1.1582
  837TIP3   OH224001   0.766   3.128   6.054  0.2130 -0.1489 -0.1015
  837TIP3    H124002   0.797   3.178   5.978  1.5932 -1.1557 -0.2465
  837TIP3    H224003   0.678   3.099   6.030  1.1957 -1.7470 -2.0145
  838TIP3   OH224004   3.397   1.603  11.273 -0.3380  1.0738  0.4078
  838TIP3    H124005   3.459   1.661  11.318  0.8128 -0.2223  0.5415
  838TIP3    H224006   3.317   1.607  11.326  0.3615  1.0551  1.4798
  839TIP3   OH224007   1.547   1.173   5.471  0.0448 -0.3787  0.5500
  839TIP3    H124008   1.488   1.107   5.437  0.1212  0.8339 -2.2339
  839TIP3    H224009   1.634   1.149   5.437  0.4611 -0.0454  1.3420
  840TIP3   OH224010   1.958   3.677   0.887 -0.2811  0.3867 -0.0040
  840TIP3    H124011   1.949   3.645   0.977 -1.1575  1.3094  0.2552
  840TIP3    H224012   1.925   3.605   0.833 -1.9287  0.6774  0.5533
  841TIP3   OH224013   2.347   3.641   1.782 -0.4853  0.1996  0.2946
  841TIP3    H124014   2.255   3.625   1.803 -1.0474  1.7358 -0.8727
  841TIP3    H224015   2.384   3.553   1.772 -1.6319 -0.4652  1.4746
  842TIP3   OH224016   2.072   2.216   2.139 -0.0590  0.6370  0.3828
  842TIP3    H124017   2.040   2.175   2.058  2.9853 -2.6928  0.6303
  842TIP3    H224018   2.095   2.142   2.195  0.4642  2.8463  3.2803
  843TIP3   OH224019   3.371   4.168  17.218  0.8411 -0.3922  0.0730
  843TIP3    H124020   3.291   4.155  17.269  0.8217  0.4617  0.2739
  843TIP3    H224021   3.340   4.201  17.133  0.9956  0.5231  0.3554
  844TIP3   OH224022   1.109   0.173   0.361  0.2613 -0.2407  0.1585
  844TIP3    H124023   1.169   0.162   0.435 -0.6531  0.4949  1.0423
  844TIP3    H224024   1.022   0.158   0.399 -0.2548  0.5899 -0.6637
  845TIP3   OH224025   2.604   1.274  16.227  0.3108  0.2199 -0.5927
  845TIP3    H124026   2.585   1.367  16.226 -0.8869  0.0166 -2.6779
  845TIP3    H224027   2.535   1.235  16.280 -1.1043  0.2391 -2.3280
  846TIP3   OH224028   2.314   3.095   4.444  0.3701  0.0125  0.9068
  846TIP3    H124029   2.265   3.024   4.486  1.7817 -2.1337 -0.8352
  846TIP3    H224030   2.405   3.081   4.473  0.8674  0.2888 -0.4758
  847TIP3   OH224031   2.358   1.047  17.300  0.5370 -0.3647 -0.2380
  847TIP3    H124032   2.430   1.006  17.253  0.3116 -0.9532 -0.0682
  847TIP3    H224033   2.392   1.063  17.388  0.9099  0.6060 -0.5338
  848TIP3   OH224034   6.439   3.533  11.533 -0.0260  0.3850  0.4247
  848TIP3    H124035   6.470   3.472  11.600 -0.3233 -0.0763  0.1424
  848TIP3    H224036   6.489   3.510  11.454  0.4834  1.0692  0.5312
  849TIP3   OH224037   5.513   6.336  13.274 -0.1941  0.0841 -0.1415
  849TIP3    H124038   5.573   6.262  13.286  0.3405  0.3804 -0.9023
  849TIP3    H224039   5.446   6.324  13.342  0.6720 -0.3097  0.6734
  850TIP3   OH224040   0.940   0.717   5.800 -0.0779 -0.0080 -0.2564
  850TIP3    H124041   0.904   0.718   5.712 -1.9252  2.4337  0.4340
  850TIP3    H224042   0.876   0.667   5.851 -0.8666  1.5671  0.3425
  851TIP3   OH224043   4.071   3.226   0.571  0.0984 -0.1665 -0.4542
  851TIP3    H124044   4.005   3.224   0.640 -0.7954 -1.6723 -1.2872
  851TIP3    H224045   4.145   3.178   0.606  0.3156  0.5361  0.0632
  852TIP3   OH224046   2.896   4.809   2.807 -0.4881 -0.0971  0.0319
  852TIP3    H124047   2.852   4.764   2.734  0.3606 -0.6780 -0.1363
  852TIP3    H224048   2.905   4.742   2.874 -2.0167  0.6505  1.0410
  853TIP3   OH224049   5.008   5.196   2.086 -0.0026 -0.4005 -0.5730
  853TIP3    H124050   4.953   5.256   2.135  1.1901 -1.2339  2.0247
  853TIP3    H224051   5.051   5.250   2.020 -0.3540  1.2148  0.4616
  854TIP3   OH224052   3.432   5.356   2.508  0.2519  0.9050  0.0997
  854TIP3    H124053   3.371   5.353   2.434 -0.1950  0.2664  0.4805
  854TIP3    H224054   3.377   5.348   2.586  0.6086  2.7444  0.5795
  855TIP3   OH224055   1.908   0.219  13.968 -0.0358 -0.4757  0.3236
  855TIP3    H124056   1.928   0.253  14.055 -0.2522 -0.1415  0.2440
  855TIP3    H224057   1.848   0.146  13.983 -0.7474  0.1128  0.4091
  856TIP3   OH224058   4.652   2.632  11.194 -0.5104 -0.2625  0.7358
  856TIP3    H124059   4.632   2.708  11.140  0.0802 -0.0788  0.7679
  856TIP3    H224060   4.722   2.587  11.146 -0.5357 -0.5275  0.9494
  857TIP3   OH224061   3.974   4.654   5.430 -0.4497 -0.2262 -0.7810
  857TIP3    H124062   3.930   4.629   5.349 -2.0637 -0.7573  0.2116
  857TIP3    H224063   3.927   4.732   5.460  1.4834  1.2478 -1.3881
  858TIP3   OH224064   2.374   0.986   5.552  0.4994 -0.6955 -0.0199
  858TIP3    H124065   2.449   0.965   5.608  0.4496 -0.9712 -0.0558
  858TIP3    H224066   2.297   0.960   5.604  0.5038 -2.5136 -0.8562
  859TIP3   OH224067   2.961   5.987  15.589 -0.0707 -0.2701 -0.0814
  859TIP3    H124068   2.938   5.993  15.682 -2.2663 -1.5138 -0.4666
  859TIP3    H224069   3.018   5.910  15.584  3.4254  2.0479  0.6883
  860TIP3   OH224070   6.477   4.849   1.005  0.2253  0.3752 -0.1341
  860TIP3    H124071   6.415   4.922   1.003 -1.5318 -1.0190  0.6710
  860TIP3    H224072   6.544   4.876   1.067 -0.4785  1.2400  0.2652
  861TIP3   OH224073   5.259   6.000   2.283 -0.5597  0.3803 -0.0519
  861TIP3    H124074   5.324   5.944   2.325 -0.2044  0.7491 -0.0980
  861TIP3    H224075   5.261   6.081   2.334 -2.1377 -0.1544  0.9409
  862TIP3   OH224076   2.996   2.042   4.434  0.0564  0.3306 -0.1321
  862TIP3    H124077   3.064   2.042   4.367  2.3741  0.2559  2.0457
  862TIP3    H224078   3.004   1.956   4.476 -0.1620  0.9728  1.2912
  863TIP3   OH224079   0.416   1.133   6.486  0.1157 -0.1353 -0.1664
  863TIP3    H124080   0.354   1.204   6.473  0.3738  0.0825 -0.2212
  863TIP3    H224081   0.424   1.091   6.400 -0.9120 -0.9656  0.1170
  864TIP3   OH224082   5.327   0.314  13.648  0.4914 -0.1703 -0.0575
  864TIP3    H124083   5.371   0.384  13.697 -2.9716  1.8294  0.4822
  864TIP3    H224084   5.245   0.352  13.619 -1.5661 -3.9773  0.1146
  865TIP3   OH224085   0.953   1.503  16.787  0.0488  0.4043 -0.0520
  865TIP3    H124086   0.921   1.464  16.705  1.9679  1.2952 -1.3038
  865TIP3    H224087   0.912   1.589  16.790 -2.2634 -0.6602  1.4612
  866TIP3   OH224088   3.189   2.510   1.239 -0.5384 -0.1301 -0.2392
  866TIP3    H124089   3.225   2.532   1.325 -1.5499  3.8141 -0.6262
  866TIP3    H224090   3.095   2.501   1.254 -0.8278  1.3253 -0.9541
  867TIP3   OH224091   2.429   1.174  12.668  0.6089  0.1183 -0.0900
  867TIP3    H124092   2.380   1.094  12.654 -0.5967  0.8112  0.0055
  867TIP3    H224093   2.506   1.166  12.611 -0.3816 -0.3522 -1.4100
  868TIP3   OH224094   5.992   4.402  13.879 -0.3610 -0.1189  0.0082
  868TIP3    H124095   5.928   4.472  13.890 -0.9140 -0.6869  0.4411
  868TIP3    H224096   6.051   4.434  13.811 -0.8831  0.5676 -0.1280
  869TIP3   OH224097   2.752   5.154  12.193 -0.3874  0.1922 -0.2557
  869TIP3    H124098   2.809   5.210  12.246 -1.3761  1.4707 -0.4946
  869TIP3    H224099   2.765   5.066  12.229  0.0485  0.8007  1.1636
  870TIP3   OH224100   1.598   2.996  13.803  0.1231 -0.2559 -0.1422
  870TIP3    H124101   1.525   2.992  13.742  0.4564 -0.5489 -0.5295
  870TIP3    H224102   1.567   3.051  13.875 -0.1912  0.2849 -0.6809
  871TIP3   OH224103   3.211   1.085   0.548 -0.0633 -0.4743  1.0291
  871TIP3    H124104   3.146   1.128   0.493  1.0824 -2.3702 -2.0661
  871TIP3    H224105   3.275   1.050   0.487  1.6108 -2.3846  3.6525
  872TIP3   OH224106   4.038   4.923   6.506 -0.1952 -0.4559  1.1290
  872TIP3    H124107   4.079   4.837   6.489  0.7459 -0.0233  1.1437
  872TIP3    H224108   4.112   4.983   6.514 -0.8834  0.7120 -0.7201
  873TIP3   OH224109   0.606   1.026  15.576  0.0805 -0.1038 -0.5846
  873TIP3    H124110   0.679   1.067  15.530  1.5137 -0.5299  1.1761
  873TIP3    H224111   0.537   1.019  15.510  0.3594  3.4103 -1.4733
  874TIP3   OH224112   4.562   0.105   0.773 -0.5767  0.4819 -0.5982
  874TIP3    H124113   4.592   0.025   0.730  0.0319 -1.1942  2.5995
  874TIP3    H224114   4.608   0.176   0.727  0.9536 -1.2228 -1.8465
  875TIP3   OH224115   6.687   0.168  17.035  0.5843  0.1276  0.5118
  875TIP3    H124116   6.738   0.145  16.957  0.0686  1.5546 -0.2679
  875TIP3    H224117   6.674   0.262  17.029 -2.6859 -0.2382  0.3665
  876TIP3   OH224118   4.985   5.263   3.405 -0.2301 -0.3926 -0.1454
  876TIP3    H124119   5.058   5.321   3.428 -1.4783  1.4675 -0.6144
  876TIP3    H224120   5.006   5.232   3.317 -0.2788  0.6479 -0.5360
  877TIP3   OH224121   0.423   1.470   5.342 -0.3165  0.3339 -0.3022
  877TIP3    H124122   0.504   1.444   5.298 -0.6412 -0.7679 -0.2956
  877TIP3    H224123   0.358   1.473   5.272 -0.5794 -0.2459 -0.0888
  878TIP3   OH224124   3.264   0.363  12.843  0.0349  0.1007  0.5264
  878TIP3    H124125   3.336   0.418  12.813 -1.3404  2.0785  0.6598
  878TIP3    H224126   3.251   0.387  12.934  0.3387 -1.5818  1.0617
  879TIP3   OH224127   2.815   2.473  15.287  0.7539 -0.3839 -0.1526
  879TIP3    H124128   2.825   2.560  15.326  0.0805 -0.0999 -0.6037
  879TIP3    H224129   2.904   2.439  15.282  0.9327 -0.1158  0.9239
  880TIP3   OH224130   4.100   3.328   5.371 -0.0067 -0.5507 -0.4774
  880TIP3    H124131   4.036   3.319   5.441 -1.2756  1.1134 -1.3810
  880TIP3    H224132   4.155   3.402   5.398  2.0749 -2.3749  0.6270
  881TIP3   OH224133   3.799   1.950  14.280  0.1867 -0.0193 -0.5608
  881TIP3    H124134   3.718   1.969  14.327  1.6199  0.0855  2.0317
  881TIP3    H224135   3.810   2.023  14.220 -0.0774  1.5905  1.2745
  882TIP3   OH224136   6.012   6.174   5.120  0.2289 -0.1607 -0.5151
  882TIP3    H124137   6.006   6.098   5.178  2.4098 -0.6171 -0.8175
  882TIP3    H224138   6.026   6.136   5.033 -1.6878  0.5555 -1.1793
  883TIP3   OH224139   2.806   6.012   4.611 -0.4371  0.1805  0.5434
  883TIP3    H124140   2.824   5.933   4.663  1.1789  0.6303  0.7349
  883TIP3    H224141   2.796   5.980   4.522 -1.3885 -0.3980  0.8414
  884TIP3   OH224142   0.808   6.202   5.832  0.0826 -0.2811  0.1224
  884TIP3    H124143   0.887   6.255   5.830  0.2073 -0.2741  2.4911
  884TIP3    H224144   0.771   6.210   5.745  2.3661  0.1954 -0.8643
  885TIP3   OH224145   3.760   4.907  14.462  0.2901 -0.2047  0.1738
  885TIP3    H124146   3.747   4.833  14.403 -0.2167 -0.2869  0.3830
  885TIP3    H224147   3.793   4.977  14.406  3.0525 -1.2581  0.3461
  886TIP3   OH224148   5.513   3.883  14.699 -0.2961 -0.1645  0.3534
  886TIP3    H124149   5.454   3.815  14.730  4.0154 -3.3344  2.6483
  886TIP3    H224150   5.513   3.949  14.769 -0.1392 -0.8366  0.9929
  887TIP3   OH224151   4.629   6.331  15.798  0.5064  0.0096 -0.2730
  887TIP3    H124152   4.654   6.274  15.726  0.4276  0.7263 -0.8812
  887TIP3    H224153   4.652   6.282  15.877  1.3700 -0.4375 -0.7875
  888TIP3   OH224154   2.377   1.998  13.661  0.4881  0.1767 -0.2039
  888TIP3    H124155   2.285   2.019  13.678  0.3610  0.1134 -0.7679
  888TIP3    H224156   2.418   1.997  13.747  0.1606  1.1226 -0.0304
  889TIP3   OH224157   6.022   2.615  13.830  0.2630  0.9539  0.3157
  889TIP3    H124158   6.104   2.613  13.781 -0.1972  0.9395 -0.4771
  889TIP3    H224159   6.049   2.617  13.921  1.1410 -0.5001  0.1177
  890TIP3   OH224160   4.003   4.669   2.114  0.3517  0.4823 -0.3055
  890TIP3    H124161   3.952   4.745   2.086  1.6712  1.1978 -0.8431
  890TIP3    H224162   3.987   4.663   2.208 -1.0693  0.4074 -0.5328
  891TIP3   OH224163   1.743   1.578   5.782  0.1435  0.1150 -0.6241
  891TIP3    H124164   1.826   1.554   5.822  0.1746 -0.6691 -1.1353
  891TIP3    H224165   1.686   1.599   5.855  0.6638  0.2493 -0.2517
  892TIP3   OH224166   2.350   3.950  15.911  0.1643 -0.2780 -0.3244
  892TIP3    H124167   2.405   4.017  15.952  0.8448 -0.2145 -1.2998
  892TIP3    H224168   2.397   3.868  15.926 -0.8019 -0.6014  1.0989
  893TIP3   OH224169   3.717   3.586  17.152  0.3467 -0.2343 -0.2724
  893TIP3    H124170   3.673   3.592  17.237  0.9763 -1.1309  0.1255
  893TIP3    H224171   3.811   3.587  17.173  0.5350  1.1054 -1.0734
  894TIP3   OH224172   1.387   2.533   5.073  0.7714 -0.1059 -0.1843
  894TIP3    H124173   1.318   2.468   5.091  0.7057 -0.1713 -0.6757
  894TIP3    H224174   1.410   2.567   5.160 -0.1159  0.1546 -0.0442
  895TIP3   OH224175   5.632   1.646   2.403 -0.0831  0.1079 -0.1763
  895TIP3    H124176   5.721   1.659   2.369 -0.3026 -0.8755 -1.1903
  895TIP3    H224177   5.581   1.718   2.366  0.0538  0.0180 -0.5457
  896TIP3   OH224178   5.826   4.652   2.811  0.3767 -0.4987 -0.2128
  896TIP3    H124179   5.823   4.744   2.784 -0.3541 -0.7090 -0.8993
  896TIP3    H224180   5.817   4.603   2.729 -1.7863 -1.1737  0.3743
  897TIP3   OH224181   6.479   3.955  15.091 -0.1224  0.1822 -0.1484
  897TIP3    H124182   6.569   3.975  15.115  0.3802 -0.9905 -0.9839
  897TIP3    H224183   6.427   3.985  15.166  1.1606 -0.9738  1.2630
  898TIP3   OH224184   1.209   5.965   0.642  0.1716  0.0364 -0.0158
  898TIP3    H124185   1.211   6.048   0.689 -1.6493 -0.3045  0.7487
  898TIP3    H224186   1.267   5.907   0.692 -0.6758  0.0766  1.0426
  899TIP3   OH224187   2.916   0.644  14.127  0.1436 -0.0235 -0.4922
  899TIP3    H124188   2.993   0.611  14.080 -0.8768 -1.0600 -1.5138
  899TIP3    H224189   2.918   0.600  14.212  0.7874  0.1332 -0.4221
  900TIP3   OH224190   1.054   1.921  12.934  0.0509  0.3663  0.5648
  900TIP3    H124191   1.007   1.843  12.903  0.4713 -0.4086  1.7913
  900TIP3    H224192   1.114   1.887  13.001  1.7341  1.4561 -0.3357
  901TIP3   OH224193   3.968   0.920   3.404 -0.1512 -0.2144  0.0647
  901TIP3    H124194   4.046   0.875   3.437  1.0838  1.7586 -0.0314
  901TIP3    H224195   3.999   0.969   3.328 -2.0058 -1.1645 -1.4223
  902TIP3   OH224196   0.715   4.490  10.486 -0.4504 -0.4747 -0.3721
  902TIP3    H124197   0.794   4.519  10.531  0.0767 -0.2786 -1.4131
  902TIP3    H224198   0.648   4.553  10.512 -0.8406 -1.8070  2.1899
  903TIP3   OH224199   2.532   3.771   2.376  0.0916 -0.6664  0.0664
  903TIP3    H124200   2.476   3.707   2.420 -1.8846  0.9725  0.0843
  903TIP3    H224201   2.473   3.817   2.316  1.3915  1.1725  0.1258
  904TIP3   OH224202   6.330   4.942   2.597  0.2578  0.0181 -0.0126
  904TIP3    H124203   6.296   4.878   2.660 -0.1816 -0.7156 -0.9721
  904TIP3    H224204   6.295   4.913   2.513  0.2236  1.4040 -0.5008
  905TIP3   OH224205   4.978   3.524  13.124  0.4196  0.2409  0.1144
  905TIP3    H124206   4.995   3.564  13.209  2.0581 -1.2447  0.5342
  905TIP3    H224207   4.957   3.598  13.066  0.0181  1.3351  1.6088
  906TIP3   OH224208   0.572   3.670   5.316  0.1146  0.3600  0.4339
  906TIP3    H124209   0.622   3.666   5.398  1.6104  1.7969 -0.3626
  906TIP3    H224210   0.592   3.587   5.272 -1.1924 -0.6968  1.7540
  907TIP3   OH224211   2.911   1.011   3.419 -0.3307 -0.2881 -0.1701
  907TIP3    H124212   3.003   1.040   3.421 -0.2949 -0.4439  0.4363
  907TIP3    H224213   2.891   0.988   3.509 -1.9650  2.8996  0.4184
  908TIP3   OH224214   0.659   6.015   6.404  0.0259 -0.3018  0.2426
  908TIP3    H124215   0.736   6.061   6.437 -0.9185  1.1764  0.4925
  908TIP3    H224216   0.684   5.985   6.316  0.9177  0.0032  0.3824
  909TIP3   OH224217   1.046   0.307   4.142  0.0961  0.6439 -0.1558
  909TIP3    H124218   1.124   0.326   4.195  0.9723  0.9358 -1.4889
  909TIP3    H224219   1.077   0.245   4.077 -0.3008  2.0936 -1.8096
  910TIP3   OH224220   4.991   4.166   4.144  0.4002 -0.0392  0.1579
  910TIP3    H124221   4.917   4.180   4.204  0.6998  0.3302  0.4463
  910TIP3    H224222   5.044   4.100   4.187  0.2055 -0.3531 -0.0815
  911TIP3   OH224223   6.620   1.534  13.127 -0.1160 -0.5867  0.0237
  911TIP3    H124224   6.555   1.486  13.179 -0.0764  0.6000  1.2389
  911TIP3    H224225   6.655   1.599  13.188  0.3008  0.5371 -1.3684
  912TIP3   OH224226   6.040   3.357   3.441 -0.3737  0.0764 -0.7314
  912TIP3    H124227   6.116   3.361   3.383  0.6315 -0.6402  0.4689
  912TIP3    H224228   6.010   3.266   3.436  2.4933 -1.3814  3.0695
  913TIP3   OH224229   5.535   2.325  12.274 -0.3080 -0.0906  0.0162
  913TIP3    H124230   5.474   2.376  12.328 -0.2574  0.8622 -0.8016
  913TIP3    H224231   5.523   2.235  12.304 -1.8765  0.1191  0.1106
  914TIP3   OH224232   5.000   1.386  13.468  0.6504 -0.1798 -0.0438
  914TIP3    H124233   4.934   1.393  13.400  2.0889  1.7614 -1.3559
  914TIP3    H224234   4.966   1.320  13.528 -2.1938  0.3435 -0.9180
  915TIP3   OH224235   2.289   6.138  15.819 -0.1606 -0.2290 -0.4435
  915TIP3    H124236   2.259   6.062  15.769 -0.5877  0.0792 -0.6603
  915TIP3    H224237   2.370   6.109  15.861  1.1696  0.0201 -2.6681
  916TIP3   OH224238   2.280   2.401   4.229  0.2767 -0.3771 -0.8339
  916TIP3    H124239   2.188   2.422   4.213 -0.0251 -1.7464 -1.0339
  916TIP3    H224240   2.310   2.471   4.287 -0.8170  0.2391 -0.9725
  917TIP3   OH224241   3.779   2.539  12.747 -0.1274 -0.7310 -0.0070
  917TIP3    H124242   3.838   2.615  12.752  0.5377 -1.3023  1.3154
  917TIP3    H224243   3.827   2.475  12.695 -0.7704 -0.2090 -1.2906
  918TIP3   OH224244   2.486   0.073  15.521  0.5879 -0.2417  0.5190
  918TIP3    H124245   2.413   0.132  15.540  2.5006  1.5258  3.0459
  918TIP3    H224246   2.472  -0.002  15.580  0.8958  0.1901  1.1488
  919TIP3   OH224247   0.546   0.523  13.266 -0.5137 -0.4494 -0.1112
  919TIP3    H124248   0.460   0.565  13.273 -0.0649  0.4096  0.3770
  919TIP3    H224249   0.527   0.429  13.270 -1.4007 -0.2661  0.3098
  920TIP3   OH224250   3.078   3.616  16.181  0.2954 -0.4373  0.0569
  920TIP3    H124251   2.989   3.591  16.158 -0.7437  1.1002  2.0851
  920TIP3    H224252   3.094   3.573  16.266  0.9490  0.4314  0.3916
  921TIP3   OH224253   1.403   2.197  14.852 -0.0654 -0.4205 -0.2157
  921TIP3    H124254   1.341   2.190  14.925 -2.2165 -1.6457 -2.0205
  921TIP3    H224255   1.483   2.154  14.884 -0.2410  0.7978  2.0454
  922TIP3   OH224256   1.998   4.059  12.670  0.0263 -0.8620 -0.5424
  922TIP3    H124257   1.903   4.053  12.679  0.0954 -0.8255  0.3022
  922TIP3    H224258   2.027   4.095  12.754  0.6385  0.6437 -1.3546
  923TIP3   OH224259   4.645   2.851  11.005  0.4170  0.3505 -0.5278
  923TIP3    H124260   4.616   2.816  10.921  0.8506  0.7567 -0.8538
  923TIP3    H224261   4.567   2.891  11.043 -0.1494 -1.1563 -0.0322
  924TIP3   OH224262   5.178   2.259   2.104 -0.4106 -0.0890  0.0315
  924TIP3    H124263   5.220   2.310   2.173  1.3544 -0.5769 -0.6141
  924TIP3    H224264   5.228   2.281   2.025 -1.1934 -0.9485 -0.7267
  925TIP3   OH224265   2.801   1.218   1.535 -0.1042 -0.1093  0.6942
  925TIP3    H124266   2.851   1.150   1.490  1.0207  1.2645 -0.2434
  925TIP3    H224267   2.751   1.171   1.602  2.4261 -1.5935  1.6715
  926TIP3   OH224268   6.355   4.288  10.898  0.0974  0.0709 -0.5193
  926TIP3    H124269   6.372   4.349  10.827  0.8502  0.9484  0.3733
  926TIP3    H224270   6.286   4.230  10.865  1.2757 -0.3556 -2.4074
  927TIP3   OH224271   3.018   0.672   6.269 -0.2067  0.0984  0.2727
  927TIP3    H124272   3.095   0.628   6.234 -1.1838  0.6295 -2.7711
  927TIP3    H224273   3.046   0.762   6.285  0.0807  0.0260  0.1724
  928TIP3   OH224274   0.828   5.670   0.861  0.3384  1.1676  0.0875
  928TIP3    H124275   0.828   5.739   0.928 -1.0085  1.6745 -0.3952
  928TIP3    H224276   0.919   5.642   0.856  0.4683  1.0317  2.2030
  929TIP3   OH224277   0.955   3.942  15.339  0.1665  0.3141 -0.1407
  929TIP3    H124278   0.914   3.963  15.255 -1.3483  1.4235  0.8228
  929TIP3    H224279   0.929   3.852  15.356  0.9692 -0.1204 -1.1056
  930TIP3   OH224280   5.751   2.554  14.021 -0.0343 -0.2187  0.3798
  930TIP3    H124281   5.792   2.608  14.089 -0.2958  0.8159 -0.2530
  930TIP3    H224282   5.658   2.555  14.043 -0.2685  0.9906 -0.5362
  931TIP3   OH224283   0.369   0.845  12.330  0.3835 -0.0629 -0.1734
  931TIP3    H124284   0.289   0.893  12.310 -0.0626 -0.2856  1.0076
  931TIP3    H224285   0.359   0.818  12.421  2.2547  0.7911  0.3286
  932TIP3   OH224286   0.206   2.909   5.401 -0.1422 -0.2335 -0.3624
  932TIP3    H124287   0.294   2.932   5.370 -0.0094 -0.5192 -0.2032
  932TIP3    H224288   0.214   2.910   5.496 -0.9287  2.1575 -0.2531
  933TIP3   OH224289   6.475   2.823  14.880  0.1722  0.7746  0.4629
  933TIP3    H124290   6.508   2.784  14.961  0.0158  0.5836  0.4345
  933TIP3    H224291   6.551   2.868  14.843 -0.2674  2.8537  1.8837
  934TIP3   OH224292   3.809   5.720   3.621 -0.1847 -0.2141 -0.8014
  934TIP3    H124293   3.878   5.687   3.565 -0.1607 -1.3013 -0.1602
  934TIP3    H224294   3.728   5.685   3.583 -0.2108 -0.5366 -0.4537
  935TIP3   OH224295   2.798   4.439   4.279  0.9440 -0.7832  0.7344
  935TIP3    H124296   2.805   4.366   4.341 -2.1524 -2.7325 -0.9764
  935TIP3    H224297   2.707   4.467   4.284  1.5085  1.4962 -0.3522
  936TIP3   OH224298   0.237   0.371  13.708  0.1361 -0.4629  0.2596
  936TIP3    H124299   0.265   0.460  13.724  0.4449 -0.5374  0.1412
  936TIP3    H224300   0.143   0.378  13.688  0.1780 -0.1586  0.1716
  937TIP3   OH224301   2.178   0.309  16.250  0.4924 -0.2881 -0.0571
  937TIP3    H124302   2.100   0.295  16.304  0.5461 -1.4375 -0.2498
  937TIP3    H224303   2.218   0.222  16.244  0.0187 -0.3820 -2.6695
  938TIP3   OH224304   0.037   0.866  12.019 -0.1188  0.4931  0.1522
  938TIP3    H124305   0.130   0.858  12.039  0.1166  3.3967  0.6681
  938TIP3    H224306   0.032   0.941  11.959 -2.0842  0.0573 -0.2853
  939TIP3   OH224307   5.342   4.211  14.271 -0.2185 -0.2973 -0.2840
  939TIP3    H124308   5.408   4.248  14.330  0.0614 -0.6368 -0.3757
  939TIP3    H224309   5.283   4.283  14.252  1.5751  0.7814 -2.2577
  940TIP3   OH224310   4.834   2.341   0.979 -0.1634 -0.1462 -0.0737
  940TIP3    H124311   4.911   2.311   1.028 -0.1481  1.6295  1.1075
  940TIP3    H224312   4.796   2.408   1.035 -3.1758 -1.6260 -0.1742
  941TIP3   OH224313   5.736   1.900   2.693  0.6947  0.2285  0.2672
  941TIP3    H124314   5.820   1.898   2.645  0.2188  2.5357 -0.8044
  941TIP3    H224315   5.761   1.919   2.783  1.3130  2.1590 -0.2668
  942TIP3   OH224316   2.606   4.541   3.722  0.1473 -0.6677 -0.2271
  942TIP3    H124317   2.655   4.599   3.664  0.1844 -2.5476 -2.2306
  942TIP3    H224318   2.514   4.559   3.703  0.1591 -2.0013 -1.7334
  943TIP3   OH224319   1.776   2.056   0.237  0.0466  0.1548 -0.2758
  943TIP3    H124320   1.805   2.061   0.146 -0.2917 -1.8247 -0.5444
  943TIP3    H224321   1.802   2.140   0.275 -0.7337  1.4668 -2.4367
  944TIP3   OH224322   6.082   0.873   4.425 -0.0806  0.6265 -0.6815
  944TIP3    H124323   6.170   0.906   4.440  0.2209 -0.6751  0.6416
  944TIP3    H224324   6.096   0.784   4.391 -0.8934  0.9419 -1.9291
  945TIP3   OH224325   6.453   3.355   4.934 -0.3487 -0.2463 -0.7570
  945TIP3    H124326   6.500   3.290   4.987 -1.7735 -1.7912 -1.2872
  945TIP3    H224327   6.516   3.382   4.867  0.9242  0.4732  0.6724
  946TIP3   OH224328   3.554   2.931  10.641 -0.4752  0.0362 -0.2757
  946TIP3    H124329   3.479   2.901  10.692 -1.9721  2.3847 -0.9261
  946TIP3    H224330   3.522   2.936  10.551  0.2182  1.6781 -0.4652
  947TIP3   OH224331   1.889   2.450  13.837 -0.5404 -0.4593  0.6925
  947TIP3    H124332   1.971   2.498  13.848 -0.1414 -0.9714  0.0198
  947TIP3    H224333   1.821   2.516  13.850 -0.0137  0.1889  0.2308
  948TIP3   OH224334   0.199   0.217  16.491 -0.0075 -0.2285 -0.2861
  948TIP3    H124335   0.201   0.293  16.433 -2.1248 -1.1620 -1.7052
  948TIP3    H224336   0.238   0.146  16.439 -0.1018 -0.6274  0.1781
  949TIP3   OH224337   2.210   1.728   4.576  0.0535 -0.3280  0.2866
  949TIP3    H124338   2.223   1.671   4.500 -6.4367 -0.8515 -1.0458
  949TIP3    H224339   2.194   1.815   4.537 -0.8009 -0.0365  1.2523
  950TIP3   OH224340   0.197   5.266   4.302 -0.6569  0.1899 -1.2245
  950TIP3    H124341   0.187   5.362   4.298  1.1684  0.3994 -1.5611
  950TIP3    H224342   0.107   5.233   4.304 -1.3296  1.8996 -1.3176
  951TIP3   OH224343   6.500   2.097  12.828  0.2563 -0.4925  0.5061
  951TIP3    H124344   6.490   2.120  12.920 -0.8137 -1.7483  0.7157
  951TIP3    H224345   6.442   2.023  12.814 -0.3060  0.2292 -1.4012
  952TIP3   OH224346   1.622   6.808   4.383 -0.2114 -0.7023 -0.2949
  952TIP3    H124347   1.598   6.795   4.475  2.4611 -0.2388  0.5469
  952TIP3    H224348   1.551   6.767   4.334 -2.5312  0.4195  1.9116
  953TIP3   OH224349   4.631   4.222   6.352  0.2394  0.2318  0.1778
  953TIP3    H124350   4.610   4.158   6.420  1.9330 -0.0278  0.5075
  953TIP3    H224351   4.625   4.307   6.396  0.5779  0.1107  0.4684
  954TIP3   OH224352   3.646   6.209   3.490  0.0410  0.2794 -0.0095
  954TIP3    H124353   3.594   6.289   3.486 -1.6040 -0.7690 -1.1175
  954TIP3    H224354   3.733   6.238   3.516 -0.0954  2.6056 -1.7870
  955TIP3   OH224355   4.965   3.836   5.778  0.9411 -0.0707  0.7441
  955TIP3    H124356   4.989   3.808   5.690  0.3938  0.2083  0.4998
  955TIP3    H224357   4.902   3.772   5.808 -0.9110  1.2693 -0.1226
  956TIP3   OH224358   1.739   3.117  14.172 -0.6241  0.2054 -0.2311
  956TIP3    H124359   1.830   3.136  14.150  0.2036 -0.1349  2.5103
  956TIP3    H224360   1.688   3.160  14.104  1.5905 -0.5965 -2.5339
  957TIP3   OH224361   1.123   2.849   4.087  0.0913 -0.4614 -0.6584
  957TIP3    H124362   1.160   2.762   4.076  0.9511  0.0821 -2.3694
  957TIP3    H224363   1.058   2.857   4.017 -1.1869 -0.2954  0.4914
  958TIP3   OH224364   5.587   5.079  16.524 -0.3150 -0.0940  0.4399
  958TIP3    H124365   5.592   5.118  16.437  0.4136  1.1171  1.0032
  958TIP3    H224366   5.577   4.985  16.508  1.9494 -0.1756 -0.9843
  959TIP3   OH224367   2.756   3.875  15.404 -0.6249  0.0705  0.3783
  959TIP3    H124368   2.731   3.799  15.352 -0.9342  1.1822 -1.1860
  959TIP3    H224369   2.846   3.857  15.432 -0.2579 -0.3758 -0.9929
  960TIP3   OH224370   4.220   6.413  14.920 -0.0599 -0.0804  0.7564
  960TIP3    H124371   4.162   6.339  14.938  1.6178 -1.3500  1.2249
  960TIP3    H224372   4.213   6.468  14.998 -1.2454  0.2355  0.4497
  961TIP3   OH224373   3.995   3.309   4.137  0.2443  0.2566 -0.5802
  961TIP3    H124374   4.025   3.380   4.194  0.2235  0.2659 -0.5816
  961TIP3    H224375   4.047   3.320   4.057  0.6315 -0.0563 -0.3732
  962TIP3   OH224376   0.388   2.428   2.298  0.0427  0.1856  0.2384
  962TIP3    H124377   0.483   2.419   2.304  0.0782  0.7625  0.6251
  962TIP3    H224378   0.375   2.517   2.265 -0.3755  0.4358  1.0486
  963TIP3   OH224379   0.081   5.298   3.260 -0.7317 -0.2373 -0.2447
  963TIP3    H124380  -0.015   5.294   3.252 -0.6738 -1.6725 -0.5111
  963TIP3    H224381   0.111   5.316   3.171 -0.7369 -0.5963 -0.3237
  964TIP3   OH224382   1.118   1.734  13.527 -0.0613 -0.2563 -0.1434
  964TIP3    H124383   1.070   1.736  13.444 -1.5184 -0.1578  0.6784
  964TIP3    H224384   1.151   1.644  13.533 -0.2281 -0.3600 -0.6611
  965TIP3   OH224385   2.195   2.661  12.797  0.0305 -0.2848 -0.0318
  965TIP3    H124386   2.108   2.628  12.775 -0.3555  0.9000 -0.3326
  965TIP3    H224387   2.245   2.650  12.716 -0.1916  0.1576 -0.2337
  966TIP3   OH224388   0.637   2.366  13.583  0.2552 -0.0862 -0.4258
  966TIP3    H124389   0.647   2.272  13.568 -1.3719  0.0147 -2.6087
  966TIP3    H224390   0.651   2.406  13.497 -0.5502  1.5309  0.1457
  967TIP3   OH224391   3.276   4.767  16.291  0.0934  0.5685 -0.1925
  967TIP3    H124392   3.210   4.826  16.327 -0.3881 -1.0759  1.8053
  967TIP3    H224393   3.342   4.760  16.361  0.2769 -0.9940 -0.4948
  968TIP3   OH224394   6.117   3.833  13.270  0.5163 -0.0970  0.0993
  968TIP3    H124395   6.163   3.912  13.296  1.6336 -0.7065  0.0222
  968TIP3    H224396   6.179   3.762  13.285 -0.2812 -0.9088 -0.3087
  969TIP3   OH224397   0.168   1.882   3.134 -0.0755 -0.7217  0.3748
  969TIP3    H124398   0.154   1.799   3.088  0.4945 -0.2215 -0.7393
  969TIP3    H224399   0.180   1.946   3.064  2.8128 -0.2497  1.1939
  970TIP3   OH224400   5.162   5.473  14.135 -0.1965 -0.2082 -0.6088
  970TIP3    H124401   5.235   5.535  14.127 -0.4810  0.4282  1.2633
  970TIP3    H224402   5.167   5.420  14.055  0.8175  1.4043 -1.6742
  971TIP3   OH224403   4.591   0.268  14.516 -0.7635 -0.1734  0.2334
  971TIP3    H124404   4.640   0.201  14.564  2.1944  2.0713  0.6584
  971TIP3    H224405   4.626   0.264  14.427 -0.4534  0.8378  0.2949
  972TIP3   OH224406   0.326   0.467   5.372  0.1648  0.3246 -0.0495
  972TIP3    H124407   0.305   0.475   5.465  1.6824  2.1366  0.1920
  972TIP3    H224408   0.406   0.414   5.370  0.9013  1.4127 -0.1868
  973TIP3   OH224409   3.845   4.255   4.716 -0.2092  0.5438 -0.0182
  973TIP3    H124410   3.861   4.346   4.690 -0.1029  0.3510 -0.6473
  973TIP3    H224411   3.904   4.203   4.662  0.2398  0.1379  0.8390
  974TIP3   OH224412   4.464   0.466  14.384  0.5201 -0.3877  0.1848
  974TIP3    H124413   4.390   0.422  14.343 -0.1761  0.9601 -0.0840
  974TIP3    H224414   4.510   0.397  14.432 -0.6210 -1.3495 -0.0565
  975TIP3   OH224415   5.829   2.557   1.846 -0.8544 -0.3071 -0.3197
  975TIP3    H124416   5.889   2.568   1.773 -1.2255 -1.0175 -0.7515
  975TIP3    H224417   5.885   2.552   1.923 -0.2938 -1.6317 -0.7853
  976TIP3   OH224418   0.535   2.384   0.778  0.2006  0.5065  0.6041
  976TIP3    H124419   0.449   2.423   0.765  0.4662  0.3211 -2.2975
  976TIP3    H224420   0.517   2.293   0.802 -0.4124  0.6445  0.6685
  977TIP3   OH224421   6.734   6.079   5.611  0.4225 -0.5927 -0.0461
  977TIP3    H124422   6.680   6.147   5.652 -1.9419 -1.3224 -1.7490
  977TIP3    H224423   6.810   6.126   5.578  2.0235  0.1883  4.0759
  978TIP3   OH224424   4.981   5.459  15.830  0.2656  0.2727 -0.1971
  978TIP3    H124425   5.010   5.549  15.817  1.2510  0.0893  0.6131
  978TIP3    H224426   4.887   5.461  15.813  0.8098  0.6882 -3.9536
  979TIP3   OH224427   3.024   6.658  15.967  0.0553 -0.4233  0.0773
  979TIP3    H124428   3.081   6.619  15.901 -1.3369  0.3837 -1.6850
  979TIP3    H224429   2.988   6.583  16.014  2.5708 -0.9534  1.3313
  980TIP3   OH224430   0.286   0.146   5.308 -0.3542 -0.3833  0.4047
  980TIP3    H124431   0.256   0.083   5.375 -0.4419  0.3910  1.1123
  980TIP3    H224432   0.234   0.126   5.231 -0.3173 -1.2389  0.5905
  981TIP3   OH224433   2.901   5.595  15.715  0.1528  0.1223  0.0603
  981TIP3    H124434   2.815   5.554  15.711 -0.6179  1.5743  0.9932
  981TIP3    H224435   2.956   5.530  15.760 -0.1674 -1.2276 -1.4214
  982TIP3   OH224436   2.896   6.242   5.209 -0.0200  0.0854 -0.2323
  982TIP3    H124437   2.977   6.275   5.169  0.1984  1.0749  0.9571
  982TIP3    H224438   2.861   6.180   5.145  1.5477 -0.1746 -0.8766
  983TIP3   OH224439   1.913   6.374   0.725  0.0381  0.4814 -0.7286
  983TIP3    H124440   1.919   6.355   0.631 -0.8076  0.7539 -0.8527
  983TIP3    H224441   1.827   6.416   0.735  0.2260  0.6809  0.1298
  984TIP3   OH224442   5.911   1.265  13.825  0.4236  0.1175 -0.5300
  984TIP3    H124443   5.968   1.207  13.876 -0.7229  1.7467  2.8751
  984TIP3    H224444   5.963   1.344  13.813 -0.0702  0.5332  0.0349
  985TIP3   OH224445   3.262   3.989   5.162  0.5838 -0.2513 -0.1775
  985TIP3    H124446   3.202   4.048   5.206 -1.0706 -0.5164 -1.9195
  985TIP3    H224447   3.271   3.914   5.221 -1.1796 -0.3899 -0.0296
  986TIP3   OH224448   1.793   5.672   2.379  0.4931 -0.3778 -0.4832
  986TIP3    H124449   1.767   5.658   2.470  1.5986 -0.4565 -0.1639
  986TIP3    H224450   1.853   5.746   2.382  1.8262 -1.3958 -0.8989
  987TIP3   OH224451   6.591   3.920  14.336 -0.1372  0.0868 -0.6371
  987TIP3    H124452   6.573   3.952  14.424  2.3445  0.2912 -0.1438
  987TIP3    H224453   6.532   3.845  14.325  0.9012 -1.2540  2.0032
  988TIP3   OH224454   5.153   2.175   5.152  0.0234 -0.2658  0.5190
  988TIP3    H124455   5.093   2.157   5.080  1.3656  2.2714 -1.3705
  988TIP3    H224456   5.235   2.132   5.127  0.7858  1.4345  0.0011
  989TIP3   OH224457   6.266   6.046   2.274  0.5997 -0.8745 -0.1655
  989TIP3    H124458   6.241   6.044   2.181  1.1616 -2.4420 -0.3122
  989TIP3    H224459   6.346   5.994   2.278  0.1993 -1.4085  1.3192
  990TIP3   OH224460   1.826   4.728  14.190 -0.0319  0.3970  0.0943
  990TIP3    H124461   1.773   4.794  14.233  0.3601  1.1530 -0.5700
  990TIP3    H224462   1.836   4.759  14.100 -1.3847 -1.4615 -0.7920
  991TIP3   OH224463   3.238   5.274  12.508 -0.3239  0.4363  0.4104
  991TIP3    H124464   3.309   5.240  12.455  0.0374  0.9080  0.5846
  991TIP3    H224465   3.201   5.346  12.457 -2.0445 -1.1134 -0.6292
  992TIP3   OH224466   4.360   1.218  14.280  0.1486 -0.0850 -0.3395
  992TIP3    H124467   4.382   1.133  14.319  1.7194  1.1380  1.6025
  992TIP3    H224468   4.369   1.281  14.352 -0.1765  1.8442 -1.9030
  993TIP3   OH224469   4.809   5.905  13.150 -0.2216 -0.3103  0.0021
  993TIP3    H124470   4.777   5.835  13.205 -1.9812 -0.8654 -1.6068
  993TIP3    H224471   4.841   5.861  13.071 -1.3500  0.6375 -1.0302
  994TIP3   OH224472   1.513   4.794   2.940  0.3631  0.2819  0.7196
  994TIP3    H124473   1.421   4.817   2.953  0.2213  0.8574 -1.0450
  994TIP3    H224474   1.517   4.700   2.956 -1.0003 -0.1787 -1.3296
  995TIP3   OH224475   2.056   2.713  16.681 -0.0125  0.2079  0.1328
  995TIP3    H124476   2.036   2.806  16.671  0.6114  0.4238  0.7754
  995TIP3    H224477   2.081   2.704  16.773  0.7282 -0.4317 -0.1211
  996TIP3   OH224478   2.890   2.510  17.255 -0.7356 -0.7459  0.2337
  996TIP3    H124479   2.976   2.541  17.225  0.3291 -1.7139  2.0745
  996TIP3    H224480   2.891   2.525  17.350 -1.3607 -3.4950  0.7618
  997TIP3   OH224481   1.628   2.058   3.998  0.7670 -0.4452  0.2708
  997TIP3    H124482   1.700   2.008   3.959 -0.5131 -0.3865 -2.3743
  997TIP3    H224483   1.594   2.112   3.926 -2.6609 -1.3523  1.0148
  998TIP3   OH224484   3.644   2.179  11.303 -0.1309 -0.0265 -0.2654
  998TIP3    H124485   3.735   2.197  11.280 -0.6126 -0.1909 -2.5497
  998TIP3    H224486   3.627   2.092  11.268 -1.2326  0.0855 -0.0509
  999TIP3   OH224487   5.816   0.588  12.754  0.4027  0.6689  0.4769
  999TIP3    H124488   5.869   0.589  12.834 -0.8622  2.5305  1.3775
  999TIP3    H224489   5.861   0.649  12.695  0.5303  0.4555  0.3570
 1000TIP3   OH224490   2.379   4.814   6.511  0.3579  0.8793  0.1619
 1000TIP3    H124491   2.353   4.737   6.561 -0.3820  1.9204  1.4610
 1000TIP3    H224492   2.301   4.837   6.460 -0.2190  2.0258  1.4815
 1001TIP3   OH224493   5.294   1.613  13.065 -0.3987  0.0546 -0.3401
 1001TIP3    H124494   5.256   1.576  12.985 -2.0766 -0.7621  0.7914
 1001TIP3    H224495   5.231   1.594  13.134  0.9507  0.8268  1.2014
 1002TIP3   OH224496   3.106   4.673  16.836  0.0685 -0.0294 -0.1481
 1002TIP3    H124497   3.101   4.697  16.929  1.3202  0.8130 -0.2879
 1002TIP3    H224498   3.014   4.670  16.808 -0.4263 -1.4787  1.3913
 1003TIP3   OH224499   3.220   3.346   5.232 -0.6489 -0.0039 -0.0032
 1003TIP3    H124500   3.306   3.362   5.270 -1.2669 -0.2865  1.5999
 1003TIP3    H224501   3.158   3.371   5.301 -1.9699  2.5590 -1.9459
 1004TIP3   OH224502   6.749   3.837  14.958 -0.1084 -0.3108 -0.0752
 1004TIP3    H124503   6.794   3.882  14.887  0.8006 -0.0417  0.6503
 1004TIP3    H224504   6.661   3.820  14.924  0.8721 -1.9400 -1.9864
 1005TIP3   OH224505   3.771   6.552  13.875  0.0742 -0.2517 -0.5984
 1005TIP3    H124506   3.798   6.638  13.845  0.6000 -0.4267 -0.6375
 1005TIP3    H224507   3.677   6.549  13.858  0.0426  0.3368 -0.5328
 1006TIP3   OH224508   0.902   6.139   2.321 -0.2737 -0.6087  0.3839
 1006TIP3    H124509   0.836   6.166   2.257  1.4480  1.4413 -0.6334
 1006TIP3    H224510   0.954   6.073   2.275  1.4698  1.4482 -0.7426
 1007TIP3   OH224511   6.716   0.554  16.210 -0.0814 -0.0920 -0.3410
 1007TIP3    H124512   6.654   0.579  16.279 -1.3034  1.5192 -1.9199
 1007TIP3    H224513   6.760   0.476  16.245 -1.0950  0.2667  1.9600
 1008TIP3   OH224514   0.514   2.188  16.344  0.0140 -0.0378 -0.1227
 1008TIP3    H124515   0.441   2.237  16.383  0.1167 -1.4037  2.0080
 1008TIP3    H224516   0.478   2.151  16.264 -1.4890 -0.1816  0.5728
 1009TIP3   OH224517   5.192   4.724  15.271  0.3429 -0.1696  0.4529
 1009TIP3    H124518   5.257   4.758  15.209  0.5629 -1.2487  0.0785
 1009TIP3    H224519   5.160   4.644  15.230 -0.4929 -0.1839  1.1212
 1010TIP3   OH224520   3.069   4.442  11.433 -0.2693 -0.2985  0.2761
 1010TIP3    H124521   3.114   4.469  11.513  1.4839  0.8976 -1.0463
 1010TIP3    H224522   3.052   4.349  11.446 -0.1223 -0.1216  2.0630
 1011TIP3   OH224523   4.743   4.034  15.962 -0.2584 -0.0345 -0.0390
 1011TIP3    H124524   4.721   3.943  15.982 -0.7618  0.1509  0.2566
 1011TIP3    H224525   4.756   4.076  16.047 -1.1974  0.4562 -0.1246
 1012TIP3   OH224526   1.191   2.280  15.606 -0.1380 -0.1564  0.3973
 1012TIP3    H124527   1.241   2.207  15.568  0.8459  0.1757  1.0174
 1012TIP3    H224528   1.187   2.261  15.699 -1.1664 -0.1588  0.3625
 1013TIP3   OH224529   3.098   6.152   3.296 -0.1703 -0.0224 -0.3120
 1013TIP3    H124530   3.021   6.115   3.340 -0.6418  0.3659 -0.7908
 1013TIP3    H224531   3.126   6.083   3.236  0.4000 -0.5068  0.4828
 1014TIP3   OH224532   5.807   6.671   1.571  0.5891 -0.1851 -0.6582
 1014TIP3    H124533   5.849   6.585   1.571  1.0643 -0.0029  1.5096
 1014TIP3    H224534   5.803   6.696   1.478 -0.0124 -2.7190 -1.3836
 1015TIP3   OH224535   4.047   4.105  12.033  0.9391 -0.5644 -0.1944
 1015TIP3    H124536   3.976   4.088  12.094  2.7206 -0.3645  2.0475
 1015TIP3    H224537   4.028   4.192  11.997 -0.3761 -0.8908 -0.3513
 1016TIP3   OH224538   2.699   2.665   0.625 -0.3198 -0.1786  0.0460
 1016TIP3    H124539   2.705   2.740   0.565 -0.7723 -0.3337 -0.1962
 1016TIP3    H224540   2.681   2.590   0.567 -0.9183 -0.3039  0.3925
 1017TIP3   OH224541   0.447   1.316  13.844  0.1055  0.2321  0.4958
 1017TIP3    H124542   0.464   1.226  13.817 -0.8912  0.1010  0.2404
 1017TIP3    H224543   0.381   1.347  13.782 -1.1676  0.4052  1.8643
 1018TIP3   OH224544   3.611   4.489  14.714 -0.6270  0.3274  0.4093
 1018TIP3    H124545   3.633   4.499  14.807  1.1402 -0.7070  0.1503
 1018TIP3    H224546   3.560   4.408  14.711  0.4639 -0.3886  0.3617
 1019TIP3   OH224547   5.732   6.674   0.240 -0.7462 -0.2931  0.3401
 1019TIP3    H124548   5.667   6.735   0.275  0.1229  0.0056  1.5229
 1019TIP3    H224549   5.700   6.587   0.264 -1.7285 -0.2881 -0.8954
 1020TIP3   OH224550   2.663   1.006  13.255  0.2162 -0.6954  0.6952
 1020TIP3    H124551   2.660   1.099  13.232 -0.1211 -0.8686 -0.0139
 1020TIP3    H224552   2.607   0.964  13.189  1.6696 -1.6026 -0.0144
 1021TIP3   OH224553   2.638   0.768   3.671  0.5289  0.0886 -1.1684
 1021TIP3    H124554   2.648   0.682   3.710 -1.7428  0.3876  0.2313
 1021TIP3    H224555   2.681   0.761   3.586  0.0711 -2.5482 -1.2546
 1022TIP3   OH224556   5.589   2.088   0.685  0.1843  0.2472  0.0630
 1022TIP3    H124557   5.568   2.100   0.778  1.5848 -0.9378  0.5653
 1022TIP3    H224558   5.551   2.165   0.642  0.2720  1.2810  1.7353
 1023TIP3   OH224559   3.223   4.986  14.259  0.2680 -0.0912  0.0180
 1023TIP3    H124560   3.262   4.905  14.227 -0.4520 -0.5904  0.3689
 1023TIP3    H224561   3.286   5.054  14.236  0.5932 -0.6679 -0.8373
 1024TIP3   OH224562   6.069   3.514   3.671  0.1507  0.2683  0.3379
 1024TIP3    H124563   6.051   3.465   3.591  0.3692  0.1259  0.3743
 1024TIP3    H224564   6.086   3.446   3.737 -0.1597  0.3782  0.5388
 1025TIP3   OH224565   0.183   5.920  12.170 -0.1900  0.8540 -0.2535
 1025TIP3    H124566   0.125   5.895  12.098 -0.3902 -0.5066  0.3557
 1025TIP3    H224567   0.136   5.989  12.217 -1.2829 -0.1513  0.1674
 1026TIP3   OH224568   3.427   2.333   6.492  0.1554 -0.5914 -0.6057
 1026TIP3    H124569   3.432   2.265   6.560  2.4879 -0.6943 -0.8079
 1026TIP3    H224570   3.476   2.297   6.419 -1.0465  0.1615 -1.8208
 1027TIP3   OH224571   2.112   5.177  16.218  0.2041 -0.2148  0.0009
 1027TIP3    H124572   2.066   5.093  16.219  0.2295 -0.2285 -0.0023
 1027TIP3    H224573   2.105   5.207  16.127 -0.4419  0.1335  0.1577
 1028TIP3   OH224574   3.489   5.089  11.620 -0.5061 -0.5075  0.8410
 1028TIP3    H124575   3.494   5.008  11.569 -0.6313  0.4204 -0.6761
 1028TIP3    H224576   3.477   5.158  11.556  1.1140  0.9144  1.9618
 1029TIP3   OH224577   6.544   5.726   2.801 -0.8122  0.0277 -0.6508
 1029TIP3    H124578   6.563   5.640   2.762 -0.2396 -0.3420  0.3811
 1029TIP3    H224579   6.492   5.772   2.735 -1.0285 -1.0713 -1.2726
 1030TIP3   OH224580   4.362   3.720  12.959 -0.3412  0.4025  0.1115
 1030TIP3    H124581   4.426   3.763  13.015  0.5442  0.2370 -0.7411
 1030TIP3    H224582   4.414   3.682  12.888 -1.1932 -1.2534  0.3319
 1031TIP3   OH224583   5.219   1.173   1.008 -0.0858  0.4109 -0.0534
 1031TIP3    H124584   5.311   1.187   1.032 -0.2727  0.2404  0.8236
 1031TIP3    H224585   5.222   1.143   0.918  0.7290  0.3580 -0.0179
 1032TIP3   OH224586   1.620   6.588  12.968  0.3794 -0.5998  0.0654
 1032TIP3    H124587   1.684   6.518  12.960  1.7210  0.5446  0.3972
 1032TIP3    H224588   1.659   6.662  12.922 -0.2483  0.4148  1.1054
 1033TIP3   OH224589   0.788   5.482  14.962  0.6069 -0.3242 -0.1625
 1033TIP3    H124590   0.786   5.388  14.980 -0.9927 -0.9446 -3.0006
 1033TIP3    H224591   0.881   5.505  14.968  1.2302 -2.4088 -0.8250
 1034TIP3   OH224592   6.759   4.965  14.594 -0.2738  0.3578  0.2936
 1034TIP3    H124593   6.712   4.948  14.513 -0.6121 -0.1844  0.5948
 1034TIP3    H224594   6.852   4.960  14.570 -0.3499  1.6650 -0.3487
 1035TIP3   OH224595   3.420   6.822  12.556  0.1416  0.2859 -0.3070
 1035TIP3    H124596   3.456   6.866  12.633 -0.9302  2.8439 -1.1701
 1035TIP3    H224597   3.389   6.893  12.499 -2.6209 -1.5878 -1.3769
 1036TIP3   OH224598   5.539   3.325   5.734 -1.2381 -0.4548 -0.1168
 1036TIP3    H124599   5.501   3.362   5.813 -0.5370 -0.4801  0.2428
 1036TIP3    H224600   5.577   3.242   5.763  1.2371  0.6596  0.1135
 1037TIP3   OH224601   0.784   6.003  16.519 -0.1980 -0.2746 -0.0430
 1037TIP3    H124602   0.826   6.089  16.509  1.5790 -1.0264  0.5965
 1037TIP3    H224603   0.690   6.022  16.520  0.1636  2.0297  3.0926
 1038TIP3   OH224604   0.468   6.626  16.988  0.0247 -0.1862  0.4009
 1038TIP3    H124605   0.536   6.685  16.956 -0.5390  0.2693  0.0134
 1038TIP3    H224606   0.515   6.557  17.035  0.6458  1.3751  2.2192
 1039TIP3   OH224607   4.071   6.727  12.694 -0.3388 -0.5645 -0.0432
 1039TIP3    H124608   3.979   6.701  12.700 -0.6599  0.3958 -0.5775
 1039TIP3    H224609   4.085   6.744  12.601 -0.2995  1.6116  0.3193
 1040TIP3   OH224610   4.761   0.625   6.114 -0.5182  0.1369 -0.3247
 1040TIP3    H124611   4.831   0.562   6.094 -1.3912 -0.5390 -1.3217
 1040TIP3    H224612   4.716   0.586   6.189 -0.2638  0.2252 -0.1235
 1041TIP3   OH224613   5.113   3.007   2.812 -0.0028 -0.0986 -0.2444
 1041TIP3    H124614   5.096   3.080   2.871  0.3153  0.0312 -0.3080
 1041TIP3    H224615   5.027   2.982   2.779 -0.1428  0.0717 -0.0141
 1042TIP3   OH224616   3.074   6.013   6.302 -0.5276  0.1777 -0.0642
 1042TIP3    H124617   3.046   5.978   6.387 -1.0351  1.8021  0.4703
 1042TIP3    H224618   2.993   6.025   6.253 -0.3265  0.2763 -0.3781
 1043TIP3   OH224619   2.347   1.267  10.801 -0.2987 -0.4515  0.3211
 1043TIP3    H124620   2.315   1.185  10.838  0.4053 -1.3679 -1.0282
 1043TIP3    H224621   2.310   1.269  10.712 -0.3219  0.7015  0.3453
 1044TIP3   OH224622   6.169   1.616   5.145 -0.1499  0.7308  0.0953
 1044TIP3    H124623   6.128   1.531   5.162  0.3903  0.5153  0.3286
 1044TIP3    H224624   6.236   1.625   5.213  0.2363  1.0500 -0.3194
 1045TIP3   OH224625   4.920   1.490   2.228  0.2526 -0.2440  0.1707
 1045TIP3    H124626   4.979   1.467   2.157  0.1897 -1.3425  0.4507
 1045TIP3    H224627   4.845   1.532   2.186  0.2412 -0.8355 -0.4064
 1046TIP3   OH224628   6.798   3.202   0.346  0.7411 -0.4676  0.2081
 1046TIP3    H124629   6.711   3.171   0.322  0.8009  0.3265 -1.0828
 1046TIP3    H224630   6.789   3.297   0.352  1.5273 -0.3781  0.0639
 1047TIP3   OH224631   4.694   0.407   1.794 -0.1207  0.0162  0.1554
 1047TIP3    H124632   4.614   0.434   1.749  1.1586  3.9386 -0.1644
 1047TIP3    H224633   4.693   0.312   1.790 -3.7240 -0.0407 -1.5949
 1048TIP3   OH224634   5.914   0.410  12.557 -0.1275  0.1751  0.3222
 1048TIP3    H124635   5.943   0.476  12.619  0.7530 -0.4835  0.6389
 1048TIP3    H224636   5.832   0.377  12.593 -0.3564  0.7983  0.3779
 1049TIP3   OH224637   2.204   5.900  11.805  0.1038  0.4111 -0.2613
 1049TIP3    H124638   2.268   5.877  11.738  0.6972  1.0701  0.0577
 1049TIP3    H224639   2.257   5.918  11.883 -0.5706 -0.3833  0.4101
 1050TIP3   OH224640   1.627   3.131  15.200  0.1538 -0.0000  0.2246
 1050TIP3    H124641   1.562   3.201  15.199 -0.9483 -0.9586  1.1128
 1050TIP3    H224642   1.625   3.094  15.112 -0.7736 -0.2551  0.3507
 1051TIP3   OH224643   2.030   1.302   2.215  0.2529 -0.1241  0.0916
 1051TIP3    H124644   2.030   1.236   2.146  1.3764 -0.1388  0.0800
 1051TIP3    H224645   1.953   1.282   2.268  0.7131 -1.6025  0.2328
 1052TIP3   OH224646   0.332   0.171  12.122 -0.0365 -0.0011  0.2771
 1052TIP3    H124647   0.274   0.102  12.155  2.7577 -1.6468  2.2472
 1052TIP3    H224648   0.312   0.178  12.029 -0.5442 -3.4351  0.0177
 1053TIP3   OH224649   6.222   3.267   4.772  0.0302  0.0288 -0.2749
 1053TIP3    H124650   6.296   3.283   4.831 -0.1228 -0.2973  0.0089
 1053TIP3    H224651   6.152   3.235   4.829 -0.3754  0.4615 -0.5226
 1054TIP3   OH224652   2.152   4.089   3.863  0.1259 -0.3088 -0.3763
 1054TIP3    H124653   2.166   4.046   3.948 -0.6629  0.0845 -0.0378
 1054TIP3    H224654   2.057   4.091   3.853  0.1739  0.7519 -0.6986
 1055TIP3   OH224655   2.630   6.734   5.335  0.3199 -0.0531  0.1639
 1055TIP3    H124656   2.581   6.811   5.308 -0.6316 -0.2202  1.3202
 1055TIP3    H224657   2.692   6.767   5.401  3.5829  0.6095 -2.8904
 1056TIP3   OH224658   6.360   6.466  12.042  0.8847  0.0925 -0.0108
 1056TIP3    H124659   6.349   6.382  11.996  1.6407 -0.8718  1.5093
 1056TIP3    H224660   6.394   6.442  12.128 -0.1204  1.8759  0.9316
 1057TIP3   OH224661   2.076   5.512   4.881  0.3011  0.0219 -0.2664
 1057TIP3    H124662   2.164   5.475   4.887  0.5384  0.3474 -1.3348
 1057TIP3    H224663   2.065   5.531   4.787 -1.4413 -1.2927 -0.3839
 1058TIP3   OH224664   1.781   5.812   5.371  1.1188 -0.2587  0.4620
 1058TIP3    H124665   1.699   5.846   5.408  0.2396 -2.1729  0.3800
 1058TIP3    H224666   1.753   5.742   5.313  2.6817  0.6901 -1.5528
 1059TIP3   OH224667   5.764   1.213  15.408 -0.1017  0.1418 -0.5530
 1059TIP3    H124668   5.713   1.286  15.444 -1.6048 -1.6001  1.0705
 1059TIP3    H224669   5.786   1.159  15.484  0.2479 -1.5196 -1.7753
 1060TIP3   OH224670   1.860   5.678  14.755 -0.3401  0.3763  0.5084
 1060TIP3    H124671   1.857   5.682  14.660 -0.8877  0.2978  0.5175
 1060TIP3    H224672   1.913   5.753  14.781 -0.7654  0.7967  0.1713
 1061TIP3   OH224673   6.165   0.984  11.382  0.2974  0.0776  0.6197
 1061TIP3    H124674   6.072   1.001  11.399  0.5817  0.8450  1.5104
 1061TIP3    H224675   6.167   0.895  11.348 -0.8269  0.2814 -0.0167
 1062TIP3   OH224676   1.176   4.953   2.432  0.1413 -0.1995  0.1990
 1062TIP3    H124677   1.137   4.984   2.513  1.6087  0.7372  0.5968
 1062TIP3    H224678   1.125   4.876   2.408 -2.5650  1.4919  0.1097
 1063TIP3   OH224679   2.230   5.096  17.211  0.4290  0.9181  0.0715
 1063TIP3    H124680   2.293   5.023  17.216  0.0467  0.6440  0.9836
 1063TIP3    H224681   2.145   5.054  17.208  0.2504  1.3116 -0.5157
 1064TIP3   OH224682   2.044   3.172   2.953  0.4446  0.2512  0.6053
 1064TIP3    H124683   2.094   3.133   2.881 -1.1415 -3.0893  1.1208
 1064TIP3    H224684   2.077   3.129   3.031 -0.3252  1.1894  1.4740
 1065TIP3   OH224685   2.914   0.508   5.487  0.3324  0.6200  0.3151
 1065TIP3    H124686   2.923   0.418   5.456 -1.3485  0.2797  0.7523
 1065TIP3    H224687   2.909   0.500   5.583  0.5141  1.2135  0.3771
 1066TIP3   OH224688   4.875   2.613   5.966  0.4033 -0.2959  0.1197
 1066TIP3    H124689   4.811   2.580   6.029  0.2309  0.8791  0.5872
 1066TIP3    H224690   4.959   2.611   6.014  0.3389  0.2154  0.2652
 1067TIP3   OH224691   5.399   0.213   6.894  0.1273  0.2129  0.0021
 1067TIP3    H124692   5.341   0.173   6.829  0.5149 -2.3775  1.1251
 1067TIP3    H224693   5.486   0.205   6.855  0.1774  0.2002  0.1160
 1068TIP3   OH224694   5.801   4.208  16.492  0.6301 -0.6250 -0.0269
 1068TIP3    H124695   5.794   4.133  16.552 -0.1760 -0.9783 -0.5528
 1068TIP3    H224696   5.744   4.186  16.418 -0.4544  0.9480  0.2787
 1069TIP3   OH224697   2.400   1.935  13.414 -0.5866  0.5787  0.1329
 1069TIP3    H124698   2.312   1.916  13.382 -0.1100 -2.9533  0.5143
 1069TIP3    H224699   2.388   1.954  13.507 -0.9544  0.2294  0.1570
 1070TIP3   OH224700   3.755   1.454  13.675 -0.5347 -0.0961  0.1188
 1070TIP3    H124701   3.673   1.492  13.706 -1.2863 -1.3059 -0.3174
 1070TIP3    H224702   3.804   1.528  13.640 -0.9478  0.8231  1.4126
 1071TIP3   OH224703   2.294   4.017   3.448  0.1909  0.0876  0.6510
 1071TIP3    H124704   2.219   4.076   3.456  1.7356  2.4172 -0.7277
 1071TIP3    H224705   2.299   3.997   3.355  0.5773 -1.0868  0.9040
 1072TIP3   OH224706   2.388   6.212  15.408  0.2681  0.3745 -0.4863
 1072TIP3    H124707   2.310   6.227  15.462 -1.2853 -1.6889 -1.9575
 1072TIP3    H224708   2.445   6.286  15.426 -1.6601  1.5276  1.3240
 1073TIP3   OH224709   1.738   3.921  14.193  0.0397  0.1398 -0.4376
 1073TIP3    H124710   1.792   3.958  14.123  0.5406  2.2913  0.9669
 1073TIP3    H224711   1.687   3.995  14.225 -0.3620 -0.8260  1.2846
 1074TIP3   OH224712   4.520   3.648  12.362  0.5715  0.1866 -0.1384
 1074TIP3    H124713   4.536   3.557  12.339 -1.1147 -0.4223  0.9589
 1074TIP3    H224714   4.566   3.660  12.445  0.7660  0.3544 -0.2657
 1075TIP3   OH224715   6.623   3.569   5.578 -0.0896 -0.1537  0.0075
 1075TIP3    H124716   6.667   3.523   5.505 -1.3285  1.1223 -1.6097
 1075TIP3    H224717   6.619   3.503   5.648  0.3145 -1.7377 -1.3849
 1076TIP3   OH224718   1.056   2.862   4.557 -0.6244 -0.1051  0.2273
 1076TIP3    H124719   1.081   2.922   4.627 -1.1338  0.0858  0.2528
 1076TIP3    H224720   1.018   2.787   4.602  0.5833 -0.7417  0.2252
 1077TIP3   OH224721   2.972   5.679  16.875 -0.5254 -0.0075 -0.4079
 1077TIP3    H124722   2.996   5.771  16.889 -0.3627 -0.0358 -0.4976
 1077TIP3    H224723   2.939   5.649  16.959 -1.0986  0.2934 -0.5197
 1078TIP3   OH224724   0.564   2.199  11.983  0.4801 -0.2326  0.4585
 1078TIP3    H124725   0.484   2.237  11.947 -0.8562 -0.5019  2.9262
 1078TIP3    H224726   0.624   2.273  11.992 -0.3503  0.4177  0.7336
 1079TIP3   OH224727   5.338   0.530  13.460  1.1331 -0.5088  0.0942
 1079TIP3    H124728   5.269   0.465  13.447  1.3963 -0.6331 -0.7215
 1079TIP3    H224729   5.306   0.608  13.415  1.1867 -0.3185  0.3785
 1080TIP3   OH224730   6.239   0.667   2.056 -0.3692 -0.0822 -0.1712
 1080TIP3    H124731   6.281   0.652   2.141  1.5159 -0.1860 -1.0610
 1080TIP3    H224732   6.228   0.762   2.052  1.0287  0.0928 -0.4348
 1081TIP3   OH224733   1.604   5.166  16.997 -0.0090  0.3285  0.0961
 1081TIP3    H124734   1.696   5.151  16.974 -0.4285 -0.5887 -1.0957
 1081TIP3    H224735   1.580   5.244  16.948 -0.4905 -0.7868 -1.5369
 1082TIP3   OH224736   2.325   1.900  15.835  0.2620  0.1946  0.3450
 1082TIP3    H124737   2.241   1.903  15.881  0.7405 -0.8873  1.3469
 1082TIP3    H224738   2.325   1.815  15.790  1.5708 -0.7162  1.9386
 1083TIP3   OH224739   2.691   2.163   2.629  0.3587 -0.3752  0.3089
 1083TIP3    H124740   2.763   2.223   2.608 -0.2531  0.2880  0.0539
 1083TIP3    H224741   2.702   2.145   2.723  0.5901  0.0891  0.3755
 1084TIP3   OH224742   3.615   6.323   3.106  0.5312  0.3421  0.8295
 1084TIP3    H124743   3.629   6.405   3.154  0.4325  0.4090  0.7431
 1084TIP3    H224744   3.686   6.320   3.042 -0.1850  0.9723 -0.0097
 1085TIP3   OH224745   0.972   3.296   4.708  0.2420  0.0779 -0.2590
 1085TIP3    H124746   0.935   3.380   4.734 -1.0708 -0.3972 -0.5183
 1085TIP3    H224747   1.063   3.299   4.738 -0.1958  0.9975  1.0318
 1086TIP3   OH224748   4.383   0.366  14.692 -0.4570  0.2124 -0.2472
 1086TIP3    H124749   4.301   0.338  14.652 -0.2908 -1.2235  0.3719
 1086TIP3    H224750   4.451   0.315  14.648 -0.0702  0.1594  0.3863
 1087TIP3   OH224751   6.218   5.098  16.054 -0.0555  0.2111 -0.4151
 1087TIP3    H124752   6.285   5.151  16.097 -0.6374  0.4818  0.1782
 1087TIP3    H224753   6.207   5.022  16.111 -0.2961  0.1971 -0.4797
 1088TIP3   OH224754   6.226   4.028  15.456  0.1678  0.2171 -0.5123
 1088TIP3    H124755   6.292   3.989  15.513  0.4273  1.2117 -0.1115
 1088TIP3    H224756   6.154   3.965  15.456  0.7852 -0.5080 -0.3160
 1089TIP3   OH224757   0.683   1.143  15.147 -0.0601 -0.0267  0.0876
 1089TIP3    H124758   0.687   1.137  15.052 -0.2182  0.4958  0.0476
 1089TIP3    H224759   0.709   1.232  15.167 -0.0172 -0.1370  0.5372
 1090TIP3   OH224760   4.815   5.684   5.594  0.0514 -0.2542 -0.2776
 1090TIP3    H124761   4.812   5.717   5.683  0.0937 -0.2990 -0.2592
 1090TIP3    H224762   4.853   5.596   5.602 -1.7591 -1.0635 -0.1175
 1091TIP3   OH224763   3.082   4.977  16.363 -0.4204 -0.0859 -0.4300
 1091TIP3    H124764   3.007   5.003  16.310  1.1610  1.5069 -2.0385
 1091TIP3    H224765   3.059   5.002  16.452 -1.1435  2.0377 -1.1576
 1092TIP3   OH224766   5.719   0.566  11.266 -0.7657  0.3339  0.0119
 1092TIP3    H124767   5.685   0.565  11.356  1.2237 -2.1203  0.8841
 1092TIP3    H224768   5.667   0.499  11.221  0.0531 -0.4530  0.1915
 1093TIP3   OH224769   3.806   1.849   4.040 -0.4063 -0.1321 -0.0509
 1093TIP3    H124770   3.806   1.934   3.996  1.1614  1.4297  2.6688
 1093TIP3    H224771   3.886   1.806   4.011  0.0895  0.4454  0.4292
 1094TIP3   OH224772   3.863   5.470  14.567  0.5534  0.0426 -0.2911
 1094TIP3    H124773   3.776   5.434  14.548  0.3149 -0.1021  0.9353
 1094TIP3    H224774   3.904   5.481  14.482 -1.2485  1.6071 -1.0271
 1095TIP3   OH224775   4.855   0.597  13.285  0.2324 -0.0403 -0.5546
 1095TIP3    H124776   4.838   0.504  13.302  0.8711  0.1289  1.2165
 1095TIP3    H224777   4.780   0.643  13.322  0.6665  0.2298  0.0075
 1096TIP3   OH224778   1.560   0.141   3.718 -0.0901 -0.1235  0.4550
 1096TIP3    H124779   1.642   0.180   3.748  0.1537 -0.4980  0.2751
 1096TIP3    H224780   1.557   0.161   3.624  0.4489 -1.2455  0.1765
 1097TIP3   OH224781   0.461   2.865  12.062 -0.2929  0.2779  0.2857
 1097TIP3    H124782   0.465   2.946  12.011  3.0068  0.2624  0.2739
 1097TIP3    H224783   0.475   2.892  12.152  1.2430 -0.2507  0.2376
 1098TIP3   OH224784   0.292   1.967  12.500  0.2970 -0.2278  0.2280
 1098TIP3    H124785   0.321   1.998  12.586  1.9577  0.3020 -0.4753
 1098TIP3    H224786   0.258   2.045  12.457  2.7043  0.3382 -0.8332
 1099TIP3   OH224787   3.236   0.294  15.084  0.6542  0.6437  0.2699
 1099TIP3    H124788   3.181   0.302  15.006 -0.2110 -0.0442  0.8005
 1099TIP3    H224789   3.326   0.299  15.051  0.4136 -2.5951 -1.1594
 1100TIP3   OH224790   0.037   3.041  15.234  0.1710  0.6875  0.2071
 1100TIP3    H124791   0.042   3.059  15.328 -1.1304 -1.7900  0.8311
 1100TIP3    H224792  -0.056   3.049  15.213  0.4692  1.3446 -0.9136
 1101TIP3   OH224793   1.126   2.114  17.067 -0.3056  0.3311  0.2552
 1101TIP3    H124794   1.088   2.139  16.983 -2.0514 -0.0113  0.8940
 1101TIP3    H224795   1.124   2.195  17.119 -0.5184  0.2292  0.4098
 1102TIP3   OH224796   0.530   1.714  15.998 -0.3687 -0.0262  0.5085
 1102TIP3    H124797   0.456   1.712  15.937 -2.2151  3.4663  2.3476
 1102TIP3    H224798   0.607   1.708  15.942 -1.9757  0.1738 -1.8854
 1103TIP3   OH224799   3.148   2.710  11.634  0.2709  0.0206 -0.0480
 1103TIP3    H124800   3.188   2.787  11.593  0.3901  0.1527  0.3197
 1103TIP3    H224801   3.121   2.740  11.721 -2.3682  0.5213 -0.9266
 1104TIP3   OH224802   3.882   1.667  12.287 -0.1271  0.3692  0.0431
 1104TIP3    H124803   3.797   1.684  12.245 -0.3394  0.4584  0.5033
 1104TIP3    H224804   3.882   1.722  12.365 -0.2005 -0.6155  0.7535
 1105TIP3   OH224805   1.095   3.342  16.026 -0.9536  0.7840 -0.3724
 1105TIP3    H124806   1.142   3.416  15.987  0.4424  0.3166  0.3575
 1105TIP3    H224807   1.010   3.378  16.051  0.0694  2.4489  0.9447
 1106TIP3   OH224808   1.253   3.943   5.266 -0.3317  0.0255  0.1320
 1106TIP3    H124809   1.299   3.903   5.192  0.0456 -1.6518  1.2134
 1106TIP3    H224810   1.160   3.930   5.245 -0.2226 -1.8627  0.6319
 1107TIP3   OH224811   4.434   0.648  14.053  0.1379  0.3703  0.4023
 1107TIP3    H124812   4.500   0.601  14.104 -1.5845 -0.2154  2.2571
 1107TIP3    H224813   4.388   0.702  14.118 -1.8444 -0.0152 -0.5948
 1108TIP3   OH224814   4.321   1.056  14.742 -0.1000  0.3358  0.0974
 1108TIP3    H124815   4.269   0.977  14.734  0.1234  0.2395 -0.4812
 1108TIP3    H224816   4.286   1.101  14.819 -1.6302  0.7276 -0.7912
 1109TIP3   OH224817   2.117   2.383  15.490 -0.2620 -0.0651 -0.2495
 1109TIP3    H124818   2.076   2.455  15.537 -0.6229 -0.0568 -0.5692
 1109TIP3    H224819   2.134   2.418  15.402  0.8948  0.0951  0.0235
 1110TIP3   OH224820   5.322   5.299   0.469 -0.5291  0.6268 -0.1592
 1110TIP3    H124821   5.356   5.213   0.442 -1.0231  0.0913  0.8660
 1110TIP3    H224822   5.392   5.336   0.524 -1.1213 -0.0180  1.0745
 1111TIP3   OH224823   3.090   3.149  15.959 -0.3307 -0.4953  0.5897
 1111TIP3    H124824   3.112   3.209  15.888 -0.3750 -0.0733  0.9288
 1111TIP3    H224825   3.166   3.092  15.966 -0.9533 -1.5786 -0.8439
 1112TIP3   OH224826   1.872   2.754   4.147  0.7219  0.1439 -0.3741
 1112TIP3    H124827   1.944   2.692   4.147  2.2295  1.7563 -2.0317
 1112TIP3    H224828   1.850   2.766   4.055 -1.1311  0.3279  0.0419
 1113TIP3   OH224829   5.051   0.536  12.914  0.6399  0.4638  0.1611
 1113TIP3    H124830   4.985   0.471  12.934  0.6482  0.7088  1.0295
 1113TIP3    H224831   5.017   0.582  12.837 -0.0241  0.3532  0.3831
 1114TIP3   OH224832   1.122   1.698   3.226 -0.5228  0.5826  0.1396
 1114TIP3    H124833   1.042   1.648   3.216  0.1171 -0.3791 -0.3482
 1114TIP3    H224834   1.192   1.635   3.208  0.5280  0.4259  3.7859
 1115TIP3   OH224835   4.294   2.087   5.069 -0.4761 -0.2591 -0.3608
 1115TIP3    H124836   4.288   2.002   5.025 -0.9256  0.3544 -1.5280
 1115TIP3    H224837   4.208   2.098   5.111  0.3885 -1.4318  1.8594
 1116TIP3   OH224838   0.499   4.698  14.723  0.1773 -0.0545 -0.5068
 1116TIP3    H124839   0.430   4.735  14.778  2.7750 -1.1534  3.9990
 1116TIP3    H224840   0.460   4.619  14.686 -1.9121  1.1078 -0.9845
 1117TIP3   OH224841   3.281   3.608  15.195  0.0928 -0.3713  0.0960
 1117TIP3    H124842   3.197   3.624  15.154  0.6585 -1.1189 -1.4467
 1117TIP3    H224843   3.283   3.513  15.208 -1.3190 -0.0193  4.7984
 1118TIP3   OH224844   4.578   0.103  15.295  0.0261 -0.1248  0.5965
 1118TIP3    H124845   4.649   0.156  15.329 -0.8245  0.5279  1.4009
 1118TIP3    H224846   4.534   0.068  15.373  0.4055 -1.8234  0.1002
 1119TIP3   OH224847   2.057   4.551  14.865  0.0538  0.2060 -0.1702
 1119TIP3    H124848   2.056   4.578  14.957 -1.3240 -0.9601  0.1942
 1119TIP3    H224849   2.149   4.530  14.848  0.2265 -0.2520  1.1732
 1120TIP3   OH224850   0.091   2.140  14.071  0.2569  0.0614 -0.0935
 1120TIP3    H124851   0.024   2.166  14.007  0.4643 -0.4408 -0.5206
 1120TIP3    H224852   0.042   2.099  14.142 -0.0329  1.1776  0.3723
 1121TIP3   OH224853   3.551   5.620  13.393 -0.1654 -0.3097 -0.0788
 1121TIP3    H124854   3.538   5.628  13.487  1.0122 -2.2037  0.2877
 1121TIP3    H224855   3.619   5.683  13.372 -0.6211  0.3106  0.2656
 1122TIP3   OH224856   3.652   4.068   1.742 -0.4950  0.3031 -0.2412
 1122TIP3    H124857   3.650   4.024   1.657 -0.1608  2.8264 -1.6646
 1122TIP3    H224858   3.680   4.157   1.722 -0.9660  1.1568  2.4705
 1123TIP3   OH224859   0.830   2.546   3.613  0.2554  0.3411 -0.5734
 1123TIP3    H124860   0.818   2.641   3.618 -1.4493  0.1665 -0.8783
 1123TIP3    H224861   0.741   2.511   3.605  0.7437 -1.3896  1.0894
 1124TIP3   OH224862   0.029   4.631  16.286 -0.5610  0.1175  0.3283
 1124TIP3    H124863   0.052   4.539  16.281  0.1435  0.2959  0.1657
 1124TIP3    H224864   0.109   4.677  16.260 -0.3663  0.8248  2.0502
 1125TIP3   OH224865   0.116   0.377  15.062  0.9045 -0.0464  0.0431
 1125TIP3    H124866   0.139   0.300  15.011 -0.6557 -0.6563  0.2070
 1125TIP3    H224867   0.025   0.362  15.089  1.0799  1.1177  1.4153
 1126TIP3   OH224868   6.754   1.259   4.312  0.1329  0.2249  0.1892
 1126TIP3    H124869   6.799   1.335   4.277 -1.3623  0.4901 -1.2966
 1126TIP3    H224870   6.824   1.198   4.336  1.3166  0.6665 -1.8996
 1127TIP3   OH224871   3.102   0.476  12.195  0.2871  0.0452  0.4476
 1127TIP3    H124872   3.072   0.474  12.104 -2.4712  0.6640  1.2264
 1127TIP3    H224873   3.084   0.566  12.223  1.6636  0.0258  1.4671
 1128TIP3   OH224874   6.801   3.488   4.348 -0.2022  0.4719  0.0300
 1128TIP3    H124875   6.844   3.427   4.289 -2.3875  0.1043 -1.3095
 1128TIP3    H224876   6.871   3.521   4.404  1.6192 -0.6717 -1.4513
 1129TIP3   OH224877   2.897   2.058  13.881  0.1067 -0.2705  0.3471
 1129TIP3    H124878   2.834   2.086  13.948 -0.9611 -0.4761 -0.5356
 1129TIP3    H224879   2.864   2.097  13.800  0.9469 -0.6467 -0.1858
 1130TIP3   OH224880   5.609   5.197  13.186  0.1663 -0.4600  0.1499
 1130TIP3    H124881   5.655   5.167  13.107  0.3228 -1.7066  0.6825
 1130TIP3    H224882   5.590   5.289  13.170  3.6917  0.4232  0.2813
 1131TIP3   OH224883   1.290   5.245  15.489  0.4096  0.0730 -0.7336
 1131TIP3    H124884   1.210   5.297  15.485 -0.3719 -0.9010  1.0077
 1131TIP3    H224885   1.358   5.306  15.518 -0.1791  0.4631 -0.1582
 1132TIP3   OH224886   5.715   4.838   1.802 -0.0994 -0.4456  0.3756
 1132TIP3    H124887   5.674   4.843   1.716 -0.1234  1.3679  0.4357
 1132TIP3    H224888   5.657   4.782   1.854 -1.2437  0.1707 -0.2029
 1133TIP3   OH224889   6.425   2.955  16.070 -0.0032  0.2449  0.3544
 1133TIP3    H124890   6.346   2.924  16.026  0.5210 -1.3275  0.4583
 1133TIP3    H224891   6.457   3.026  16.014 -1.1223  0.4605 -0.0313
 1134TIP3   OH224892   1.881   6.679  14.769 -0.2856  0.1481 -0.6674
 1134TIP3    H124893   1.908   6.589  14.787  2.2396  0.9234 -0.1449
 1134TIP3    H224894   1.952   6.715  14.715 -0.9935  1.9550 -0.4782
 1135TIP3   OH224895   4.380   5.122   1.674 -0.2116 -0.0460 -0.1572
 1135TIP3    H124896   4.380   5.211   1.708  0.7601 -0.0534 -0.1083
 1135TIP3    H224897   4.360   5.067   1.750  2.8753 -0.1415  0.7144
 1136TIP3   OH224898   3.741   4.045  11.826  0.4179 -0.1478  0.0613
 1136TIP3    H124899   3.745   4.140  11.817 -0.0045  0.0767  1.7435
 1136TIP3    H224900   3.667   4.030  11.886  1.4988 -1.3945  1.1670
 1137TIP3   OH224901   3.633   1.224  16.490 -0.1959 -0.3652  0.0389
 1137TIP3    H124902   3.672   1.162  16.429 -0.7223 -0.3675 -0.3029
 1137TIP3    H224903   3.668   1.199  16.575  0.7269 -0.2149 -0.2880
 1138TIP3   OH224904   5.228   2.057  14.207  0.2842  0.1115 -0.2131
 1138TIP3    H124905   5.188   2.038  14.122  1.5689  0.3995 -0.9205
 1138TIP3    H224906   5.233   1.972  14.251 -1.8691  0.2012  0.2809
 1139TIP3   OH224907   2.113   2.526   2.165 -0.0787 -0.5846 -0.0157
 1139TIP3    H124908   2.105   2.438   2.202 -0.3800 -1.1422 -1.3522
 1139TIP3    H224909   2.198   2.557   2.196 -0.1165 -1.1974  0.7492
 1140TIP3   OH224910   4.009   1.043   5.229 -0.0032  0.1191  0.2002
 1140TIP3    H124911   3.937   1.079   5.281  0.5722  2.1825 -0.3198
 1140TIP3    H224912   3.986   1.065   5.138  2.2593  2.9351  0.1694
 1141TIP3   OH224913   5.136   4.296  11.357  0.6932 -0.0735  0.3011
 1141TIP3    H124914   5.169   4.287  11.268  1.4620 -0.0560  0.5789
 1141TIP3    H224915   5.118   4.206  11.386 -1.4342  0.0218 -0.5429
 1142TIP3   OH224916   0.649   1.753   2.997 -0.0312  0.4328 -0.3593
 1142TIP3    H124917   0.709   1.718   2.931  0.0360  1.1885 -0.7046
 1142TIP3    H224918   0.633   1.679   3.056 -1.7065 -0.8814 -2.3359
 1143TIP3   OH224919   3.439   6.076  13.728 -0.1090  0.3551  0.7545
 1143TIP3    H124920   3.358   6.120  13.755 -1.7825 -0.8897 -1.8036
 1143TIP3    H224921   3.492   6.072  13.808 -1.9544  2.4679  2.2070
 1144TIP3   OH224922   0.468   0.987   3.161 -0.1631  0.3620 -0.0918
 1144TIP3    H124923   0.498   0.948   3.244  0.6992  2.0499  0.4422
 1144TIP3    H224924   0.381   0.950   3.147 -0.8349  0.9011  2.1981
 1145TIP3   OH224925   5.772   0.054   3.275  0.3152  0.2137 -0.0128
 1145TIP3    H124926   5.811   0.005   3.348  0.1841  0.7636  0.4388
 1145TIP3    H224927   5.681   0.024   3.273 -0.1232  1.3327  1.1012
 1146TIP3   OH224928   6.342   3.676  13.320  0.0025 -0.3889 -0.0800
 1146TIP3    H124929   6.368   3.650  13.232  1.4795  0.6303  0.0342
 1146TIP3    H224930   6.345   3.594  13.371 -1.6997 -1.1507 -1.1215
 1147TIP3   OH224931   2.164   1.356   4.553 -0.3933 -0.1738  0.3436
 1147TIP3    H124932   2.125   1.311   4.478  0.7194  2.4935 -2.0044
 1147TIP3    H224933   2.089   1.395   4.599 -0.9480  0.1589 -0.7981
 1148TIP3   OH224934   2.488   3.973   5.201 -0.1001  0.1198  0.4059
 1148TIP3    H124935   2.502   4.040   5.135  0.0707 -0.1607  0.1555
 1148TIP3    H224936   2.394   3.957   5.200 -0.7864  3.0401  3.0872
 1149TIP3   OH224937   6.728   4.946  12.063 -0.5609  0.4214 -0.6585
 1149TIP3    H124938   6.730   4.858  12.027  0.0052  0.1467  0.0166
 1149TIP3    H224939   6.798   4.993  12.017  1.1083 -0.3191  0.9925
 1150TIP3   OH224940   4.754   1.739   2.726 -0.0361  0.1090 -0.3107
 1150TIP3    H124941   4.816   1.704   2.662 -1.7781 -1.7546 -1.0720
 1150TIP3    H224942   4.692   1.668   2.741 -2.6085  2.1781 -0.3775
 1151TIP3   OH224943   2.437   5.746   4.607 -0.0716 -0.3857 -0.1287
 1151TIP3    H124944   2.387   5.754   4.688 -1.8179  0.3444 -1.2002
 1151TIP3    H224945   2.459   5.836   4.582  3.1465 -0.7294  1.0200
 1152TIP3   OH224946   4.458   2.705   3.060 -0.5581 -0.5125 -0.2523
 1152TIP3    H124947   4.514   2.763   3.111 -1.0737 -0.3894  0.1812
 1152TIP3    H224948   4.518   2.661   3.000 -0.4299  2.4049 -2.5040
 1153TIP3   OH224949   1.521   3.329   3.735  0.1964 -0.5889 -0.1444
 1153TIP3    H124950   1.606   3.303   3.698  0.4739  0.5392 -0.3329
 1153TIP3    H224951   1.473   3.365   3.661 -0.5149 -1.3520 -0.0636
 1154TIP3   OH224952   5.607   5.336   0.913 -0.5427 -0.6257 -0.3327
 1154TIP3    H124953   5.654   5.290   0.844  1.4007  1.4451 -0.4913
 1154TIP3    H224954   5.672   5.352   0.980 -1.3731  1.0190  0.1304
 1155TIP3   OH224955   6.460   3.636  12.527 -0.0020 -0.5243  0.0661
 1155TIP3    H124956   6.511   3.555  12.523 -1.1971 -1.2936  0.1423
 1155TIP3    H224957   6.449   3.662  12.435 -0.2900 -0.8776  0.0005
 1156TIP3   OH224958   3.584   0.154  13.164 -0.2318  0.2237 -0.2817
 1156TIP3    H124959   3.624   0.067  13.167  1.7935  1.0517 -1.6008
 1156TIP3    H224960   3.491   0.136  13.152 -0.3114 -1.7675  2.3619
 1157TIP3   OH224961   1.086   0.229   1.873  0.2049  0.0202  0.5285
 1157TIP3    H124962   0.992   0.244   1.875  0.3059  2.3024 -3.0365
 1157TIP3    H224963   1.097   0.150   1.819  0.3061  1.3313 -1.4691
 1158TIP3   OH224964   1.038   1.541   0.947 -0.4242 -0.2751  0.0671
 1158TIP3    H124965   1.037   1.615   0.886  0.8190  0.2301  0.6102
 1158TIP3    H224966   1.102   1.567   1.014 -1.3080 -1.0632  1.2661
 1159TIP3   OH224967   4.276   1.702   4.665  0.0386  0.8162 -0.2408
 1159TIP3    H124968   4.329   1.735   4.592  0.7047  1.1385  0.3702
 1159TIP3    H224969   4.339   1.656   4.721 -0.7597 -1.0107 -0.7579
 1160TIP3   OH224970   0.190   6.192  10.744  0.3813 -0.5135 -0.2203
 1160TIP3    H124971   0.261   6.179  10.806  0.6146  0.2719 -0.3186
 1160TIP3    H224972   0.233   6.202  10.659  0.2994  1.7428 -0.0434
 1161TIP3   OH224973   0.218   1.700   2.201 -0.6803 -0.5017  0.1466
 1161TIP3    H124974   0.314   1.695   2.193 -0.5817 -0.7020  1.2965
 1161TIP3    H224975   0.194   1.623   2.252 -1.5404 -0.8115 -0.7098
 1162TIP3   OH224976   0.953   4.342   4.026  0.6534  0.8525  0.1419
 1162TIP3    H124977   1.040   4.370   3.998  0.3272  0.7306 -1.0826
 1162TIP3    H224978   0.926   4.278   3.960 -0.4016  0.9645  0.4410
 1163TIP3   OH224979   5.298   0.997   5.776 -0.5582 -0.8051 -0.1853
 1163TIP3    H124980   5.247   0.916   5.773 -2.2820  0.1483  1.0506
 1163TIP3    H224981   5.267   1.047   5.701  0.7403 -1.3701 -1.1373
 1164TIP3   OH224982   1.370   6.318   2.661  0.1091  0.5719 -0.2914
 1164TIP3    H124983   1.420   6.326   2.742 -0.3839  0.4890  0.0239
 1164TIP3    H224984   1.292   6.268   2.685 -0.2139  0.8495 -0.7357
 1165TIP3   OH224985   0.341   5.766  13.335 -0.4023  0.3524 -0.2082
 1165TIP3    H124986   0.281   5.745  13.407  0.7987  0.1165  0.7561
 1165TIP3    H224987   0.370   5.855  13.354  1.5389 -0.4484  0.8115
 1166TIP3   OH224988   4.488   4.086   1.098 -0.0659  0.1323  0.5423
 1166TIP3    H124989   4.397   4.055   1.098 -0.1994  0.4941 -0.1670
 1166TIP3    H224990   4.481   4.179   1.118  0.1157  0.2266  0.1821
 1167TIP3   OH224991   0.420   0.198  16.157  0.3713 -0.6546 -0.1676
 1167TIP3    H124992   0.459   0.129  16.103  1.6086 -0.9776  1.0590
 1167TIP3    H224993   0.494   0.234  16.206 -0.6780 -0.3608  1.2643
 1168TIP3   OH224994   5.047   1.498   1.998  0.1778 -0.3775 -0.0112
 1168TIP3    H124995   5.106   1.499   1.923 -0.9080 -1.6034 -0.9262
 1168TIP3    H224996   4.993   1.420   1.985 -0.1144 -0.5607  1.9936
 1169TIP3   OH224997   5.778   4.420   5.852  0.3429  0.2673  0.3840
 1169TIP3    H124998   5.791   4.465   5.768  0.8313  0.9522  0.8146
 1169TIP3    H224999   5.814   4.332   5.837 -0.5408  0.0245 -0.4370
 1170TIP3   OH225000   4.351   5.929  12.100  0.3920  0.2920  0.2877
 1170TIP3    H125001   4.385   5.946  12.012  0.4597  0.0349  0.2615
 1170TIP3    H225002   4.422   5.883  12.145  0.1630 -0.0467  0.3042
 1171TIP3   OH225003   6.207   6.688  13.833 -0.2342  0.1508  0.2508
 1171TIP3    H125004   6.121   6.694  13.876  0.4058  1.9147  1.3608
 1171TIP3    H225005   6.208   6.761  13.772  1.2615  1.4627  1.7695
 1172TIP3   OH225006   2.407   5.810   2.175 -0.9144 -0.0535  0.0468
 1172TIP3    H125007   2.354   5.733   2.190 -0.5291 -0.5799 -1.1401
 1172TIP3    H225008   2.353   5.867   2.120 -0.1313 -0.7877 -1.5419
 1173TIP3   OH225009   2.873   0.476   1.153  0.4349 -0.1185 -0.5652
 1173TIP3    H125010   2.848   0.390   1.187  2.2496 -0.1523  0.7799
 1173TIP3    H225011   2.819   0.538   1.202  1.0975 -0.3420  0.4673
 1174TIP3   OH225012   4.584   5.351   3.106  0.0648 -0.0337  0.2611
 1174TIP3    H125013   4.506   5.383   3.152 -1.4690 -1.7513 -0.9831
 1174TIP3    H225014   4.655   5.404   3.140 -0.9898 -0.8408  4.2628
 1175TIP3   OH225015   0.737   2.204   4.189 -0.3609 -0.8685  0.3411
 1175TIP3    H125016   0.645   2.229   4.196 -0.4324 -0.4467 -1.5981
 1175TIP3    H225017   0.785   2.282   4.214 -0.5223 -0.9520  0.9275
 1176TIP3   OH225018   4.327   3.939   5.879  0.4375 -0.3652 -0.0773
 1176TIP3    H125019   4.340   4.005   5.947 -1.1541 -1.4068  1.3000
 1176TIP3    H225020   4.353   3.984   5.798 -0.5268  1.9543  0.7977
 1177TIP3   OH225021   0.562   4.022   0.663 -0.0543 -0.5557  0.1617
 1177TIP3    H125022   0.591   4.043   0.574  2.7612 -0.8689  0.9261
 1177TIP3    H225023   0.617   4.076   0.719 -0.6712 -1.5541  1.7745
 1178TIP3   OH225024   6.597   3.869  16.714  0.3573  0.6371  0.1373
 1178TIP3    H125025   6.653   3.897  16.640  3.1073 -1.6057  1.1782
 1178TIP3    H225026   6.594   3.945  16.771  1.0911  1.3235 -0.6959
 1179TIP3   OH225027   2.989   4.626  12.420  0.1436  0.4048  0.0649
 1179TIP3    H125028   2.929   4.593  12.354 -0.0981 -1.3559  1.1034
 1179TIP3    H225029   3.049   4.554  12.437 -0.1126  0.5885  2.1015
 1180TIP3   OH225030   4.246   2.451  16.582  0.3636  0.1595  0.5325
 1180TIP3    H125031   4.311   2.481  16.645  1.1083 -0.5727  0.1428
 1180TIP3    H225032   4.287   2.464  16.497  1.3538 -3.1635  0.3573
 1181TIP3   OH225033   3.211   1.351   2.786  0.4617  0.3382 -0.7799
 1181TIP3    H125034   3.306   1.345   2.771  0.0714 -1.4751 -2.9579
 1181TIP3    H225035   3.195   1.293   2.860  1.0534  0.7943 -0.2798
 1182TIP3   OH225036   6.515   2.453   2.909 -0.5693 -0.1383  0.8323
 1182TIP3    H125037   6.512   2.542   2.944  1.9826  0.2679  0.2567
 1182TIP3    H225038   6.526   2.464   2.814 -1.0072 -1.0868  0.6540
 1183TIP3   OH225039   0.313   5.562  17.147  0.3049 -0.2378  0.0256
 1183TIP3    H125040   0.223   5.532  17.145 -0.3665  1.6338 -1.5640
 1183TIP3    H225041   0.330   5.591  17.057  1.4413  2.2871  0.9597
 1184TIP3   OH225042   5.029   0.451  15.916  0.0927  0.4135 -0.1970
 1184TIP3    H125043   5.044   0.450  16.010  1.3004 -0.9038 -0.3786
 1184TIP3    H225044   5.113   0.429  15.877 -0.2383  1.5163 -1.6281
 1185TIP3   OH225045   0.816   2.843  14.850  0.2195  0.3256 -0.2699
 1185TIP3    H125046   0.762   2.908  14.803 -1.3761  0.7633  2.0159
 1185TIP3    H225047   0.786   2.848  14.940  1.7867 -1.9110  0.4476
 1186TIP3   OH225048   3.270   3.499  17.193  0.5563  0.3000 -0.2015
 1186TIP3    H125049   3.315   3.544  17.122  1.2077  0.0975  0.0791
 1186TIP3    H225050   3.198   3.452  17.150  2.0858 -1.4285 -1.0475
 1187TIP3   OH225051   5.006   3.276  11.190  0.1322  0.4425 -0.0626
 1187TIP3    H125052   4.913   3.267  11.172  0.0052  0.4786  0.5404
 1187TIP3    H225053   5.017   3.241  11.279  1.1608 -2.2348 -1.1214
 1188TIP3   OH225054   6.391   0.100   0.140  0.1314 -0.1860  0.5821
 1188TIP3    H125055   6.303   0.124   0.114  0.4960  0.9648  0.3764
 1188TIP3    H225056   6.378   0.038   0.213 -0.8458  1.1491  1.5953
 1189TIP3   OH225057   0.040   2.798  14.898 -0.0953  0.6339  0.3217
 1189TIP3    H125058   0.009   2.874  14.849 -0.6635 -0.2756 -0.7887
 1189TIP3    H225059   0.117   2.829  14.945  0.5037  1.5582 -1.1912
 1190TIP3   OH225060   0.531   3.949  15.952 -0.0153  0.3065  0.6103
 1190TIP3    H125061   0.475   4.015  15.993 -1.9957 -0.4956 -0.6830
 1190TIP3    H225062   0.527   3.970  15.858  3.0098  1.0518  0.5218
 1191TIP3   OH225063   0.030   5.167  14.128 -0.1669  0.3755  0.4400
 1191TIP3    H125064  -0.003   5.165  14.218  1.5286 -0.7725  1.0888
 1191TIP3    H225065  -0.010   5.244  14.089 -0.5414  1.1957  2.3584
 1192TIP3   OH225066   2.130   6.817  14.624 -0.5124 -0.4583 -0.2327
 1192TIP3    H125067   2.176   6.734  14.610  1.3954  0.0725  2.1844
 1192TIP3    H225068   2.186   6.883  14.583  0.9156  0.1531  2.4457
 1193TIP3   OH225069   5.555   6.425   4.519  0.0073 -0.5377  0.1187
 1193TIP3    H125070   5.604   6.436   4.438  1.2327  0.9531  0.9903
 1193TIP3    H225071   5.545   6.331   4.529  0.6136 -0.7803 -1.3022
 1194TIP3   OH225072   5.876   1.536   1.984  0.1684  0.0261 -0.2283
 1194TIP3    H125073   5.947   1.595   2.009  0.3465 -0.2512 -0.0622
 1194TIP3    H225074   5.866   1.478   2.060 -0.4140  0.2324 -0.1452
 1195TIP3   OH225075   1.222   0.146   5.944  0.0036 -0.3078  0.0510
 1195TIP3    H125076   1.147   0.089   5.927  0.4340 -1.0562  0.5728
 1195TIP3    H225077   1.211   0.174   6.035  0.6155 -0.8398  0.2976
 1196TIP3   OH225078   0.799   0.580  12.336  0.3875  0.0428 -0.0845
 1196TIP3    H125079   0.772   0.489  12.349 -0.3126 -0.1318 -2.2319
 1196TIP3    H225080   0.869   0.575  12.271  0.3725  1.0219 -0.1940
 1197TIP3   OH225081   3.301   0.026   0.815  0.2442 -0.6027  0.3289
 1197TIP3    H125082   3.258   0.042   0.899  1.2815 -0.7536  0.9042
 1197TIP3    H225083   3.331  -0.065   0.820  0.6055 -0.5105 -0.0713
 1198TIP3   OH225084   0.955   4.367  13.732  0.1054 -0.3185  0.1689
 1198TIP3    H125085   0.880   4.337  13.783  0.2552 -1.4666 -0.2402
 1198TIP3    H225086   0.947   4.462  13.730 -1.9326 -0.4606 -0.7665
 1199TIP3   OH225087   6.645   2.176   5.760  0.3322  0.1161 -0.6506
 1199TIP3    H125088   6.578   2.236   5.792 -0.7350 -0.2454 -2.0912
 1199TIP3    H225089   6.655   2.198   5.668  0.8791 -1.0533 -0.8920
 1200TIP3   OH225090   2.852   3.540  13.066  0.3443  0.3893 -0.7576
 1200TIP3    H125091   2.929   3.484  13.069 -1.5628 -2.4028  0.8492
 1200TIP3    H225092   2.829   3.554  13.158 -2.1906 -0.6507 -1.1420
 1201TIP3   OH225093   0.861   4.516  14.039  0.7982 -0.4868 -0.1072
 1201TIP3    H125094   0.833   4.550  14.124 -0.3580 -2.1427  0.2217
 1201TIP3    H225095   0.949   4.481  14.055  0.4951 -1.0026  0.4964
 1202TIP3   OH225096   4.636   0.128  12.943  0.5131  0.7405  0.0300
 1202TIP3    H125097   4.614   0.111  13.034  1.2171 -0.3723  0.0129
 1202TIP3    H225098   4.553   0.154  12.902  0.0819  0.6813  0.8567
 1203TIP3   OH225099   0.757   0.704  13.275 -0.0525 -0.7133  0.4443
 1203TIP3    H125100   0.820   0.698  13.203 -0.1375  0.7132  0.2145
 1203TIP3    H225101   0.686   0.646  13.250  0.0085 -0.3804 -0.5377
 1204TIP3   OH225102   5.027   1.868  11.274 -0.1475 -0.0141 -0.0365
 1204TIP3    H125103   5.084   1.840  11.202 -0.3903  0.4827 -0.4255
 1204TIP3    H225104   5.009   1.788  11.323  0.1068 -0.3389 -0.4716
 1205TIP3   OH225105   6.160   3.396  12.137 -0.6586  0.3325 -0.5058
 1205TIP3    H125106   6.149   3.330  12.206  0.5186  1.1700  0.5352
 1205TIP3    H225107   6.111   3.361  12.063  1.1960 -2.5169 -0.5479
 1206TIP3   OH225108   4.934   4.333  16.873 -0.2723 -0.1238 -0.1653
 1206TIP3    H125109   4.875   4.408  16.869  0.9998  0.9520  0.3267
 1206TIP3    H225110   4.897   4.270  16.811 -2.2465  0.2395  0.5547
 1207TIP3   OH225111   0.299   5.331  15.388 -0.1639  0.2604 -0.3760
 1207TIP3    H125112   0.334   5.244  15.405  1.4697  0.8106 -0.7798
 1207TIP3    H225113   0.361   5.371  15.327 -1.5954  1.2375 -1.2693
 1208TIP3   OH225114   5.717   1.964   3.241 -0.1844  0.5033  0.1940
 1208TIP3    H125115   5.760   2.032   3.293 -1.4353  0.9360  0.7192
 1208TIP3    H225116   5.627   1.996   3.230 -0.2276 -0.0781 -1.3775
 1209TIP3   OH225117   5.927   3.302  14.507 -0.0557  0.3334  0.3464
 1209TIP3    H125118   5.834   3.311  14.527  0.1023 -0.1341  1.4045
 1209TIP3    H225119   5.959   3.391  14.502 -0.3265  0.4968  1.2551
 1210TIP3   OH225120   1.031   1.086   2.251 -0.0036  0.1575  0.2983
 1210TIP3    H125121   1.001   1.024   2.183  0.8707 -0.2794  0.2928
 1210TIP3    H225122   0.954   1.103   2.304 -0.4815 -0.2168 -0.2650
 1211TIP3   OH225123   1.548   2.456  15.017  0.0985  0.2303 -0.0102
 1211TIP3    H125124   1.615   2.422  15.076 -0.2363  1.1145  0.9217
 1211TIP3    H225125   1.560   2.407  14.935  1.8877  0.3877  0.1204
 1212TIP3   OH225126   0.002   4.730   5.662 -0.1654 -0.3886  0.4481
 1212TIP3    H125127  -0.028   4.800   5.603  0.0805 -0.6653 -0.0114
 1212TIP3    H225128   0.025   4.658   5.603  0.9287 -0.3622  0.8232
 1213TIP3   OH225129   1.455   0.369  12.433  0.2671 -1.1303  0.6509
 1213TIP3    H125130   1.373   0.387  12.388  1.5712  0.5660 -1.2678
 1213TIP3    H225131   1.441   0.286  12.477 -2.2589 -1.1901 -0.1169
 1214TIP3   OH225132   3.653   0.579  14.968 -0.1730  0.0722 -0.2775
 1214TIP3    H125133   3.592   0.515  14.930 -2.0246  1.2116  0.5797
 1214TIP3    H225134   3.679   0.541  15.051  1.1815 -0.8964 -1.1104
 1215TIP3   OH225135   6.457   6.381   3.440 -0.2860 -0.3300  0.0633
 1215TIP3    H125136   6.376   6.330   3.437 -1.8527  1.8738  1.4143
 1215TIP3    H225137   6.441   6.455   3.381 -0.8196  2.0034  2.8444
 1216TIP3   OH225138   5.785   2.055   5.252 -0.0679 -0.1525 -0.0396
 1216TIP3    H125139   5.829   2.138   5.269 -0.3494 -0.0882  0.3958
 1216TIP3    H225140   5.846   1.989   5.284  1.5945 -0.3360 -3.2407
 1217TIP3   OH225141   3.517   4.189   2.410 -0.4181  0.4234 -0.0322
 1217TIP3    H125142   3.515   4.245   2.333  0.0242  0.7479  0.1878
 1217TIP3    H225143   3.448   4.125   2.395  1.4091 -1.2307 -1.9856
 1218TIP3   OH225144   4.865   0.967   3.831 -0.3356  0.5470 -0.3405
 1218TIP3    H125145   4.781   1.006   3.806 -0.3662  0.8206  0.1738
 1218TIP3    H225146   4.893   0.918   3.753  0.0797  2.2249 -1.3081
 1219TIP3   OH225147   2.724   0.139   5.545 -0.0076  0.2578 -0.5140
 1219TIP3    H125148   2.727   0.177   5.457  0.7626  0.6880 -0.3159
 1219TIP3    H225149   2.745   0.212   5.603  0.0115 -0.1407 -0.0167
 1220TIP3   OH225150   1.578   1.617  16.505 -0.0627 -0.0162  0.1826
 1220TIP3    H125151   1.551   1.571  16.584  0.6145 -0.4341  0.1810
 1220TIP3    H225152   1.671   1.597  16.496 -0.0379  0.3553 -0.4966
 1221TIP3   OH225153   0.024   6.170   3.755  0.4526 -0.4547  0.5432
 1221TIP3    H125154  -0.033   6.246   3.757 -0.1360 -0.8835  0.4260
 1221TIP3    H225155  -0.029   6.100   3.794 -0.3486 -1.6902 -2.4988
 1222TIP3   OH225156   6.776   1.074  11.874 -0.1539  0.4345 -0.0373
 1222TIP3    H125157   6.717   1.016  11.826 -1.1509 -1.0189  2.6962
 1222TIP3    H225158   6.736   1.161  11.865 -0.4022  0.1770 -1.6098
 1223TIP3   OH225159   3.351   1.247  12.065  0.0740  0.3555 -0.3173
 1223TIP3    H125160   3.387   1.196  12.138 -2.0895 -0.2938  0.3542
 1223TIP3    H225161   3.381   1.337  12.082 -0.5959  0.2747  1.5665
 1224TIP3   OH225162   2.860   5.138  14.127  0.3775  0.6623  0.2088
 1224TIP3    H125163   2.885   5.054  14.165  0.0818  0.2448 -0.5115
 1224TIP3    H225164   2.919   5.201  14.169 -0.4611  0.3391  1.9326
 1225TIP3   OH225165   1.181   2.435  15.172 -0.6689  0.2291  0.2129
 1225TIP3    H125166   1.240   2.495  15.126  0.5570 -1.4337 -0.4834
 1225TIP3    H225167   1.207   2.442  15.264 -0.6593  0.8806  0.1641
 1226TIP3   OH225168   1.726   1.095   3.123  0.7648  0.1464  0.1854
 1226TIP3    H125169   1.690   1.058   3.043  1.1783  0.2102 -0.0327
 1226TIP3    H225170   1.813   1.127   3.098  1.5288 -1.2124  1.0058
 1227TIP3   OH225171   2.859   4.595  13.435 -0.0539  0.2713  0.2533
 1227TIP3    H125172   2.922   4.640  13.379 -0.9427 -0.5275 -1.4358
 1227TIP3    H225173   2.775   4.604  13.390 -0.9064  0.0243  1.7199
 1228TIP3   OH225174   5.936   0.836   0.277  0.0640 -0.4720 -0.2528
 1228TIP3    H125175   5.852   0.794   0.257  0.7988 -0.8618 -2.7995
 1228TIP3    H225176   5.914   0.927   0.295 -1.0943 -1.0044  1.2726
 1229TIP3   OH225177   1.558   6.161   0.288 -0.0723  0.4325  0.4724
 1229TIP3    H125178   1.554   6.084   0.344 -0.8095 -0.8942 -1.2966
 1229TIP3    H225179   1.470   6.168   0.250  0.2866  1.5050 -0.2272
 1230TIP3   OH225180   4.713   5.633  14.123 -0.0288 -1.0610  0.2444
 1230TIP3    H125181   4.669   5.578  14.057  0.2667  0.4663 -1.3042
 1230TIP3    H225182   4.702   5.722  14.090  3.3280 -0.5075  0.3285
 1231TIP3   OH225183   3.682   1.023   5.282  0.0593  0.0480  0.2959
 1231TIP3    H125184   3.706   1.099   5.335  0.6640 -0.9138  1.4604
 1231TIP3    H225185   3.591   1.038   5.258 -0.6392  0.0082  2.6431
 1232TIP3   OH225186   1.585   4.017  16.141 -0.4639  0.5369  0.2244
 1232TIP3    H125187   1.638   3.947  16.103 -2.1504 -2.1081  2.3305
 1232TIP3    H225188   1.637   4.050  16.215  0.8768  2.5301 -1.5082
 1233TIP3   OH225189   5.108   1.342  14.805 -0.3015 -0.8533  0.6486
 1233TIP3    H125190   5.155   1.351  14.722  0.1002 -2.3797  0.6833
 1233TIP3    H225191   5.085   1.432  14.829 -0.0451 -0.3458 -0.8868
 1234TIP3   OH225192   4.693   3.975   4.900 -0.4265 -0.4662 -0.4947
 1234TIP3    H125193   4.684   3.931   4.984 -1.0273 -1.4770 -1.0671
 1234TIP3    H225194   4.604   3.978   4.864 -0.3047  0.6959 -0.7404
 1235TIP3   OH225195   4.318   2.771  17.123  0.0706 -0.0521 -0.1094
 1235TIP3    H125196   4.235   2.730  17.147 -0.1071 -0.2973 -1.0796
 1235TIP3    H225197   4.294   2.858  17.092  0.4747  0.9471  2.1970
 1236TIP3   OH225198   6.101   3.370   2.959  0.8406 -0.0964 -0.1978
 1236TIP3    H125199   6.070   3.284   2.931  1.6681 -0.4426 -0.1009
 1236TIP3    H225200   6.156   3.400   2.887 -1.1053  1.3081 -1.1610
 1237TIP3   OH225201   0.955   5.627  11.855  0.1372 -0.1639 -0.1113
 1237TIP3    H125202   1.034   5.649  11.807  0.1247 -1.5655 -0.8191
 1237TIP3    H225203   0.898   5.703  11.844  1.2843  0.7784  0.2453
 1238TIP3   OH225204   1.965   6.521   2.604  0.7699  0.4485  0.2717
 1238TIP3    H125205   2.022   6.597   2.594  2.0470 -0.2789  1.6632
 1238TIP3    H225206   1.995   6.478   2.684 -0.0887 -1.3672 -0.3098
 1239TIP3   OH225207   6.736   5.583  12.170  0.3280  0.2215  0.2989
 1239TIP3    H125208   6.776   5.639  12.104 -1.5262 -0.0710 -1.1739
 1239TIP3    H225209   6.784   5.500  12.165  0.0558  0.1149 -0.9122
 1240TIP3   OH225210   5.556   3.303   5.464  0.1138 -0.7582 -0.8639
 1240TIP3    H125211   5.567   3.328   5.555  0.1378 -1.1965 -0.7427
 1240TIP3    H225212   5.492   3.231   5.466  1.6418 -2.1775 -0.9742
 1241TIP3   OH225213   3.142   1.056  11.895 -0.5312  0.0944 -0.3084
 1241TIP3    H125214   3.172   1.106  11.819  0.2217 -0.1187 -0.1505
 1241TIP3    H225215   3.053   1.088  11.910 -1.0065 -0.4245 -1.7828
 1242TIP3   OH225216   3.606   0.892   0.251  0.2525  0.0510  0.2174
 1242TIP3    H125217   3.599   0.837   0.173 -0.6981 -0.6081  0.7466
 1242TIP3    H225218   3.685   0.944   0.237  0.7958 -0.9625 -0.6041
 1243TIP3   OH225219   6.403   3.806   2.918 -0.0483  0.5575 -0.4013
 1243TIP3    H125220   6.350   3.868   2.967  0.2927 -0.0697  0.8115
 1243TIP3    H225221   6.465   3.771   2.983 -0.0453 -0.8213 -1.0990
 1244TIP3   OH225222   0.931   0.175   0.105 -0.4594  0.2989  0.2035
 1244TIP3    H125223   0.989   0.151   0.178 -1.6189  0.3086  1.1682
 1244TIP3    H225224   0.981   0.155   0.026  0.4423 -0.6871  0.9965
 1245TIP3   OH225225   4.474   1.527  17.260 -0.3868 -0.5775 -0.1329
 1245TIP3    H125226   4.414   1.470  17.308  0.6196 -0.9698  0.6804
 1245TIP3    H225227   4.509   1.586  17.327 -0.7525  0.4385 -0.8131
 1246TIP3   OH225228   6.209   1.696   0.256  0.1928 -0.2377 -0.8750
 1246TIP3    H125229   6.209   1.639   0.178  0.5369 -2.4006  0.6212
 1246TIP3    H225230   6.301   1.720   0.267  0.3456 -0.9841 -0.4399
 1247TIP3   OH225231   2.438   2.361   1.344  0.1996  0.1806  0.6665
 1247TIP3    H125232   2.457   2.447   1.382  2.5955 -0.5679  1.3428
 1247TIP3    H225233   2.430   2.378   1.250 -1.4793  1.4056  0.9758
 1248TIP3   OH225234   6.550   2.832  14.469  0.2605 -0.6206 -0.4646
 1248TIP3    H125235   6.494   2.910  14.463 -0.1339 -0.5943  2.1765
 1248TIP3    H225236   6.489   2.759  14.467  0.6513 -0.9608 -3.2033
 1249TIP3   OH225237   4.193   2.254   1.120 -0.0208 -0.2269 -0.4580
 1249TIP3    H125238   4.134   2.179   1.132 -0.5274  0.1220 -0.7287
 1249TIP3    H225239   4.261   2.241   1.187 -0.4442 -0.5918 -0.0836
 1250TIP3   OH225240   4.826   0.665   4.280  0.1945  0.4235 -0.0180
 1250TIP3    H125241   4.863   0.737   4.230 -0.5014  1.6713  1.1831
 1250TIP3    H225242   4.768   0.707   4.343 -2.2067 -1.3503 -0.9108
 1251TIP3   OH225243   3.950   4.268  16.683  0.0309 -0.2480 -0.4761
 1251TIP3    H125244   3.876   4.231  16.731  0.4529  0.3536  0.6701
 1251TIP3    H225245   3.913   4.293  16.598 -1.4881  1.4279  0.6118
 1252TIP3   OH225246   3.732   0.502   5.161 -0.2676 -0.2018 -0.0601
 1252TIP3    H125247   3.723   0.586   5.206 -1.3828 -0.0756 -0.4872
 1252TIP3    H225248   3.693   0.439   5.221  0.5291 -0.4227  0.2408
 1253TIP3   OH225249   6.688   2.366   0.097 -0.0096 -0.0501  0.5593
 1253TIP3    H125250   6.599   2.374   0.133 -0.8917 -0.9786 -1.2786
 1253TIP3    H225251   6.713   2.455   0.073 -0.9237  0.0780  0.0443
 1254TIP3   OH225252   3.888   4.903   1.412 -0.0432  0.3223 -0.5508
 1254TIP3    H125253   3.912   4.928   1.323  0.1625 -0.8044 -0.8211
 1254TIP3    H225254   3.879   4.808   1.409  2.5409 -0.0883  1.2091
 1255TIP3   OH225255   1.402   6.443  15.039  0.1587  0.5832  0.0869
 1255TIP3    H125256   1.435   6.471  15.124  0.1204  1.9017 -0.3161
 1255TIP3    H225257   1.448   6.498  14.976 -1.8239  1.5906 -0.5668
 1256TIP3   OH225258   1.270   2.191  10.770 -0.5902  0.4909  0.0296
 1256TIP3    H125259   1.300   2.134  10.842  0.8386  1.5705  0.3349
 1256TIP3    H225260   1.261   2.132  10.695 -2.7549 -0.7897  1.1987
 1257TIP3   OH225261   6.182   0.084  13.683  0.6377  0.1131 -0.1304
 1257TIP3    H125262   6.252   0.135  13.643  0.8500 -0.6236 -0.7280
 1257TIP3    H225263   6.141   0.038  13.609 -0.0213 -0.0052  0.2974
 1258TIP3   OH225264   3.452   4.718  14.665  0.0603  0.2143  0.4095
 1258TIP3    H125265   3.498   4.637  14.687 -1.4454 -0.2687  2.0599
 1258TIP3    H225266   3.437   4.760  14.750 -3.3352 -0.1546  0.1150
 1259TIP3   OH225267   1.902   5.742   0.944 -0.8764  0.2662 -0.4690
 1259TIP3    H125268   1.880   5.707   1.031 -0.8610 -1.4793 -1.1406
 1259TIP3    H225269   1.981   5.794   0.959 -0.9310  0.0685  0.5903
 1260TIP3   OH225270   5.546   3.088  10.981  0.2293 -0.1867 -0.3642
 1260TIP3    H125271   5.489   3.080  10.904  1.1641 -1.1631 -1.0030
 1260TIP3    H225272   5.573   3.180  10.982  0.3044 -0.1849 -1.3035
 1261TIP3   OH225273   4.237   0.391   0.665  0.2053  0.1569  0.0774
 1261TIP3    H125274   4.235   0.302   0.698  1.9395 -0.5698 -1.6043
 1261TIP3    H225275   4.156   0.431   0.698 -0.1891 -1.7433  1.5687
 1262TIP3   OH225276   6.716   0.894   2.010  0.1401 -0.1050  0.0359
 1262TIP3    H125277   6.700   0.957   1.940 -0.3618 -0.3470 -0.0736
 1262TIP3    H225278   6.809   0.875   2.005  0.1549  0.0686 -0.4085
 1263TIP3   OH225279   1.194   5.469  11.501 -0.3711 -0.0581 -0.1928
 1263TIP3    H125280   1.099   5.456  11.507 -0.8115  1.5549 -2.5563
 1263TIP3    H225281   1.208   5.503  11.413  2.4326 -0.1968  0.1210
 1264TIP3   OH225282   5.021   4.428   6.060 -0.4216 -0.1671  0.2223
 1264TIP3    H125283   5.087   4.479   6.106 -0.3173  0.3419 -0.4969
 1264TIP3    H225284   5.047   4.337   6.074  0.7335  0.0388 -0.5033
 1265TIP3   OH225285   1.388   1.266  11.083 -0.1077  0.1385  0.1010
 1265TIP3    H125286   1.409   1.356  11.107 -0.7596  0.6300 -1.1051
 1265TIP3    H225287   1.302   1.271  11.041 -0.2985 -1.0897  0.3077
 1266TIP3   OH225288   4.454   2.136   3.621 -0.0974  0.0969  0.4125
 1266TIP3    H125289   4.466   2.206   3.686 -0.8728 -0.0175  0.6872
 1266TIP3    H225290   4.384   2.169   3.564 -1.3704 -0.9762  1.2973
 1267TIP3   OH225291   4.623   5.427   4.129  0.0230  0.2056 -0.0093
 1267TIP3    H125292   4.574   5.452   4.051  0.6343  0.7126 -0.2368
 1267TIP3    H225293   4.617   5.503   4.186 -0.1810 -0.0585  0.3251
 1268TIP3   OH225294   3.682   6.767  16.988 -0.2127  0.2723  0.5278
 1268TIP3    H125295   3.619   6.716  17.039 -1.2285  0.0939 -0.8264
 1268TIP3    H225296   3.628   6.813  16.923  1.0949 -0.4009 -1.1124
 1269TIP3   OH225297   1.936   0.395   4.234  0.3231 -0.5842  0.6148
 1269TIP3    H125298   1.995   0.372   4.306  1.5066 -1.0900 -0.4768
 1269TIP3    H225299   1.990   0.445   4.173 -0.3236 -1.1839 -0.4848
 1270TIP3   OH225300   0.524   3.692  16.948  0.1335  0.4005 -0.1070
 1270TIP3    H125301   0.437   3.708  16.983 -0.3382  1.0251 -1.4919
 1270TIP3    H225302   0.529   3.597  16.938  0.1240  0.2457  1.1999
 1271TIP3   OH225303   6.178   2.429  16.394 -0.0541 -0.1897  0.2001
 1271TIP3    H125304   6.266   2.395  16.407 -0.1941 -0.5034  0.3423
 1271TIP3    H225305   6.120   2.355  16.412 -0.3291 -0.1167 -0.3683
 1272TIP3   OH225306   5.175   2.181   0.079  0.6351  0.6467  0.0683
 1272TIP3    H125307   5.083   2.153   0.086  1.1001 -0.6884  1.1046
 1272TIP3    H225308   5.177   2.233  -0.001 -0.5845 -1.1341 -1.2114
 1273TIP3   OH225309   3.840   0.358   2.872 -0.1576  0.1295 -0.1694
 1273TIP3    H125310   3.786   0.345   2.950  0.1134  0.0760  0.0073
 1273TIP3    H225311   3.781   0.338   2.799 -0.6235  0.8799 -0.0081
 1274TIP3   OH225312   1.992   2.918   6.395 -0.1832  0.7419  0.6735
 1274TIP3    H125313   1.911   2.896   6.442 -1.1333 -1.7863 -1.8617
 1274TIP3    H225314   2.052   2.847   6.416  0.1127  0.7087 -0.2347
 1275TIP3   OH225315   4.941   4.614   4.291 -1.0442  0.5156  0.5387
 1275TIP3    H125316   4.897   4.555   4.353 -3.2276  1.0622 -0.4106
 1275TIP3    H225317   4.947   4.697   4.338 -1.2995  0.5276  0.5481
 1276TIP3   OH225318   2.466   2.108  12.050 -0.4988 -0.4140  0.6142
 1276TIP3    H125319   2.372   2.097  12.031 -0.0801 -2.2940 -0.6762
 1276TIP3    H225320   2.509   2.042  11.996  1.7426  1.5499 -0.1597
 1277TIP3   OH225321   0.148   6.343  11.025 -0.2058  0.1018 -0.1307
 1277TIP3    H125322   0.189   6.276  10.971 -0.0317 -0.5325  0.7659
 1277TIP3    H225323   0.219   6.405  11.044 -0.5106  0.8998 -1.4693
 1278TIP3   OH225324   4.697   5.138  11.799 -0.2447 -0.0525  0.0745
 1278TIP3    H125325   4.726   5.174  11.715 -1.0659  1.1252  0.2713
 1278TIP3    H225326   4.672   5.214  11.851 -0.9757 -0.8430  0.9238
 1279TIP3   OH225327   6.017   0.784   5.277 -0.4196  0.0152 -0.0151
 1279TIP3    H125328   5.944   0.742   5.321  0.7797 -0.9966  1.1214
 1279TIP3    H225329   6.063   0.712   5.233  1.7836 -0.0407  2.1282
 1280TIP3   OH225330   3.394   1.323  10.967 -0.0383 -0.0457 -0.2444
 1280TIP3    H125331   3.447   1.322  11.047 -1.2775  2.5220  0.6991
 1280TIP3    H225332   3.450   1.281  10.902  1.0703 -2.1251  1.8714
 1281TIP3   OH225333   2.826   5.671   6.401  0.3024 -0.0534  0.3026
 1281TIP3    H125334   2.755   5.620   6.362  0.1044  0.5987 -0.2115
 1281TIP3    H225335   2.868   5.611   6.463  0.2957 -0.9388 -0.5321
 1282TIP3   OH225336   2.098   3.590  16.595 -0.1294 -0.1696  0.1867
 1282TIP3    H125337   2.131   3.501  16.582  0.2008  0.0224 -0.3357
 1282TIP3    H225338   2.177   3.642  16.612 -0.4019 -0.1327  1.4939
 1283TIP3   OH225339   5.003   5.643   0.993 -1.0965  0.0249  0.0759
 1283TIP3    H125340   5.022   5.654   0.899  1.4115  0.4484  0.5493
 1283TIP3    H225341   4.940   5.571   0.997 -0.5575 -0.6200 -1.9012
 1284TIP3   OH225342   5.564   2.783   4.639 -0.1697  0.0154  0.1954
 1284TIP3    H125343   5.631   2.808   4.703  0.8050 -1.4439 -0.2044
 1284TIP3    H225344   5.538   2.695   4.665  0.0855 -0.5186 -1.2964
 1285TIP3   OH225345   5.111   4.720   2.742 -0.0918 -0.0910 -0.0901
 1285TIP3    H125346   5.066   4.686   2.664  0.6343 -0.6393 -0.2758
 1285TIP3    H225347   5.176   4.781   2.707 -1.1734  1.3012  0.2203
 1286TIP3   OH225348   4.465   1.434   2.436  0.1913 -0.1472  0.2871
 1286TIP3    H125349   4.545   1.387   2.414  0.7646  0.7958  0.3257
 1286TIP3    H225350   4.451   1.493   2.362 -1.1631 -1.1679 -0.3140
 1287TIP3   OH225351   3.926   2.172   4.150  0.2200 -0.1785 -0.1448
 1287TIP3    H125352   3.891   2.132   4.070 -0.4510  0.0638  0.0155
 1287TIP3    H225353   3.882   2.125   4.221  0.9528 -0.5167  0.0876
 1288TIP3   OH225354   0.913   0.219   5.422 -0.1900  0.7207  0.7880
 1288TIP3    H125355   0.970   0.284   5.463 -0.5190  1.7191 -0.2829
 1288TIP3    H225356   0.842   0.206   5.484 -2.0121  4.0461 -0.3943
 1289TIP3   OH225357   4.931   0.791  14.303  0.4168 -0.0058  0.1480
 1289TIP3    H125358   4.997   0.747  14.249 -2.8261 -1.7408 -2.8010
 1289TIP3    H225359   4.960   0.882  14.308  2.3706 -0.4140 -2.1316
 1290TIP3   OH225360   3.710   3.907   0.094 -0.2227  0.8153  0.0417
 1290TIP3    H125361   3.683   3.815   0.093 -0.3761  0.8127  1.9084
 1290TIP3    H225362   3.805   3.904   0.084 -0.2039  0.4457  0.3269
 1291TIP3   OH225363   6.344   2.463   4.968 -0.4578  0.0617  0.8866
 1291TIP3    H125364   6.428   2.509   4.973  0.2146 -0.7758 -1.4330
 1291TIP3    H225365   6.319   2.470   4.876 -2.0899 -1.1878  1.1928
 1292TIP3   OH225366   5.806   0.998  13.388 -0.1562 -0.3664  0.4400
 1292TIP3    H125367   5.817   1.030  13.478 -0.7332 -0.5899  0.6028
 1292TIP3    H225368   5.778   1.074  13.338  0.4025 -0.1876  0.3971
 1293TIP3   OH225369   3.812   4.849  13.029 -0.2139 -0.2900 -0.1416
 1293TIP3    H125370   3.812   4.869  12.936  0.1743 -2.0546 -0.5498
 1293TIP3    H225371   3.734   4.796  13.043 -1.2050  1.3299  0.9059
 1294TIP3   OH225372   0.266   3.838  12.012  0.2272 -0.2789  0.1211
 1294TIP3    H125373   0.325   3.912  12.030  0.9724 -0.7764 -0.2557
 1294TIP3    H225374   0.270   3.826  11.918  1.4307 -1.8778  0.3514
 1295TIP3   OH225375   6.256   1.589  13.897  0.4463  0.1903  0.1570
 1295TIP3    H125376   6.274   1.664  13.955 -3.2866  0.9762  0.5093
 1295TIP3    H225377   6.285   1.513  13.948  1.2010  1.1417  1.2154
 1296TIP3   OH225378   3.892   4.688   2.964  0.3587 -0.4261  0.4981
 1296TIP3    H125379   3.833   4.722   3.031 -1.0017  0.8506 -1.2528
 1296TIP3    H225380   3.834   4.658   2.893  1.7498 -1.2682 -0.3317
 1297TIP3   OH225381   0.237   5.873  16.092 -0.2047  0.3835 -0.2014
 1297TIP3    H125382   0.266   5.953  16.136  1.8111 -0.4545  0.1402
 1297TIP3    H225383   0.241   5.893  15.999 -2.4517  1.5163 -0.1013
 1298TIP3   OH225384   4.006   1.716  11.473  0.6233 -0.6539 -0.4841
 1298TIP3    H125385   4.021   1.726  11.567 -0.3466 -1.6004 -0.2089
 1298TIP3    H225386   3.913   1.696  11.466  0.8801 -1.5210 -1.5817
 1299TIP3   OH225387   3.267   6.467  14.971 -0.0906 -0.3567 -0.2569
 1299TIP3    H125388   3.272   6.379  15.007 -0.2513  0.1700  1.1233
 1299TIP3    H225389   3.292   6.524  15.044 -0.0658  0.7443 -1.1006
 1300TIP3   OH225390   3.892   5.283   4.493 -0.2345  0.1602  0.3423
 1300TIP3    H125391   3.938   5.277   4.576 -1.5656  0.4353  1.1262
 1300TIP3    H225392   3.959   5.266   4.427  0.7266 -0.6320  1.4834
 1301TIP3   OH225393   5.204   4.613  12.964  0.1868 -0.2216  0.4325
 1301TIP3    H125394   5.173   4.529  12.998 -0.4701 -0.8237 -1.5269
 1301TIP3    H225395   5.171   4.616  12.874  2.9459  0.6686 -0.6624
 1302TIP3   OH225396   4.934   3.330  17.245 -0.0657 -0.1983  0.5182
 1302TIP3    H125397   4.951   3.296  17.157 -1.2994  0.1685  0.1066
 1302TIP3    H225398   5.009   3.303  17.297 -0.4022 -2.4960 -0.0771
 1303TIP3   OH225399   1.885   3.014  11.355 -0.3343  0.1412 -0.9364
 1303TIP3    H125400   1.862   3.071  11.282  0.7485  0.8026 -0.7901
 1303TIP3    H225401   1.967   3.050  11.389 -0.8496 -0.0929  0.6624
 1304TIP3   OH225402   3.746   3.452   3.977  0.0166 -0.0388 -0.0148
 1304TIP3    H125403   3.807   3.392   4.020  1.7269  0.0434 -2.1816
 1304TIP3    H225404   3.793   3.484   3.900 -1.7174  2.2852 -0.2237
 1305TIP3   OH225405   5.156   5.755   2.280  0.0839 -0.4389 -0.0131
 1305TIP3    H125406   5.206   5.695   2.337  2.2534 -0.9294 -2.2509
 1305TIP3    H225407   5.212   5.833   2.274  0.0030 -0.4761 -1.5637
 1306TIP3   OH225408   5.290   2.784  14.224  0.6753  0.0022 -0.2612
 1306TIP3    H125409   5.305   2.849  14.156 -0.0285  0.2993 -0.1431
 1306TIP3    H225410   5.238   2.830  14.291  0.0739 -0.6962 -0.2272
 1307TIP3   OH225411   3.825   5.354   1.675 -0.4352 -0.1246 -0.4051
 1307TIP3    H125412   3.906   5.306   1.693  0.0088  1.3467  1.9352
 1307TIP3    H225413   3.792   5.315   1.595  2.1122 -1.3896 -0.9498
 1308TIP3   OH225414   2.006   1.476   4.932  0.2065  0.8481 -0.9241
 1308TIP3    H125415   1.995   1.496   4.839  0.7345 -0.6145 -1.3261
 1308TIP3    H225416   1.978   1.385   4.941  0.4590  0.8646  0.2968
 1309TIP3   OH225417   4.362   3.429   3.713 -0.1701  0.7235  0.3373
 1309TIP3    H125418   4.320   3.343   3.715 -0.2472  0.7326 -0.4850
 1309TIP3    H225419   4.431   3.424   3.778 -0.2952  0.0983  0.4246
 1310TIP3   OH225420   0.110   6.744  14.846  0.4240 -0.2283  0.5768
 1310TIP3    H125421   0.102   6.698  14.930 -1.1834 -1.1749 -0.0570
 1310TIP3    H225422   0.083   6.680  14.781  1.2129  0.6358 -0.6501
 1311TIP3   OH225423   1.092   5.667   5.243 -0.1530 -0.0235 -0.3222
 1311TIP3    H125424   1.176   5.694   5.279 -0.5841  2.6756 -1.0924
 1311TIP3    H225425   1.027   5.710   5.298 -0.9780 -0.4952 -0.9077
 1312TIP3   OH225426   1.812   3.404  11.482 -0.4318 -0.2275  0.3705
 1312TIP3    H125427   1.806   3.313  11.512 -0.4566  0.2539  1.8920
 1312TIP3    H225428   1.906   3.421  11.474 -0.4415 -0.7703 -1.2211
 1313TIP3   OH225429   1.810   4.268  11.383 -0.1038 -0.3980  0.3270
 1313TIP3    H125430   1.798   4.237  11.293 -1.3707  3.5245 -1.0339
 1313TIP3    H225431   1.721   4.274  11.418  0.3283 -1.1114  1.6383
 1314TIP3   OH225432   2.920   6.344  14.686  0.3832 -0.3889  0.0410
 1314TIP3    H125433   2.915   6.317  14.778 -2.6545  0.5165  0.2417
 1314TIP3    H225434   2.839   6.393  14.670 -0.3803 -2.4480 -3.7224
 1315TIP3   OH225435   6.007   4.062  14.454  0.0790 -0.1280  0.3815
 1315TIP3    H125436   5.960   4.106  14.525 -0.0703 -0.1414  0.2910
 1315TIP3    H225437   6.089   4.111  14.445  1.2479 -1.5992  2.2173
 1316TIP3   OH225438   2.261   5.624  12.690  1.0612  0.3342  0.0216
 1316TIP3    H125439   2.255   5.668  12.605 -2.2190  0.6823  0.2922
 1316TIP3    H225440   2.327   5.673  12.739  2.2923  0.7433 -1.9380
 1317TIP3   OH225441   5.865   2.688  15.244 -0.3946  0.1429 -0.3675
 1317TIP3    H125442   5.828   2.702  15.331 -1.0909  0.9181 -0.7789
 1317TIP3    H225443   5.794   2.708  15.184 -0.6381 -2.5562 -1.1054
 1318TIP3   OH225444   2.938   4.278   5.954  0.0367 -0.1651  0.4366
 1318TIP3    H125445   2.916   4.228   5.876  0.8698 -0.7846  0.5761
 1318TIP3    H225446   2.877   4.247   6.021 -1.5933  1.3443 -0.2861
 1319TIP3   OH225447   1.386   6.547  15.539  0.3580 -0.0047 -0.4315
 1319TIP3    H125448   1.457   6.500  15.582 -0.1752 -0.8149 -0.4237
 1319TIP3    H225449   1.329   6.575  15.610 -0.3170 -1.0030 -0.5637
 1320TIP3   OH225450   3.812   1.602  12.851 -0.2666  0.1327 -0.0024
 1320TIP3    H125451   3.724   1.595  12.813 -0.3258 -1.5234  0.3532
 1320TIP3    H225452   3.869   1.560  12.786  0.2373  0.9658 -0.1124
 1321TIP3   OH225453   0.602   3.933   5.064  0.7243  0.1495  0.6638
 1321TIP3    H125454   0.605   3.870   4.991 -0.7667  0.4296  0.3286
 1321TIP3    H225455   0.510   3.955   5.072  1.1502  1.8986  1.1265
 1322TIP3   OH225456   1.659   4.523   4.877  0.0169 -0.4252  0.0329
 1322TIP3    H125457   1.670   4.446   4.822 -1.7500  0.3226 -1.4760
 1322TIP3    H225458   1.646   4.595   4.816  1.1160  1.0187  1.4090
 1323TIP3   OH225459   3.853   0.080   0.085  0.0993 -0.0479 -0.1000
 1323TIP3    H125460   3.768   0.062   0.126  0.3435  0.5070  0.6691
 1323TIP3    H225461   3.881   0.163   0.123  0.1229  0.7433 -1.7660
 1324TIP3   OH225462   0.910   3.684  15.704  0.3879  0.1838 -0.0639
 1324TIP3    H125463   0.865   3.678  15.788  0.5052 -0.8982 -0.0618
 1324TIP3    H225464   0.970   3.609  15.704  1.0596  0.7049 -0.7247
 1325TIP3   OH225465   4.986   1.220  14.033  0.2932 -0.1033 -0.2349
 1325TIP3    H125466   5.031   1.152  13.982  0.3005  1.0123 -1.7991
 1325TIP3    H225467   4.894   1.209  14.011 -0.1238 -1.5530  1.9567
 1326TIP3   OH225468   4.334   3.175  17.266  0.4186  0.6104 -0.3851
 1326TIP3    H125469   4.378   3.246  17.218  1.7126 -0.0546 -0.2116
 1326TIP3    H225470   4.347   3.098  17.211  0.3423  0.2009  0.1659
 1327TIP3   OH225471   2.803   0.004   4.899 -0.4409 -0.3336  0.7358
 1327TIP3    H125472   2.826  -0.051   4.825 -0.3410  0.7898 -0.1027
 1327TIP3    H225473   2.755   0.077   4.860  3.0809  2.4823  1.1381
 1328TIP3   OH225474   3.239   4.215  14.109  0.3407 -0.3039  0.3447
 1328TIP3    H125475   3.281   4.290  14.067  0.5493 -0.3185  0.5239
 1328TIP3    H225476   3.146   4.225  14.088  0.7217 -1.9463 -2.6933
 1329TIP3   OH225477   5.594   1.169  14.036 -0.2181  0.3301 -0.0361
 1329TIP3    H125478   5.676   1.130  14.068  0.4999  1.3056 -0.5991
 1329TIP3    H225479   5.558   1.215  14.111  0.0361  0.3422  0.0791
 1330TIP3   OH225480   6.103   1.104  13.947 -0.5107 -0.4687  0.1145
 1330TIP3    H125481   6.154   1.064  13.876 -0.6282  1.6991 -1.2863
 1330TIP3    H225482   6.170   1.141  14.005 -0.4490 -1.2152  0.5442
 1331TIP3   OH225483   1.535   6.531   3.260  0.0184 -0.1012 -0.2266
 1331TIP3    H125484   1.457   6.548   3.207  0.2895  0.1163 -0.5602
 1331TIP3    H225485   1.605   6.518   3.196  0.3224  0.0394  0.0757
 1332TIP3   OH225486   0.039   0.922  16.218 -0.2871 -0.0425 -0.2281
 1332TIP3    H125487   0.130   0.902  16.198  0.3677  3.4065 -1.3978
 1332TIP3    H225488   0.040   0.951  16.310 -0.5565 -1.6122  0.2896
 1333TIP3   OH225489   6.552   1.116   0.714 -0.2584  0.5423  0.3784
 1333TIP3    H125490   6.622   1.177   0.740  2.4721 -0.7616 -3.1964
 1333TIP3    H225491   6.565   1.039   0.770  0.6559  0.6174  0.2788
 1334TIP3   OH225492   0.491   5.148  14.985 -0.1176 -0.0985 -0.0517
 1334TIP3    H125493   0.464   5.071  14.935  1.0458 -0.8329  0.3988
 1334TIP3    H225494   0.531   5.206  14.921 -1.4735  0.3874 -0.4854
 1335TIP3   OH225495   2.670   5.781   5.967  0.2397  0.1043  0.0140
 1335TIP3    H125496   2.689   5.700   5.919 -0.1703  0.5535 -0.9227
 1335TIP3    H225497   2.712   5.849   5.915 -0.1676  0.5963  0.3288
 1336TIP3   OH225498   1.995   5.616   4.589  0.2262 -0.0338  0.7262
 1336TIP3    H125499   2.001   5.698   4.540  0.7808 -1.1628 -1.2284
 1336TIP3    H225500   2.062   5.560   4.549 -0.1813 -1.4658  1.9679
 1337TIP3   OH225501   0.829   6.203  13.219  0.4935  0.1382 -0.5231
 1337TIP3    H125502   0.756   6.227  13.161 -0.8453 -3.1190 -0.4294
 1337TIP3    H225503   0.834   6.108  13.212  2.9260  0.0041  1.6953
 1338TIP3   OH225504   3.398   6.254  10.724 -0.5535  0.5100  0.2441
 1338TIP3    H125505   3.396   6.345  10.694 -1.1963 -0.0620 -1.6077
 1338TIP3    H225506   3.477   6.249  10.778  0.1423  1.8996 -0.5609
 1339TIP3   OH225507   4.412   0.641   4.581 -0.0660  0.4292  0.0622
 1339TIP3    H125508   4.443   0.576   4.518  0.1272  0.5510  0.0290
 1339TIP3    H225509   4.488   0.659   4.636  0.0006  0.9223 -0.1813
 1340TIP3   OH225510   4.316   1.484   2.145 -0.2421 -0.7432 -0.3636
 1340TIP3    H125511   4.330   1.549   2.214 -0.9620 -1.4281  0.4538
 1340TIP3    H225512   4.277   1.534   2.073  1.8445  0.2629 -0.8754
 1341TIP3   OH225513   3.575   2.182   5.921 -0.3943 -0.1199  0.6161
 1341TIP3    H125514   3.513   2.132   5.973  0.9999 -0.9825  1.5354
 1341TIP3    H225515   3.659   2.139   5.937  0.6227  1.6431  0.2504
 1342TIP3   OH225516   1.941   4.603   5.566 -0.4898  0.1363  0.2176
 1342TIP3    H125517   1.887   4.678   5.540  0.2119  0.9308  0.9690
 1342TIP3    H225518   1.985   4.632   5.646  0.0862 -0.9526  0.3156
 1343TIP3   OH225519   2.513   0.465   2.023  0.6597  0.0198 -0.3350
 1343TIP3    H125520   2.566   0.464   2.103  0.2661  1.0837 -0.0342
 1343TIP3    H225521   2.569   0.507   1.958  0.3016  0.9329 -0.0785
 1344TIP3   OH225522   5.288   1.752   3.068  0.0477 -0.4188 -0.1497
 1344TIP3    H125523   5.318   1.673   3.113 -1.3038 -0.6811  0.3485
 1344TIP3    H225524   5.240   1.719   2.992 -0.8624 -0.0981  0.2762
 1345TIP3   OH225525   6.025   2.716   5.326 -0.6670  0.6003  0.6712
 1345TIP3    H125526   6.069   2.696   5.243 -0.5113  1.7591  0.4623
 1345TIP3    H225527   6.032   2.635   5.377 -0.4635 -0.0155 -0.3091
 1346TIP3   OH225528   1.109   2.871   0.040  0.1018  0.1448 -0.0984
 1346TIP3    H125529   1.042   2.804   0.053  0.2556 -0.1960 -0.9483
 1346TIP3    H225530   1.068   2.934  -0.019  0.1801  0.4644  0.1889
 1347TIP3   OH225531   2.009   3.502   4.000 -0.3414 -0.4732  0.1669
 1347TIP3    H125532   2.032   3.518   4.092 -0.5966  0.2205  0.1189
 1347TIP3    H225533   1.938   3.564   3.983 -0.7483 -1.0648 -0.3103
 1348TIP3   OH225534   1.554   6.193   4.021  0.0379 -0.0466  0.7888
 1348TIP3    H125535   1.475   6.183   3.968  1.2034  1.4277 -1.3792
 1348TIP3    H225536   1.592   6.105   4.024 -0.6793 -0.3858  0.1874
 1349TIP3   OH225537   5.960   1.407   6.375  0.7765  0.3319  0.2829
 1349TIP3    H125538   5.980   1.397   6.468 -0.5014 -3.0804  0.3623
 1349TIP3    H225539   5.874   1.367   6.364 -0.6623  3.5827 -1.9283
 1350TIP3   OH225540   0.516   1.992  12.162 -0.1857 -0.2162  0.4903
 1350TIP3    H125541   0.541   2.028  12.247 -2.5559  0.5643  0.9439
 1350TIP3    H225542   0.555   2.052  12.098 -1.7242  1.6072  1.1787
 1351TIP3   OH225543   5.301   3.138  13.678  0.2879  0.3711 -0.0802
 1351TIP3    H125544   5.339   3.147  13.766  3.9238 -1.3773 -1.2962
 1351TIP3    H225545   5.352   3.198  13.624  0.2456 -0.8717 -1.5482
 1352TIP3   OH225546   5.057   5.159   3.701  0.1500 -0.0668 -0.4129
 1352TIP3    H125547   5.105   5.235   3.732  1.1196 -1.2254  1.1178
 1352TIP3    H225548   5.070   5.093   3.770 -0.2282 -1.7738 -1.8902
 1353TIP3   OH225549   6.504   5.047   4.350 -0.2327  0.3594 -0.1746
 1353TIP3    H125550   6.455   4.984   4.297  0.2201  0.1303 -0.3297
 1353TIP3    H225551   6.506   5.008   4.438 -2.5609  1.5945  0.5135
 1354TIP3   OH225552   5.007   4.028   2.414  0.0771 -0.0488 -0.3915
 1354TIP3    H125553   5.019   3.956   2.476  0.8991  0.1569 -0.3104
 1354TIP3    H225554   4.916   4.019   2.385 -0.0252 -0.7220  0.1166
 1355TIP3   OH225555   2.643   3.058   1.416 -0.5722 -0.4374 -0.2437
 1355TIP3    H125556   2.604   3.128   1.363 -0.9071 -0.4364 -0.0004
 1355TIP3    H225557   2.568   3.011   1.452 -0.3703  0.0485  0.8662
 1356TIP3   OH225558   4.439   2.305   0.702  0.1799 -0.3778 -0.1697
 1356TIP3    H125559   4.363   2.293   0.758 -0.0712 -1.0538 -0.6517
 1356TIP3    H225560   4.447   2.400   0.692 -0.5442 -0.3026 -0.0480
 1357TIP3   OH225561   2.846   0.268   4.135  0.3857  0.3247  0.5348
 1357TIP3    H125562   2.888   0.263   4.221 -0.0831  0.0015  0.7428
 1357TIP3    H225563   2.791   0.190   4.130  2.2381 -0.9682 -1.0389
 1358TIP3   OH225564   4.993   6.668  13.719 -0.7896  0.2926  0.1276
 1358TIP3    H125565   4.997   6.655  13.814 -0.0912 -0.6299 -0.0175
 1358TIP3    H225566   5.061   6.733  13.701  0.4508 -0.9637  0.0509
 1359TIP3   OH225567   2.834   0.215  15.575  0.1117 -0.5379 -0.0242
 1359TIP3    H125568   2.787   0.183  15.652  1.8645  0.9743  1.7789
 1359TIP3    H225569   2.850   0.137  15.522  0.1314 -1.8830  1.8601
 1360TIP3   OH225570   2.490   6.691   4.628  0.0408  0.1120  0.2032
 1360TIP3    H125571   2.581   6.721   4.629  0.0869 -0.0239  0.1310
 1360TIP3    H225572   2.496   6.596   4.639  0.1921 -0.5338 -3.7442
 1361TIP3   OH225573   0.328   5.124   0.726  0.0297  0.0876  0.0553
 1361TIP3    H125574   0.342   5.190   0.793 -0.6563 -0.5370  0.8354
 1361TIP3    H225575   0.258   5.068   0.761  1.2761 -1.6623 -0.0892
 1362TIP3   OH225576   5.966   5.091  12.178 -0.0264  0.0527 -0.2235
 1362TIP3    H125577   5.938   5.070  12.267  1.6521 -1.2998  0.0342
 1362TIP3    H225578   6.000   5.009  12.143  0.5631  0.8605 -1.6454
 1363TIP3   OH225579   2.695   0.452  15.443  0.0315  0.2096 -0.2529
 1363TIP3    H125580   2.738   0.533  15.414  0.3062  1.1107  2.4148
 1363TIP3    H225581   2.761   0.384  15.429  0.7007  0.8493 -0.2655
 1364TIP3   OH225582   3.056   1.735  12.590  0.2748  0.1955  0.1158
 1364TIP3    H125583   3.007   1.672  12.642  1.1503  0.5108  1.3673
 1364TIP3    H225584   3.005   1.746  12.510 -0.7641 -0.7972  0.6258
 1365TIP3   OH225585   4.751   3.354  12.066  0.2271 -0.1008 -0.5382
 1365TIP3    H125586   4.753   3.262  12.041 -0.3649 -1.4398  3.5307
 1365TIP3    H225587   4.841   3.384  12.055  0.5884 -1.3965 -1.2233
 1366TIP3   OH225588   3.930   3.028   4.110 -0.1543 -0.0436 -0.1637
 1366TIP3    H125589   3.891   3.030   4.023 -1.6130  0.0971  0.4589
 1366TIP3    H225590   3.931   3.120   4.138 -0.6579 -0.1860  0.3572
 1367TIP3   OH225591   6.227   0.773   1.577  0.1703  0.1516 -0.8154
 1367TIP3    H125592   6.219   0.847   1.517  0.7719  1.1246  0.2713
 1367TIP3    H225593   6.272   0.808   1.653  0.4114 -1.3261 -0.2369
 1368TIP3   OH225594   5.503   5.613   2.587  0.4299  0.3071 -0.3526
 1368TIP3    H125595   5.598   5.628   2.589  0.8366 -1.8976 -0.9974
 1368TIP3    H225596   5.475   5.627   2.678  1.4438  0.5417 -0.0592
 1369TIP3   OH225597   4.219   6.609  13.566 -0.3868 -0.2526  0.2060
 1369TIP3    H125598   4.146   6.639  13.621 -0.3654 -0.5293  0.3838
 1369TIP3    H225599   4.295   6.654  13.602 -0.2775 -0.8733  0.7712
 1370TIP3   OH225600   5.785   4.726   0.557 -0.8565 -0.1246 -0.5219
 1370TIP3    H125601   5.793   4.750   0.649 -0.4582  1.0332 -0.8364
 1370TIP3    H225602   5.836   4.792   0.511 -2.3705  0.2855 -1.7035
 1371TIP3   OH225603   3.067   5.817  16.259 -0.5721  0.7117 -0.4487
 1371TIP3    H125604   3.088   5.727  16.283 -0.0977  0.7877 -0.5554
 1371TIP3    H225605   2.996   5.809  16.196 -0.4794  0.4076 -0.5187
 1372TIP3   OH225606   4.655   5.107   6.511 -0.8831 -0.4056  0.1633
 1372TIP3    H125607   4.625   5.184   6.560  0.3306  0.4838 -0.4180
 1372TIP3    H225608   4.677   5.141   6.424 -1.3110 -1.6214 -0.4407
 1373TIP3   OH225609   6.810   3.307   0.957  0.0442 -0.0198  0.0489
 1373TIP3    H125610   6.750   3.381   0.953 -0.0791  0.0019  1.5248
 1373TIP3    H225611   6.897   3.346   0.948 -0.0949  0.0872 -0.9139
 1374TIP3   OH225612   6.595   0.323  12.698  0.0176 -0.3708  0.0803
 1374TIP3    H125613   6.578   0.229  12.688 -1.5087 -0.0022 -1.3202
 1374TIP3    H225614   6.589   0.357  12.609  1.9290  0.8723  0.3879
 1375TIP3   OH225615   5.864   5.156   3.423 -0.3563  0.2255  0.3583
 1375TIP3    H125616   5.926   5.223   3.393  0.1024 -0.2437  0.2325
 1375TIP3    H225617   5.908   5.073   3.404  0.1367 -0.1162  2.6505
 1376TIP3   OH225618   3.954   2.151   3.424 -0.2451  0.1480  0.1876
 1376TIP3    H125619   3.894   2.214   3.464 -0.4665  0.4407 -0.5887
 1376TIP3    H225620   3.910   2.067   3.432 -0.5381  0.2878  0.0630
 1377TIP3   OH225621   6.255   4.768  13.753 -0.4681 -0.0131 -0.3129
 1377TIP3    H125622   6.215   4.830  13.692  0.2971 -0.3092 -1.1442
 1377TIP3    H225623   6.350   4.778  13.738 -0.3117 -0.8426  0.0773
 1378TIP3   OH225624   5.899   6.127   3.961  0.3766 -0.2741  0.9189
 1378TIP3    H125625   5.917   6.198   3.899  1.4310  1.1755  2.7716
 1378TIP3    H225626   5.809   6.141   3.990  0.9908  1.1584  2.2446
 1379TIP3   OH225627   4.141   4.651  10.820 -0.1771  0.2570 -0.4625
 1379TIP3    H125628   4.092   4.722  10.779 -0.1096  0.8123  0.3974
 1379TIP3    H225629   4.173   4.598  10.747 -0.1905  1.1343 -1.1142
 1380TIP3   OH225630   0.426   1.741  14.174  0.2617 -0.2326  0.4190
 1380TIP3    H125631   0.497   1.788  14.129 -0.4528  0.6735  0.2079
 1380TIP3    H225632   0.405   1.669  14.114  1.1298 -0.6388  0.5798
 1381TIP3   OH225633   6.166   2.971   5.639 -0.1897  0.3523  0.3157
 1381TIP3    H125634   6.221   3.035   5.594  2.2078 -1.5866  0.2388
 1381TIP3    H225635   6.078   2.986   5.606  0.6907  2.1065 -1.3831
 1382TIP3   OH225636   3.950   0.997  13.063  0.1904 -0.5853  0.6350
 1382TIP3    H125637   3.927   1.086  13.091 -0.7691 -0.6573  0.1187
 1382TIP3    H225638   4.027   0.975  13.115  1.0110  0.8945  0.1093
 1383TIP3   OH225639   3.417   4.974   0.526  0.7617 -0.2154  0.2329
 1383TIP3    H125640   3.509   4.997   0.540  0.4312  0.3062  1.7558
 1383TIP3    H225641   3.385   4.950   0.613 -0.0966 -2.1290 -0.5450
 1384TIP3   OH225642   4.847   3.851   2.065  0.0489 -0.4861 -0.0280
 1384TIP3    H125643   4.796   3.919   2.020  0.9419  0.3125  0.1215
 1384TIP3    H225644   4.929   3.895   2.087 -1.0707 -0.1474  4.2415
 1385TIP3   OH225645   5.877   0.352   2.464 -0.2344 -0.3199 -0.2592
 1385TIP3    H125646   5.834   0.403   2.532  0.1803  0.0090 -0.2405
 1385TIP3    H225647   5.907   0.272   2.508 -0.1069 -0.1801 -0.0936
 1386TIP3   OH225648   1.184   1.128  11.235 -0.3876  0.2111 -0.2522
 1386TIP3    H125649   1.127   1.164  11.167 -2.0799 -1.5490  0.1365
 1386TIP3    H225650   1.267   1.175  11.225 -1.4753  1.9525 -1.7007
 1387TIP3   OH225651   2.985   0.120   4.367  0.5742  0.1406 -0.4925
 1387TIP3    H125652   3.013   0.050   4.425 -0.4463  0.5244  0.5099
 1387TIP3    H225653   2.899   0.146   4.400  1.3834  2.6285 -0.0949
 1388TIP3   OH225654   3.444   6.582  14.808 -0.4328  0.0611 -0.1305
 1388TIP3    H125655   3.458   6.511  14.745  0.1700  0.0027  0.0697
 1388TIP3    H225656   3.381   6.547  14.870  1.3921 -1.0718  1.1629
 1389TIP3   OH225657   2.932   1.848  16.296  1.1091 -0.1208  0.8242
 1389TIP3    H125658   2.864   1.914  16.311  3.0605  2.3239 -0.2651
 1389TIP3    H225659   2.886   1.773  16.260 -0.8614  2.1217 -1.7180
 1390TIP3   OH225660   4.155   4.181  13.664  0.1777  0.3985  0.4269
 1390TIP3    H125661   4.084   4.235  13.700  0.4212  0.5845  0.6291
 1390TIP3    H225662   4.112   4.097  13.643 -0.1810  0.6359  0.1949
 1391TIP3   OH225663   5.398   2.271  14.177 -0.2440  0.2692  0.3180
 1391TIP3    H125664   5.357   2.185  14.180 -0.9072  0.5695 -0.0606
 1391TIP3    H225665   5.345   2.325  14.236 -1.7040  1.2060 -1.7225
 1392TIP3   OH225666   4.162   1.941   3.671 -0.0786 -0.2700  0.1786
 1392TIP3    H125667   4.247   1.979   3.649 -0.2583  0.2959  0.4305
 1392TIP3    H225668   4.098   2.007   3.641 -0.3660  0.0383  1.4151
 1393TIP3   OH225669   3.615   4.017  16.347  0.0242 -0.7139 -0.1531
 1393TIP3    H125670   3.656   3.938  16.383 -0.0372 -0.0823  1.3795
 1393TIP3    H225671   3.688   4.076  16.328  0.0481 -1.0019 -0.9868
 1394TIP3   OH225672   6.526   1.244   0.476 -0.1946  0.0795 -0.2494
 1394TIP3    H125673   6.545   1.183   0.547 -0.6018 -1.3241 -1.2946
 1394TIP3    H225674   6.433   1.263   0.484 -0.2813 -0.2274 -0.5083
 1395TIP3   OH225675   5.622   1.837  14.587  0.4425  0.2622  0.2461
 1395TIP3    H125676   5.570   1.917  14.584  0.1755  0.2051  2.0663
 1395TIP3    H225677   5.576   1.776  14.530 -0.2538  0.9151  0.0963
 1396TIP3   OH225678   0.938   2.139   3.832 -0.0741 -0.4382  0.3482
 1396TIP3    H125679   0.969   2.224   3.801 -0.6757  0.7155  2.6889
 1396TIP3    H225680   0.889   2.103   3.758  3.2997 -0.5501 -2.0640
 1397TIP3   OH225681   3.478   5.792   2.189  0.0956  0.2202  0.3216
 1397TIP3    H125682   3.423   5.776   2.112  2.1218  1.3285 -1.4842
 1397TIP3    H225683   3.521   5.708   2.205  1.1190  0.4341 -1.0575
 1398TIP3   OH225684   1.773   2.684  11.831 -0.0817 -0.6479 -0.2231
 1398TIP3    H125685   1.799   2.720  11.916  0.1322 -1.1033 -0.0971
 1398TIP3    H225686   1.852   2.692  11.777  0.0664 -1.2333 -0.0970
 1399TIP3   OH225687   6.715   2.020   2.417  0.2709 -0.2190  0.2348
 1399TIP3    H125688   6.763   2.061   2.490  0.9392 -2.1903  0.9710
 1399TIP3    H225689   6.782   2.006   2.350 -0.1412  0.6971 -0.3756
 1400TIP3   OH225690   6.494   3.459  13.202 -0.1417  0.2983  0.6149
 1400TIP3    H125691   6.429   3.421  13.261  0.3943 -0.7063  0.5831
 1400TIP3    H225692   6.578   3.442  13.246  0.4142 -1.8693 -1.1224
 1401TIP3   OH225693   0.157   1.924   5.369 -0.3962  0.0071 -0.6169
 1401TIP3    H125694   0.226   1.880   5.418 -0.5425  1.0851  0.6243
 1401TIP3    H225695   0.198   2.004   5.337 -0.7656  0.1281 -0.7939
 1402TIP3   OH225696   5.932   0.344  14.760  0.0346  0.0496 -0.2871
 1402TIP3    H125697   5.917   0.255  14.727 -0.8327 -0.5929  1.6475
 1402TIP3    H225698   5.844   0.377  14.780  0.1982  1.9785 -2.3466
 1403TIP3   OH225699   0.936   0.356  11.926 -0.2970  0.0391  0.3265
 1403TIP3    H125700   0.937   0.353  12.022  0.0905  0.4560  0.3434
 1403TIP3    H225701   0.970   0.271  11.899  0.0163  0.0849  0.5684
 1404TIP3   OH225702   3.890   6.455  16.134 -0.0581  0.1197 -0.5131
 1404TIP3    H125703   3.960   6.487  16.191 -0.4878  0.7053 -0.3089
 1404TIP3    H225704   3.860   6.374  16.176  2.3556 -1.7094 -2.0619
 1405TIP3   OH225705   0.792   4.744   5.911 -0.3050 -0.3276  0.1145
 1405TIP3    H125706   0.715   4.750   5.855  0.9035 -0.3653 -1.6148
 1405TIP3    H225707   0.795   4.827   5.958 -0.7272  0.1811 -0.7392
 1406TIP3   OH225708   1.486   4.219  16.946 -0.3423  0.3438 -0.7257
 1406TIP3    H125709   1.451   4.134  16.974 -0.2686  0.1980 -1.0666
 1406TIP3    H225710   1.456   4.228  16.855  0.1535  0.4089 -0.8843
 1407TIP3   OH225711   1.066   4.231  16.892  0.2368  0.3101 -0.2929
 1407TIP3    H125712   1.099   4.246  16.981 -0.0176 -0.6047 -0.0262
 1407TIP3    H225713   1.057   4.135  16.887 -2.4430  0.4854 -0.3165
 1408TIP3   OH225714   4.675   0.035  11.117  0.3684 -0.7084 -0.0598
 1408TIP3    H125715   4.758  -0.011  11.104  0.5895 -0.6110  0.9811
 1408TIP3    H225716   4.615  -0.008  11.056  0.9813 -1.3107 -0.2539
 1409TIP3   OH225717   1.002   2.002  12.361  0.1295 -0.0371  0.1344
 1409TIP3    H125718   0.987   2.095  12.377  3.8406  0.5050  1.5904
 1409TIP3    H225719   1.082   1.999  12.309 -1.3440 -2.4722 -2.2784
 1410TIP3   OH225720   5.456   3.719   5.828 -0.1353 -0.0550 -0.3291
 1410TIP3    H125721   5.405   3.642   5.803  0.0958 -0.7959  1.3411
 1410TIP3    H225722   5.538   3.683   5.863  0.6333  1.0278 -0.9337
 1411TIP3   OH225723   0.829   0.199  16.689 -0.6909 -0.2421 -0.7093
 1411TIP3    H125724   0.807   0.106  16.687  1.3980 -0.8458  1.1517
 1411TIP3    H225725   0.752   0.240  16.730 -1.2670 -1.2671 -0.7166
 1412TIP3   OH225726   2.340   4.008   2.328 -0.7322  0.3296 -0.4460
 1412TIP3    H125727   2.302   4.089   2.293  0.1620  0.8626 -0.2165
 1412TIP3    H225728   2.377   4.033   2.412  0.6201 -0.0152 -0.9069
 1413TIP3   OH225729   5.594   5.120  17.277 -0.2993 -0.3275  0.3179
 1413TIP3    H125730   5.547   5.202  17.293  0.7723 -0.0100  2.1866
 1413TIP3    H225731   5.652   5.140  17.203 -0.1192  0.5985  0.6889
 1414TIP3   OH225732   0.972   4.752   6.549  0.1168  0.0526 -0.0222
 1414TIP3    H125733   0.971   4.675   6.606  1.4834 -0.3569 -0.5044
 1414TIP3    H225734   1.058   4.791   6.563 -1.0005  2.2844  1.1658
 1415TIP3   OH225735   1.874   4.742  15.328  0.9289 -0.0588 -0.4263
 1415TIP3    H125736   1.806   4.700  15.380  1.5971  0.1434  0.6390
 1415TIP3    H225737   1.829   4.813  15.281  0.2849 -0.3664 -0.2725
 1416TIP3   OH225738   3.728   5.107  10.640  0.0159  0.2416 -0.1093
 1416TIP3    H125739   3.791   5.155  10.587 -0.3905  0.2300 -0.6010
 1416TIP3    H225740   3.656   5.086  10.581 -0.3464  0.0444  0.3891
 1417TIP3   OH225741   4.884   2.104   2.720 -0.5677 -0.9732 -0.4261
 1417TIP3    H125742   4.884   2.153   2.802 -0.8479 -0.3239 -0.8070
 1417TIP3    H225743   4.930   2.022   2.740 -1.8791 -1.4611  0.7562
 1418TIP3   OH225744   0.715   2.446  11.022 -0.5569 -0.2160 -0.8831
 1418TIP3    H125745   0.731   2.368  10.970 -1.3533  0.3662 -2.0402
 1418TIP3    H225746   0.711   2.517  10.959 -0.1565  0.7306  0.1217
 1419TIP3   OH225747   2.379   1.185  16.518  0.1959 -0.0817  0.0458
 1419TIP3    H125748   2.308   1.170  16.581  0.3352  0.3931  0.3166
 1419TIP3    H225749   2.367   1.116  16.452 -2.9132  2.2085 -2.0581
 1420TIP3   OH225750   2.961   5.469   3.276 -0.0560 -0.4507  0.1141
 1420TIP3    H125751   2.954   5.377   3.302  0.7339 -0.1070  1.6780
 1420TIP3    H225752   2.919   5.517   3.347  0.5545  0.4519 -0.1190
 1421TIP3   OH225753   6.324   3.352  12.765  0.1982  0.3138 -0.0213
 1421TIP3    H125754   6.229   3.367  12.764  0.1593  0.1453  0.5004
 1421TIP3    H225755   6.358   3.417  12.826  0.6419  1.4797 -1.4492
 1422TIP3   OH225756   0.269   5.590  11.898 -0.3537  0.8709 -0.0342
 1422TIP3    H125757   0.280   5.501  11.931 -0.1576 -0.0076 -2.2736
 1422TIP3    H225758   0.177   5.594  11.869  0.3320  0.3394 -2.5737
 1423TIP3   OH225759   1.903   0.119   6.334  0.0468 -0.1062  0.2120
 1423TIP3    H125760   1.821   0.081   6.366  1.0491 -0.8929  1.9972
 1423TIP3    H225761   1.876   0.194   6.280 -1.8761 -1.3634 -0.6739
 1424TIP3   OH225762   2.186   0.556  12.131  0.2780  0.5684  0.0815
 1424TIP3    H125763   2.143   0.616  12.070  2.1078  1.4660 -0.4188
 1424TIP3    H225764   2.115   0.514  12.179 -1.2098  0.2235 -2.2941
 1425TIP3   OH225765   4.681   3.996  15.132 -0.3008  0.5282 -0.1976
 1425TIP3    H125766   4.685   4.021  15.040 -1.3266 -1.0410 -0.7263
 1425TIP3    H225767   4.591   4.014  15.158 -0.8475 -1.5892 -0.3723
 1426TIP3   OH225768   2.623   4.546  14.569  0.1826 -0.2524 -0.4545
 1426TIP3    H125769   2.621   4.451  14.561  1.1912 -0.4532  1.1377
 1426TIP3    H225770   2.707   4.571  14.530 -0.6940  0.1762 -2.1607
 1427TIP3   OH225771   4.505   2.917   5.342 -0.0725 -0.2863 -0.3066
 1427TIP3    H125772   4.437   2.849   5.340 -0.9121  0.4724  1.0696
 1427TIP3    H225773   4.464   2.990   5.388  0.8042  1.1907 -1.7488
 1428TIP3   OH225774   2.196   1.781  16.251  0.5382  0.1576  0.2033
 1428TIP3    H125775   2.135   1.848  16.222  1.1033  0.5629 -0.0719
 1428TIP3    H225776   2.141   1.706  16.274 -0.0678  0.5810  0.1421
 1429TIP3   OH225777   6.406   1.471  10.678 -0.1075  0.4731 -0.0236
 1429TIP3    H125778   6.452   1.454  10.596 -0.3294 -1.3002  0.1851
 1429TIP3    H225779   6.383   1.385  10.711 -0.6853  1.1871  1.5406
 1430TIP3   OH225780   6.259   2.838  14.205  0.1527 -0.4291 -0.0615
 1430TIP3    H125781   6.280   2.810  14.294 -0.5101 -0.6729  0.0282
 1430TIP3    H225782   6.296   2.771  14.148 -1.2684 -1.4433  0.1416
 1431TIP3   OH225783   1.803   2.206  16.961 -0.3711  0.1963  0.0127
 1431TIP3    H125784   1.723   2.257  16.947 -0.6160 -0.0391  0.5419
 1431TIP3    H225785   1.868   2.249  16.905 -0.2858  1.7597  1.2282
 1432TIP3   OH225786   2.348   4.409  12.155 -0.1533 -0.0940 -0.3365
 1432TIP3    H125787   2.324   4.354  12.230  0.9432 -0.6641 -0.3731
 1432TIP3    H225788   2.398   4.481  12.193  0.3084 -0.3236 -0.5012
 1433TIP3   OH225789   2.023   4.087   0.146 -0.4799  0.0484  0.6929
 1433TIP3    H125790   2.084   4.053   0.212 -0.2329  0.4611  0.6810
 1433TIP3    H225791   1.938   4.050   0.171 -0.1170 -1.0572  0.3241
 1434TIP3   OH225792   2.550   2.253   1.608 -0.4309  0.2730  0.1820
 1434TIP3    H125793   2.575   2.343   1.631 -1.3137  0.4439  0.5149
 1434TIP3    H225794   2.503   2.261   1.526 -1.8602  0.3257  0.9783
 1435TIP3   OH225795   0.468   5.704  12.753 -0.1145  0.6198 -0.4739
 1435TIP3    H125796   0.463   5.640  12.824  0.6144  2.7893  1.6921
 1435TIP3    H225797   0.423   5.781  12.788 -0.0983  1.6481 -2.5705
 1436TIP3   OH225798   0.031   2.478  14.539 -0.9808  0.1547  0.0335
 1436TIP3    H125799  -0.045   2.488  14.481  0.1411  0.7197 -1.3892
 1436TIP3    H225800   0.107   2.491  14.482  0.2500 -1.6509  1.1574
 1437TIP3   OH225801   0.516   0.645  15.631  0.2585 -0.1424 -0.0235
 1437TIP3    H125802   0.495   0.562  15.673 -1.9531  0.8280  0.9813
 1437TIP3    H225803   0.476   0.711  15.687  1.1216  1.5482 -1.2936
 1438TIP3   OH225804   3.235   0.242  11.598  0.3091  0.1247 -0.0127
 1438TIP3    H125805   3.272   0.218  11.513  0.5652 -0.9878  0.3985
 1438TIP3    H225806   3.140   0.238  11.586  0.3472 -0.5169 -0.1177
 1439TIP3   OH225807   3.077   0.615   5.232 -0.2623 -0.1005 -0.4719
 1439TIP3    H125808   3.055   0.664   5.311  0.4474 -0.0106 -0.3266
 1439TIP3    H225809   3.034   0.530   5.244  2.1963 -1.2083  1.4006
 1440TIP3   OH225810   5.144   4.149   3.821  0.2485  0.2129 -0.1386
 1440TIP3    H125811   5.100   4.218   3.771 -0.1307  0.2665  0.2593
 1440TIP3    H225812   5.193   4.195   3.889  1.3517  0.1840 -0.8946
 1441TIP3   OH225813   5.876   6.779  13.788  0.1531  0.0113 -0.6625
 1441TIP3    H125814   5.860   6.687  13.767  0.7438 -0.0594 -0.8026
 1441TIP3    H225815   5.815   6.827  13.732 -0.8425 -0.3256  0.1006
 1442TIP3   OH225816   6.564   1.078  15.797 -0.2378  0.5397 -0.4152
 1442TIP3    H125817   6.641   1.049  15.846 -0.1713  0.3555 -0.6283
 1442TIP3    H225818   6.509   1.121  15.862 -0.1885  0.2180 -0.1627
 1443TIP3   OH225819   2.809   1.086   0.913  0.0593  0.3322 -0.5674
 1443TIP3    H125820   2.885   1.036   0.884 -0.9171 -0.8253 -1.2145
 1443TIP3    H225821   2.846   1.166   0.951  1.6689 -0.8284  0.4364
 1444TIP3   OH225822   4.100   0.930  13.298  0.2381  0.2697 -0.7008
 1444TIP3    H125823   4.157   0.860  13.331  1.3128  2.1563  1.7781
 1444TIP3    H225824   4.023   0.927  13.355  0.4380  1.2735 -0.3641
 1445TIP3   OH225825   4.598   4.310  16.994 -0.0817 -0.4042  0.0063
 1445TIP3    H125826   4.517   4.279  16.954 -0.0144 -0.7935  0.1669
 1445TIP3    H225827   4.663   4.244  16.970  0.0532 -0.4134  0.3883
 1446TIP3   OH225828   3.613   0.891   2.860 -0.1686 -0.1558 -0.4601
 1446TIP3    H125829   3.630   0.910   2.768  0.8750  0.9266 -0.0768
 1446TIP3    H225830   3.687   0.836   2.887 -0.0548  0.1736 -0.0873
 1447TIP3   OH225831   3.624   6.719  11.072 -0.7434 -0.2684 -0.6784
 1447TIP3    H125832   3.614   6.661  10.996  0.1714 -1.1765 -0.1372
 1447TIP3    H225833   3.696   6.680  11.122 -0.3379  1.1579 -0.1091
 1448TIP3   OH225834   2.488   5.321   2.999  0.3212  0.2984 -0.3556
 1448TIP3    H125835   2.404   5.305   2.954  0.4893  3.5193 -2.1343
 1448TIP3    H225836   2.465   5.375   3.075  0.6969  0.6966 -0.5190
 1449TIP3   OH225837   2.330   2.408  16.091 -0.0288 -0.5592  0.2633
 1449TIP3    H125838   2.392   2.357  16.039 -0.1002 -0.3798 -0.0034
 1449TIP3    H225839   2.382   2.444  16.162  0.5579  0.9719 -0.8757
 1450TIP3   OH225840   3.574   2.371  15.457  0.1517  0.4441  0.6053
 1450TIP3    H125841   3.586   2.335  15.545 -0.3824  0.1501  0.5660
 1450TIP3    H225842   3.606   2.302  15.399 -0.7549  0.0651  0.5341
 1451TIP3   OH225843   5.776   0.671   3.831  0.3848 -0.6068 -0.2228
 1451TIP3    H125844   5.720   0.598   3.807  1.7106 -1.0659 -2.1145
 1451TIP3    H225845   5.766   0.678   3.926 -1.8674 -1.4472 -0.3373
 1452TIP3   OH225846   4.524   0.324  13.872 -0.4054  0.2956  0.1673
 1452TIP3    H125847   4.437   0.345  13.906 -0.1195  1.0224  0.4695
 1452TIP3    H225848   4.572   0.407  13.878  0.4773 -0.2371  0.5177
 1453TIP3   OH225849   1.825   4.859   2.075  0.4169  0.5324  0.2087
 1453TIP3    H125850   1.815   4.869   2.170  1.5475 -0.0189  0.4100
 1453TIP3    H225851   1.903   4.805   2.066 -1.0338 -1.5072 -0.9728
 1454TIP3   OH225852   6.614   5.974  12.345  0.0697  0.5708  0.0095
 1454TIP3    H125853   6.697   5.939  12.378  0.0298  0.3849 -0.0868
 1454TIP3    H225854   6.639   6.028  12.270 -0.1061 -1.7774 -1.8896
 1455TIP3   OH225855   1.572   5.068  15.146 -0.5570 -0.5894 -0.4230
 1455TIP3    H125856   1.654   5.025  15.170 -1.7500 -3.0240 -0.4115
 1455TIP3    H225857   1.555   5.040  15.055 -2.9865 -3.0446  0.6271
 1456TIP3   OH225858   6.514   4.838   3.855  0.7481  0.1463  0.1618
 1456TIP3    H125859   6.606   4.841   3.828  0.7660 -0.4627  0.1296
 1456TIP3    H225860   6.495   4.926   3.888  0.6733  1.0079 -1.9845
 1457TIP3   OH225861   6.415   0.491   4.204  0.5746  0.1257 -0.1019
 1457TIP3    H125862   6.407   0.527   4.292 -1.7267  0.3018 -0.3287
 1457TIP3    H225863   6.364   0.410   4.206  1.6845 -0.6233 -0.9094
 1458TIP3   OH225864   1.762   2.658   1.353  0.2251 -0.0992  0.0879
 1458TIP3    H125865   1.798   2.685   1.438 -0.3210  0.6426  0.0875
 1458TIP3    H225866   1.816   2.703   1.289  0.5337 -0.5318  0.0396
 1459TIP3   OH225867   2.774   4.718   0.760  0.0744 -0.0155 -0.3151
 1459TIP3    H125868   2.802   4.805   0.789 -0.2648 -0.1624  0.4806
 1459TIP3    H225869   2.752   4.672   0.841 -2.8215  0.1894 -0.8826
 1460TIP3   OH225870   2.587   3.909  16.502 -0.1005 -0.2176  0.2638
 1460TIP3    H125871   2.609   3.844  16.435  2.4572  0.6954  0.1036
 1460TIP3    H225872   2.592   3.993  16.457  1.2445  0.3832  1.4446
 1461TIP3   OH225873   4.169   4.111  16.767 -0.6487  1.0150  0.1978
 1461TIP3    H125874   4.164   4.037  16.707  0.3885  1.1945 -0.1235
 1461TIP3    H225875   4.088   4.160  16.753 -0.6292  0.7928 -0.7058
 1462TIP3   OH225876   6.758   4.487   3.326 -0.6252  0.3111  0.0674
 1462TIP3    H125877   6.830   4.474   3.264  1.1354  1.4442  1.7912
 1462TIP3    H225878   6.720   4.399   3.337 -0.7120  0.0023 -2.1981
 1463TIP3   OH225879   6.352   6.262  15.133 -0.2002 -0.2918  0.0304
 1463TIP3    H125880   6.278   6.245  15.074 -0.2664  0.9472 -0.2807
 1463TIP3    H225881   6.410   6.187  15.121  0.7437  0.7729 -3.1471
 1464TIP3   OH225882   3.373   3.979  16.485  0.5463 -0.5549  0.0743
 1464TIP3    H125883   3.347   4.067  16.513 -1.5073 -0.9547 -0.4115
 1464TIP3    H225884   3.450   3.993  16.430 -0.9276  1.1997 -1.6908
 1465TIP3   OH225885   2.461   4.752  14.496 -0.4756 -0.3837  0.4649
 1465TIP3    H125886   2.475   4.753  14.401  1.0289 -0.7623  0.6480
 1465TIP3    H225887   2.531   4.695  14.530  0.0553  1.0463  1.9372
 1466TIP3   OH225888   4.934   2.120  14.807  0.3177  0.3969  0.7582
 1466TIP3    H125889   4.844   2.152  14.813 -0.4126 -1.2824 -0.4682
 1466TIP3    H225890   4.962   2.147  14.719 -0.4247 -2.3764 -0.4388
 1467TIP3   OH225891   4.834   2.791  12.218  0.3557  0.8319 -0.3874
 1467TIP3    H125892   4.851   2.784  12.124 -2.6911  1.1530 -1.0752
 1467TIP3    H225893   4.749   2.749  12.230  0.1335  1.8088  2.0455
 1468TIP3   OH225894   4.579   1.157  13.025  0.4359  0.1683 -0.2261
 1468TIP3    H125895   4.497   1.207  13.029 -0.3184 -0.9081 -1.5284
 1468TIP3    H225896   4.584   1.114  13.111 -0.7640 -0.3067 -0.3609
 1469TIP3   OH225897   4.774   5.150  12.476 -0.3837 -0.2053  0.0041
 1469TIP3    H125898   4.773   5.219  12.542 -0.5900  0.1274 -0.3474
 1469TIP3    H225899   4.841   5.088  12.507 -0.5499 -0.1037  0.5740
 1470TIP3   OH225900   3.057   4.875   0.295  0.7850  0.1988  0.0623
 1470TIP3    H125901   2.988   4.819   0.329 -0.2590  1.0622 -0.5428
 1470TIP3    H225902   3.138   4.826   0.309  0.0345 -0.9117  0.6331
 1471TIP3   OH225903   0.854   0.229  11.320  0.1209 -0.1789  0.1391
 1471TIP3    H125904   0.842   0.320  11.346 -0.6786 -0.0833 -0.5362
 1471TIP3    H225905   0.936   0.230  11.270 -0.4120  0.3728 -0.7521
 1472TIP3   OH225906   0.036   3.618   6.358  0.1065  0.3645  0.3723
 1472TIP3    H125907   0.085   3.536   6.358 -0.2297 -0.0718  4.5193
 1472TIP3    H225908  -0.056   3.592   6.346  0.1474  0.2972  0.2114
 1473TIP3   OH225909   2.347   4.454  14.940  0.3165 -0.0903  0.0536
 1473TIP3    H125910   2.431   4.497  14.925  0.4383 -0.4892 -0.4677
 1473TIP3    H225911   2.348   4.379  14.881 -0.0896 -0.5355  0.5995
 1474TIP3   OH225912   6.671   4.273   1.606 -0.7024 -0.1553 -0.5096
 1474TIP3    H125913   6.640   4.184   1.623  0.6948 -0.2438  2.0488
 1474TIP3    H225914   6.766   4.267   1.608 -0.5739  1.3598 -0.4121
 1475TIP3   OH225915   0.722   3.075   2.558 -0.7739 -0.1553 -0.6775
 1475TIP3    H125916   0.806   3.033   2.579 -0.5643  0.4715 -0.2354
 1475TIP3    H225917   0.701   3.045   2.470 -0.8590 -1.5673 -0.2028
 1476TIP3   OH225918   0.417   4.174   5.834 -0.3780 -0.2086  0.5487
 1476TIP3    H125919   0.398   4.238   5.765  0.5320 -1.8752 -1.3618
 1476TIP3    H225920   0.490   4.212   5.883 -0.9921  0.9750  0.5817
 1477TIP3   OH225921   3.192   4.462  13.146 -0.1664 -0.0677  0.1006
 1477TIP3    H125922   3.207   4.401  13.218  0.3087  0.2893  0.3038
 1477TIP3    H225923   3.096   4.463  13.136 -0.1603 -1.3158 -0.3181
 1478TIP3   OH225924   3.647   5.605   2.260  0.8228  0.1923 -0.1507
 1478TIP3    H125925   3.632   5.537   2.326 -2.1341 -0.1814 -1.0521
 1478TIP3    H225926   3.672   5.556   2.182 -0.8155  0.0929 -0.6603
 1479TIP3   OH225927   2.688   6.683  15.900 -0.6781  0.0725  0.4568
 1479TIP3    H125928   2.724   6.723  15.821  1.6884 -0.8282  1.0034
 1479TIP3    H225929   2.637   6.753  15.940  0.4859  1.4683 -0.3762
 1480TIP3   OH225930   2.163   1.056  15.184  0.1995 -0.5911  0.8720
 1480TIP3    H125931   2.109   0.979  15.167  0.1311 -1.1820  3.4195
 1480TIP3    H225932   2.107   1.131  15.164  0.3479 -1.1220 -1.8736
 1481TIP3   OH225933   5.045   2.580   4.230 -0.7788  0.0234  0.6576
 1481TIP3    H125934   4.971   2.571   4.290  0.1741  1.5993  2.1450
 1481TIP3    H225935   5.008   2.625   4.154 -0.9984  2.8449  2.2862
 1482TIP3   OH225936   6.412   6.371   6.112 -0.8557  0.0162  0.4001
 1482TIP3    H125937   6.386   6.343   6.199 -0.9618  1.8777  1.0199
 1482TIP3    H225938   6.373   6.306   6.053 -1.1039 -1.0552  1.6987
 1483TIP3   OH225939   4.136   0.544  16.674 -0.1354 -0.3049 -0.0884
 1483TIP3    H125940   4.141   0.478  16.605  0.6105  0.6337 -0.9761
 1483TIP3    H225941   4.103   0.622  16.630  0.9067  0.4848  0.4618
 1484TIP3   OH225942   5.615   0.159  13.236  0.0278 -0.0024 -0.1128
 1484TIP3    H125943   5.587   0.198  13.319  0.7190 -0.5578  0.3914
 1484TIP3    H225944   5.535   0.121  13.199 -0.0675 -0.8916  0.9399
 1485TIP3   OH225945   0.872   1.844  11.917  0.7175 -0.2010 -0.0506
 1485TIP3    H125946   0.819   1.767  11.895  0.6503  0.3649 -2.1574
 1485TIP3    H225947   0.869   1.849  12.012 -0.5835 -1.8864  0.0539
 1486TIP3   OH225948   5.351   2.131  15.556  0.0347 -0.1715  0.5263
 1486TIP3    H125949   5.332   2.191  15.484  0.0660 -1.0272 -0.1985
 1486TIP3    H225950   5.366   2.046  15.515  1.4573 -0.3932  1.3939
 1487TIP3   OH225951   4.286   2.795   1.454  0.0644 -0.4373  0.2696
 1487TIP3    H125952   4.235   2.857   1.401 -0.0609 -0.3900  0.4468
 1487TIP3    H225953   4.377   2.819   1.436  0.0248 -0.4464  0.0441
 1488TIP3   OH225954   4.075   1.684  15.958  0.2916  0.3141 -0.2424
 1488TIP3    H125955   4.023   1.683  15.878 -0.3497  0.8219  0.1645
 1488TIP3    H225956   4.116   1.597  15.961 -3.0777 -1.3973  1.0598
 1489TIP3   OH225957   3.807   0.776   3.713 -0.0518  0.0061  0.3433
 1489TIP3    H125958   3.834   0.861   3.746  2.0908 -0.3855 -0.2687
 1489TIP3    H225959   3.820   0.716   3.786 -2.2066  0.2351  0.9987
 1490TIP3   OH225960   2.410   2.239   0.410  0.1157 -0.3872  0.5953
 1490TIP3    H125961   2.442   2.307   0.469 -0.4928  0.8313 -0.4463
 1490TIP3    H225962   2.474   2.167   0.420  1.8264  1.0262  0.3451
 1491TIP3   OH225963   0.120   2.114   1.975  0.2514  0.3018  0.3717
 1491TIP3    H125964   0.085   2.025   1.981  1.6894 -0.4166 -1.1106
 1491TIP3    H225965   0.186   2.119   2.044 -0.2139  0.4247  0.8151
 1492TIP3   OH225966   3.953   1.244  14.999  0.2104 -0.0187  0.5669
 1492TIP3    H125967   3.859   1.260  14.996  0.2961  0.9434 -3.3155
 1492TIP3    H225968   3.961   1.148  15.004 -1.0348 -0.1675  0.0884
 1493TIP3   OH225969   6.782   3.966  14.709 -0.1817  0.0124  0.0026
 1493TIP3    H125970   6.808   3.933  14.622 -2.0579  2.7283 -1.7607
 1493TIP3    H225971   6.688   3.984  14.700 -0.4086  0.4616  2.6105
 1494TIP3   OH225972   1.426   3.447  12.979  0.3858  0.2455 -0.2124
 1494TIP3    H125973   1.449   3.516  13.041  1.4797  0.8283 -1.2199
 1494TIP3    H225974   1.402   3.493  12.898  0.5219 -0.5293 -0.7115
 1495TIP3   OH225975   0.549   6.275   4.361  0.7223  0.0348  0.1688
 1495TIP3    H125976   0.609   6.344   4.333  1.7892 -1.0469 -0.3094
 1495TIP3    H225977   0.591   6.235   4.437  1.3765 -1.6629 -1.0167
 1496TIP3   OH225978   4.776   2.992   4.442  0.1600 -0.0185  0.0976
 1496TIP3    H125979   4.836   2.951   4.379  0.3354  0.8737 -0.3337
 1496TIP3    H225980   4.715   2.922   4.465  0.9081 -0.7361 -0.0312
 1497TIP3   OH225981   3.907   1.014   1.088  0.0265 -0.1174 -0.5210
 1497TIP3    H125982   3.982   0.962   1.117  0.5015 -0.5028 -2.3194
 1497TIP3    H225983   3.941   1.070   1.019 -1.4895 -0.9257 -2.0117
 1498TIP3   OH225984   4.743   4.729  15.523  0.0189 -0.0450 -0.2536
 1498TIP3    H125985   4.699   4.718  15.607 -0.9039 -0.0911 -0.7251
 1498TIP3    H225986   4.683   4.688  15.460  0.5695  0.2301 -0.9615
 1499TIP3   OH225987   0.472   3.021   2.666 -0.2488 -0.0334  0.3211
 1499TIP3    H125988   0.471   2.976   2.751 -2.8071 -2.1104 -0.6754
 1499TIP3    H225989   0.564   3.016   2.638  0.3563 -0.6969  2.2516
 1500TIP3   OH225990   4.061   3.272   2.037 -0.3999  0.6315  0.3114
 1500TIP3    H125991   4.062   3.223   2.119 -1.5126 -0.0197 -0.0445
 1500TIP3    H225992   4.153   3.296   2.022  0.2472 -1.6023  0.3478
 1501TIP3   OH225993   6.788   0.064  11.528  0.5493  0.6431  0.5656
 1501TIP3    H125994   6.817   0.152  11.552  0.9387  0.1563  1.9408
 1501TIP3    H225995   6.697   0.061  11.556  0.3757  0.7622  0.0409
 1502TIP3   OH225996   6.221   4.208   0.311  0.1435  0.2295 -0.2327
 1502TIP3    H125997   6.254   4.291   0.275 -0.4882  0.7554  0.3738
 1502TIP3    H225998   6.134   4.229   0.344 -0.2230 -0.8014 -0.5055
 1503TIP3   OH225999   3.317   2.533  13.626 -0.2354  0.1714 -0.3113
 1503TIP3    H126000   3.383   2.472  13.594 -0.9430 -1.0342  0.4596
 1503TIP3    H226001   3.234   2.502  13.589 -0.6532  0.4586  0.3569
 1504TIP3   OH226002   3.829   1.694  14.924 -0.1426 -0.0098 -0.2327
 1504TIP3    H126003   3.808   1.665  15.013  0.1555 -1.4580 -0.6049
 1504TIP3    H226004   3.800   1.622  14.868  1.7924 -0.1739 -1.1079
 1505TIP3   OH226005   1.336   2.589  12.106 -0.3875 -0.7416 -0.2330
 1505TIP3    H126006   1.276   2.542  12.049 -1.2100  0.8436 -0.7335
 1505TIP3    H226007   1.287   2.599  12.188  0.0139 -1.2459  0.0757
 1506TIP3   OH226008   5.591   4.551  17.192  0.0106  0.3845 -0.0690
 1506TIP3    H126009   5.631   4.604  17.123 -1.0342 -1.7134 -2.4878
 1506TIP3    H226010   5.510   4.517  17.152 -1.3252  0.0650  2.6885
 1507TIP3   OH226011   5.094   6.296   5.048  0.0330  0.1207  0.1983
 1507TIP3    H126012   5.071   6.333   4.963  1.6152 -0.7453 -0.6614
 1507TIP3    H226013   5.021   6.238   5.069  0.8473 -1.9340 -2.0508
 1508TIP3   OH226014   0.645   3.549   3.564 -0.1296  0.1321 -0.4919
 1508TIP3    H126015   0.671   3.631   3.521  0.4303 -0.2390 -0.8768
 1508TIP3    H226016   0.611   3.576   3.649 -0.6575  0.8296 -0.9154
 1509TIP3   OH226017   1.038   4.480   2.706  0.6070  0.0827  0.5365
 1509TIP3    H126018   1.077   4.428   2.776  1.2787 -0.0169  0.1021
 1509TIP3    H226019   0.945   4.485   2.728  0.6679 -0.6475  0.9919
 1510TIP3   OH226020   6.766   0.019  14.183 -0.6271 -0.1438 -0.4342
 1510TIP3    H126021   6.837   0.012  14.248 -0.7605 -0.0016 -0.2711
 1510TIP3    H226022   6.721   0.100  14.207  0.5492  1.0085 -1.9328
 1511TIP3   OH226023   6.765   6.481  16.549 -0.0367 -0.0593 -0.2492
 1511TIP3    H126024   6.795   6.519  16.631 -0.4790  0.3333 -0.2630
 1511TIP3    H226025   6.840   6.431  16.516 -0.3888 -1.6274  1.2154
 1512TIP3   OH226026   5.037   0.803  12.664  0.0926 -0.6662 -0.0101
 1512TIP3    H126027   5.098   0.842  12.726  0.1972 -2.1028  0.8472
 1512TIP3    H226028   5.069   0.829  12.578 -0.1096  1.4620  0.5047
 1513TIP3   OH226029   0.763   3.828   3.477 -0.2882 -0.2584  0.4734
 1513TIP3    H126030   0.681   3.836   3.429 -0.7088 -3.0651  0.5363
 1513TIP3    H226031   0.830   3.826   3.409  0.0262  3.4483  0.4654
 1514TIP3   OH226032   0.029   3.014   6.566 -0.5131 -0.7817 -0.0170
 1514TIP3    H126033   0.018   2.960   6.487 -2.1073  0.7482 -0.8931
 1514TIP3    H226034   0.101   3.073   6.545  0.0055 -1.3192  0.2326
 1515TIP3   OH226035   1.808   3.485   5.795  0.0977  0.0362 -0.1710
 1515TIP3    H126036   1.740   3.427   5.762  0.1233  0.2105 -0.5417
 1515TIP3    H226037   1.837   3.445   5.877 -1.4770  0.7364  0.7748
 1516TIP3   OH226038   1.629   5.846   3.140 -0.0904 -0.6904 -0.6452
 1516TIP3    H126039   1.629   5.940   3.158  0.7583 -0.3747 -2.1772
 1516TIP3    H226040   1.548   5.814   3.181 -1.4087  1.0425 -1.7716
 1517TIP3   OH226041   5.498   0.075  12.715 -0.7732 -0.1014  0.1506
 1517TIP3    H126042   5.410   0.049  12.740 -0.9605 -0.0996 -0.4858
 1517TIP3    H226043   5.486   0.124  12.634 -0.0138 -1.8816 -1.1099
 1518TIP3   OH226044   3.987   4.357  14.827  0.2274  0.2867 -0.4970
 1518TIP3    H126045   3.940   4.315  14.755 -0.6461 -1.1995  0.8823
 1518TIP3    H226046   4.053   4.294  14.853  0.8083  0.9846 -0.2547
 1519TIP3   OH226047   0.104   5.437   5.194  0.0306 -0.4594 -0.2453
 1519TIP3    H126048   0.195   5.465   5.185 -0.0346  0.0713  0.6248
 1519TIP3    H226049   0.090   5.428   5.288 -0.1812 -2.7418 -0.4440
 1520TIP3   OH226050   2.211   4.339  10.902 -0.1295  0.0745  0.3972
 1520TIP3    H126051   2.272   4.265  10.909  0.1580  0.0070 -1.8753
 1520TIP3    H226052   2.128   4.300  10.875  0.0387  0.5455 -0.8721
 1521TIP3   OH226053   6.270   3.938   2.387  0.3356 -0.1640  0.1453
 1521TIP3    H126054   6.210   3.873   2.350  1.5097 -0.8228 -0.6608
 1521TIP3    H226055   6.355   3.894   2.390  1.1624  1.3203 -0.3942
 1522TIP3   OH226056   2.413   1.693   2.920  0.5496  0.0884  0.4099
 1522TIP3    H126057   2.378   1.635   2.853  1.7586 -0.4013  0.1647
 1522TIP3    H226058   2.448   1.633   2.987  2.1124  0.4824 -0.0023
 1523TIP3   OH226059   0.576   3.807   4.513  0.2609  0.5952 -0.8186
 1523TIP3    H126060   0.639   3.848   4.454 -0.1411 -1.3120 -2.7034
 1523TIP3    H226061   0.494   3.854   4.496  0.3140  0.5363 -1.2455
 1524TIP3   OH226062   0.709   2.689  15.535 -0.4053  0.0119  0.3251
 1524TIP3    H126063   0.774   2.708  15.467 -2.3513  2.3407 -1.0152
 1524TIP3    H226064   0.627   2.676  15.488 -2.1261  3.0780  2.1761
 1525TIP3   OH226065   4.616   4.264  11.693  0.1937  0.1128  0.0794
 1525TIP3    H126066   4.644   4.273  11.602  0.3691 -0.8459  0.0254
 1525TIP3    H226067   4.663   4.333  11.740  0.3997  0.3667 -0.4932
 1526TIP3   OH226068   0.892   5.854   2.822 -0.0692  0.6493  0.2477
 1526TIP3    H126069   0.808   5.882   2.785 -0.4018  0.0444  0.5180
 1526TIP3    H226070   0.913   5.774   2.773  0.9251  1.4023 -0.6050
 1527TIP3   OH226071   0.823   0.058   3.106 -0.2721  0.1699 -0.9251
 1527TIP3    H126072   0.803   0.149   3.081  1.9241  0.6163 -1.2647
 1527TIP3    H226073   0.772   0.005   3.045 -2.3324  1.1135 -0.1208
 1528TIP3   OH226074   4.898   4.048   2.747 -0.0601 -0.4999  0.1734
 1528TIP3    H126075   4.900   4.116   2.814  0.6778 -0.3562  0.0171
 1528TIP3    H226076   4.875   3.968   2.794 -0.8502 -0.1675  0.3702
 1529TIP3   OH226077   4.375   0.919  15.407 -0.6216 -0.2635 -0.3907
 1529TIP3    H126078   4.332   0.835  15.423 -2.2108  0.6172  0.0702
 1529TIP3    H226079   4.381   0.925  15.312 -1.0426 -0.6224 -0.4420
 1530TIP3   OH226080   0.315   5.489   4.914 -0.2254  0.0670  0.1010
 1530TIP3    H126081   0.248   5.511   4.849  1.7562 -0.3171 -2.2042
 1530TIP3    H226082   0.308   5.393   4.923 -1.6021  0.2782  1.8241
 1531TIP3   OH226083   4.404   5.831   5.076  0.7102 -0.3400 -0.0575
 1531TIP3    H126084   4.444   5.917   5.072  1.6511 -0.6528  1.6668
 1531TIP3    H226085   4.449   5.780   5.009  1.1286  0.1282 -0.1376
 1532TIP3   OH226086   1.903   0.996   1.861 -0.0986 -0.3595 -0.5486
 1532TIP3    H126087   1.892   1.021   1.770 -0.2964  2.7271  0.2323
 1532TIP3    H226088   1.831   1.040   1.908  1.4750  0.3018  1.4032
 1533TIP3   OH226089   2.737   4.884   5.529  0.3147 -0.3698  0.1000
 1533TIP3    H126090   2.668   4.924   5.477  0.2831 -0.2181  0.2583
 1533TIP3    H226091   2.717   4.790   5.527 -0.5894 -0.2207  1.1350
 1534TIP3   OH226092   5.778   0.269  13.044  0.1442 -0.6716 -0.1733
 1534TIP3    H126093   5.758   0.291  13.135 -0.5261  1.4892 -0.8001
 1534TIP3    H226094   5.713   0.202  13.021 -0.2610 -0.5723  0.6457
 1535TIP3   OH226095   2.262   0.995  13.333 -0.2265  0.0559 -0.4881
 1535TIP3    H126096   2.215   0.954  13.260  1.6570 -0.5970 -1.3984
 1535TIP3    H226097   2.336   0.936  13.350  0.4844  1.2209  0.6297
 1536TIP3   OH226098   2.738   2.019   5.039 -0.1043  0.6566 -0.1892
 1536TIP3    H126099   2.828   1.999   5.013 -0.2590  1.4269 -1.3922
 1536TIP3    H226100   2.707   2.080   4.973 -1.5368  0.3714  0.1871
 1537TIP3   OH226101   1.546   4.641   3.420 -0.0147  0.1129  0.1771
 1537TIP3    H126102   1.615   4.601   3.366 -0.6579  0.5779 -1.0416
 1537TIP3    H226103   1.572   4.733   3.428 -0.5207  0.3127 -0.3752
 1538TIP3   OH226104   4.724   2.778  16.701 -0.1382  0.0888 -0.5066
 1538TIP3    H126105   4.674   2.850  16.739 -0.2759 -0.0265 -0.4667
 1538TIP3    H226106   4.657   2.718  16.667 -0.1478 -1.1588  1.5062
 1539TIP3   OH226107   6.648   3.824   5.649 -0.0937 -0.0061  0.1086
 1539TIP3    H126108   6.556   3.813   5.671 -0.4932  0.4879 -1.2457
 1539TIP3    H226109   6.675   3.739   5.615 -0.4579  0.2542 -0.8625
 1540TIP3   OH226110   5.636   2.937  15.754 -0.0833  0.5027  0.3001
 1540TIP3    H126111   5.553   2.908  15.791 -1.2877  2.7061 -0.5069
 1540TIP3    H226112   5.646   2.885  15.674  0.9900 -2.0433  1.9565
 1541TIP3   OH226113   5.668   3.734  12.709 -0.3908  0.1095  0.0138
 1541TIP3    H126114   5.618   3.740  12.628  0.4293 -1.7937 -0.6854
 1541TIP3    H226115   5.759   3.725  12.681 -0.3046 -3.1485  0.9578
 1542TIP3   OH226116   3.335   6.208  15.455  0.5078  0.0000  0.1587
 1542TIP3    H126117   3.381   6.128  15.479 -0.9495 -0.7884  0.4543
 1542TIP3    H226118   3.250   6.178  15.423 -1.2606  1.4934  2.9979
 1543TIP3   OH226119   4.281   0.829  14.227  0.2361  0.0663  0.0843
 1543TIP3    H126120   4.206   0.888  14.218  0.1658  0.0162  0.3296
 1543TIP3    H226121   4.332   0.865  14.299  2.6267  2.4264 -2.5612
 1544TIP3   OH226122   0.908   3.737  14.131 -0.3238 -0.2937 -0.5135
 1544TIP3    H126123   0.987   3.787  14.150 -0.9292  0.8133 -0.8397
 1544TIP3    H226124   0.838   3.781  14.180 -1.1863  0.2771 -2.1653
 1545TIP3   OH226125   0.767   4.004   0.971  0.1139 -0.4588  0.4719
 1545TIP3    H126126   0.785   3.985   0.879 -0.4481  0.2332  0.2060
 1545TIP3    H226127   0.701   4.073   0.968  0.2381 -0.2913  1.3965
 1546TIP3   OH226128   2.172   3.922   1.544  0.6371 -0.4395  0.1978
 1546TIP3    H126129   2.088   3.878   1.532  0.9237 -0.9737  0.0835
 1546TIP3    H226130   2.221   3.902   1.464  0.9278 -0.2690  0.3307
 1547TIP3   OH226131   6.543   4.751   1.649  0.3117 -0.1738 -0.6672
 1547TIP3    H126132   6.490   4.744   1.728 -1.0191 -2.3861 -1.6586
 1547TIP3    H226133   6.619   4.696   1.665  0.7645  0.5114 -0.4200
 1548TIP3   OH226134   5.785   4.914  15.536  0.3923 -0.1648  0.0209
 1548TIP3    H126135   5.808   4.824  15.559 -1.3001 -0.8508 -0.7885
 1548TIP3    H226136   5.723   4.941  15.603 -1.1509 -0.5895 -1.1861
 1549TIP3   OH226137   0.119   6.310   2.394  0.0856 -0.5926 -0.1965
 1549TIP3    H126138   0.199   6.322   2.343  0.6801 -1.1532  0.5698
 1549TIP3    H226139   0.060   6.378   2.362  1.4532  0.9576  0.3610
 1550TIP3   OH226140   0.980   4.655  16.360  0.0274 -0.2912  0.3586
 1550TIP3    H126141   0.931   4.703  16.293  0.3329  2.5246  2.0093
 1550TIP3    H226142   1.017   4.580  16.313 -2.9488 -0.6461 -1.7031
 1551TIP3   OH226143   6.546   3.443  14.194 -0.2852 -0.0817  0.0340
 1551TIP3    H126144   6.551   3.493  14.275 -0.2692  0.0815 -0.0659
 1551TIP3    H226145   6.470   3.387  14.204 -0.1862 -0.1822  0.2290
 1552TIP3   OH226146   1.688   6.359  16.091 -0.4940 -0.4505 -0.1087
 1552TIP3    H126147   1.673   6.324  16.179 -2.0854 -1.4637 -0.7235
 1552TIP3    H226148   1.678   6.283  16.033  1.2640  0.0406 -1.1386
 1553TIP3   OH226149   3.490   1.324   2.874 -0.2077 -0.5904 -0.0498
 1553TIP3    H126150   3.507   1.264   2.802 -1.9854 -0.8417 -0.3212
 1553TIP3    H226151   3.449   1.270   2.942  2.2640 -0.5440  1.5889
 1554TIP3   OH226152   2.854   1.679   5.028  0.0028 -0.2976 -0.0295
 1554TIP3    H126153   2.857   1.657   5.121 -1.2405 -0.7815 -0.0945
 1554TIP3    H226154   2.902   1.762   5.022 -0.7068  0.2240  1.1859
 1555TIP3   OH226155   2.852   3.100   3.134 -0.6024 -0.2888  0.4803
 1555TIP3    H126156   2.793   3.095   3.059 -0.9713  0.6566  0.6880
 1555TIP3    H226157   2.924   3.042   3.112 -1.2664 -0.9145 -0.0931
 1556TIP3   OH226158   0.270   0.960   4.171 -0.1149  0.1008 -0.3931
 1556TIP3    H126159   0.327   1.012   4.115  0.4120  0.6574  0.6149
 1556TIP3    H226160   0.329   0.909   4.225 -0.6380 -1.7349 -1.4909
 1557TIP3   OH226161   3.108   4.522  11.701  0.7830 -0.5430 -0.0977
 1557TIP3    H126162   3.032   4.483  11.745  1.7920  0.2264  2.5437
 1557TIP3    H226163   3.073   4.599  11.657 -0.1358 -0.6784  0.3661
 1558TIP3   OH226164   1.624   2.194   4.780 -0.1280 -0.3707  0.0202
 1558TIP3    H126165   1.583   2.178   4.865 -0.1225 -0.8308 -0.0591
 1558TIP3    H226166   1.624   2.108   4.737  1.3769 -0.5006  0.2257
 1559TIP3   OH226167   1.868   1.733  16.846 -0.0564 -0.2292  0.3022
 1559TIP3    H126168   1.890   1.768  16.760  0.0184  0.0321  0.4294
 1559TIP3    H226169   1.798   1.789  16.879 -1.3212 -1.3787 -0.3300
 1560TIP3   OH226170   4.993   0.407   3.109 -0.0564 -0.5146  0.4382
 1560TIP3    H126171   4.932   0.389   3.181  0.5213 -1.2902  0.7549
 1560TIP3    H226172   4.976   0.337   3.046  0.8190 -1.0153  0.7467
 1561TIP3   OH226173   4.875   3.839   1.510  0.3198  0.3197 -0.7716
 1561TIP3    H126174   4.804   3.819   1.449 -0.1293  1.7633 -0.7410
 1561TIP3    H226175   4.858   3.928   1.540 -0.2821 -0.7891  2.6061
 1562TIP3   OH226176   4.927   3.019   1.301  0.0901 -0.3660  0.3756
 1562TIP3    H126177   4.882   3.088   1.252  1.5729  0.6067  0.3294
 1562TIP3    H226178   4.866   2.996   1.371 -0.4301  1.0159  0.4120
 1563TIP3   OH226179   5.522   1.280   0.021 -0.1625  0.1322 -0.1487
 1563TIP3    H126180   5.427   1.287   0.028 -0.0413 -0.1352  3.2312
 1563TIP3    H226181   5.540   1.186   0.024  0.2346  0.2149  0.1643
 1564TIP3   OH226182   3.363   0.382   4.532  0.0091  0.1867 -0.9509
 1564TIP3    H126183   3.289   0.327   4.558  0.5339 -1.3608 -2.5039
 1564TIP3    H226184   3.357   0.459   4.588 -1.8731 -0.5979  0.0129
 1565TIP3   OH226185   0.936   5.829   4.000  0.3196 -0.2353 -0.6467
 1565TIP3    H126186   0.921   5.768   3.927  1.2202  0.7649 -1.6931
 1565TIP3    H226187   0.933   5.773   4.078 -0.7513 -1.3192 -1.4115
 1566TIP3   OH226188   5.297   5.063  16.431  0.7565  0.0005  0.4803
 1566TIP3    H126189   5.311   5.152  16.464 -0.2479  0.0826  0.7261
 1566TIP3    H226190   5.301   5.007  16.509 -0.3351  0.0440  0.5805
 1567TIP3   OH226191   2.082   6.817   1.812 -0.6211 -0.1844 -0.2665
 1567TIP3    H126192   2.154   6.807   1.750 -0.2225 -2.1077  0.4348
 1567TIP3    H226193   2.102   6.898   1.859  1.1615 -0.7450  0.0032
 1568TIP3   OH226194   2.675   4.216  13.592 -0.2715 -0.0517 -0.0664
 1568TIP3    H126195   2.741   4.190  13.529 -0.4044  0.3041 -0.3533
 1568TIP3    H226196   2.723   4.270  13.656 -0.1000 -0.5625  0.2494
 1569TIP3   OH226197   5.850   3.906   2.780 -0.1484 -0.7731  0.5289
 1569TIP3    H126198   5.762   3.882   2.808  0.3910 -1.2474  1.9086
 1569TIP3    H226199   5.907   3.841   2.821  1.2043  1.6881  2.9491
 1570TIP3   OH226200   4.924   1.607   0.291  0.2848 -0.5829 -0.8217
 1570TIP3    H126201   5.003   1.623   0.343 -1.0499 -2.6728  2.1825
 1570TIP3    H226202   4.933   1.517   0.261 -0.2256 -0.2953 -1.8820
 1571TIP3   OH226203   2.771   2.136  11.991 -0.2739 -0.4592 -0.4003
 1571TIP3    H126204   2.766   2.136  12.086 -0.1652 -0.4239 -0.3944
 1571TIP3    H226205   2.863   2.120  11.972 -0.2327 -0.1248 -0.4948
 1572TIP3   OH226206   0.156   0.041  13.108  0.1576  0.1351 -1.0388
 1572TIP3    H126207   0.199   0.116  13.150 -1.7362  1.2084 -0.9356
 1572TIP3    H226208   0.080   0.078  13.065 -1.0184 -1.7843 -0.7131
 1573TIP3   OH226209   6.618   3.126   4.750 -0.0438 -0.4716 -0.0730
 1573TIP3    H126210   6.560   3.063   4.707 -0.4670  0.3111 -0.6625
 1573TIP3    H226211   6.598   3.210   4.708 -1.0322  0.4899  2.1336
 1574TIP3   OH226212   6.584   5.663   1.784  0.3316  0.3182  0.5362
 1574TIP3    H126213   6.490   5.673   1.765  0.1332  0.4458  1.5423
 1574TIP3    H226214   6.626   5.664   1.698 -0.5633  0.5343  0.0898
 1575TIP3   OH226215   3.999   6.650  16.445 -0.5290 -0.3406  0.0164
 1575TIP3    H126216   3.944   6.675  16.518 -0.9836 -0.2633 -0.3506
 1575TIP3    H226217   4.001   6.554  16.449  1.1215 -0.2970  1.3514
 1576TIP3   OH226218   4.626   0.068   4.631 -0.3775 -0.0657 -0.0124
 1576TIP3    H126219   4.690   0.139   4.629  0.2933 -0.6214  0.8892
 1576TIP3    H226220   4.677  -0.009   4.654 -1.4175 -0.4619  1.0842
 1577TIP3   OH226221   4.991   0.243   4.871  0.5303  0.7797  0.1440
 1577TIP3    H126222   4.925   0.242   4.940  0.1074 -1.1907 -0.2121
 1577TIP3    H226223   5.043   0.164   4.886  1.8805  1.5027 -0.4804
 1578TIP3   OH226224   5.587   4.637  15.488 -0.5448  0.4464 -0.3757
 1578TIP3    H126225   5.500   4.671  15.509 -0.5905  1.6936 -2.3776
 1578TIP3    H226226   5.609   4.677  15.404  1.8007 -0.1704 -0.1198
 1579TIP3   OH226227   6.296   4.410   5.489  0.3222 -0.4543 -0.2407
 1579TIP3    H126228   6.359   4.476   5.516 -0.5831 -0.3670  1.8581
 1579TIP3    H226229   6.337   4.327   5.514 -1.0122 -0.3195  2.7749
 1580TIP3   OH226230   6.215   3.094   2.832 -0.3086 -0.1990 -0.6491
 1580TIP3    H126231   6.125   3.122   2.815 -0.7255 -1.2046 -0.1733
 1580TIP3    H226232   6.250   3.071   2.747 -0.8303 -0.7293 -0.7288
 1581TIP3   OH226233   0.403   2.466   5.541  0.1343  0.0395  0.1247
 1581TIP3    H126234   0.344   2.442   5.613  1.5152 -1.5426  0.8068
 1581TIP3    H226235   0.344   2.494   5.471 -1.2495  2.0064  1.9468
 1582TIP3   OH226236   6.758   4.243   2.523  0.0655 -0.5668  0.3177
 1582TIP3    H126237   6.771   4.309   2.592 -2.5865  0.4523 -0.0457
 1582TIP3    H226238   6.842   4.242   2.476  1.9524 -1.2335  3.3746
 1583TIP3   OH226239   5.099   0.290  16.932 -0.3816  0.6425  0.7080
 1583TIP3    H126240   5.151   0.304  17.011 -0.1938 -0.5874  0.8350
 1583TIP3    H226241   5.161   0.252  16.870 -0.3840  2.1461 -0.2512
 1584TIP3   OH226242   3.345   0.572  13.459 -0.1638 -0.1324  0.8603
 1584TIP3    H126243   3.365   0.538  13.546  1.6687 -1.0526  0.1208
 1584TIP3    H226244   3.276   0.514  13.425  0.8170 -1.2796  0.7841
 1585TIP3   OH226245   3.523   1.156   0.850  0.2327 -0.1534 -0.2308
 1585TIP3    H126246   3.588   1.191   0.911 -0.6333  1.6313 -0.2682
 1585TIP3    H226247   3.458   1.113   0.906  0.9962 -1.2107 -0.1376
 1586TIP3   OH226248   2.792   1.200   2.679 -0.0195  0.4610  0.6390
 1586TIP3    H126249   2.827   1.268   2.737  1.4904  0.2036  0.0846
 1586TIP3    H226250   2.770   1.247   2.598  1.0038  0.3145  0.2634
 1587TIP3   OH226251   3.110   1.457  14.454  0.6225  0.4180 -0.3813
 1587TIP3    H126252   3.144   1.533  14.408  0.2793 -0.1279 -1.6029
 1587TIP3    H226253   3.030   1.434  14.406  0.4609 -0.4228  0.2580
 1588TIP3   OH226254   3.960   2.232  14.439 -0.9905 -0.0809 -0.2056
 1588TIP3    H126255   3.956   2.324  14.413 -2.7134 -0.1599 -0.3471
 1588TIP3    H226256   3.970   2.184  14.357  0.8803 -0.0196 -0.0626
 1589TIP3   OH226257   0.547   6.402  12.586 -0.1906  0.1295  0.1545
 1589TIP3    H126258   0.462   6.408  12.543  0.2417 -0.1490 -0.7635
 1589TIP3    H226259   0.538   6.330  12.648 -0.1348 -1.0120 -1.1194
 1590TIP3   OH226260   6.098   1.687   6.534 -0.5957 -0.1266  0.6870
 1590TIP3    H126261   6.005   1.682   6.555 -0.6038 -2.2359  0.3501
 1590TIP3    H226262   6.137   1.612   6.579  0.4696 -0.8616 -1.3406
 1591TIP3   OH226263   4.944   2.504  13.221 -0.8905 -0.7743  0.0440
 1591TIP3    H126264   4.900   2.428  13.180 -0.5327 -0.5942 -0.6890
 1591TIP3    H226265   4.892   2.579  13.193 -1.4976 -0.7733  1.1216
 1592TIP3   OH226266   3.598   4.876   5.460 -0.0051  0.0667 -0.2198
 1592TIP3    H126267   3.678   4.838   5.495 -0.9453 -1.6595  0.1574
 1592TIP3    H226268   3.619   4.898   5.369  0.8479 -0.4765 -0.1620
 1593TIP3   OH226269   1.285   5.357   2.373 -0.4272  0.1434  0.6270
 1593TIP3    H126270   1.311   5.445   2.345 -1.6878  0.0122 -1.0559
 1593TIP3    H226271   1.364   5.321   2.413  0.2979  1.7896  0.7901
 1594TIP3   OH226272   3.711   5.636   2.830  0.4291  0.2870 -0.6541
 1594TIP3    H126273   3.689   5.688   2.753 -0.4707 -0.8249 -1.1797
 1594TIP3    H226274   3.627   5.617   2.871  0.9812  1.9530  1.3784
 1595TIP3   OH226275   3.509   2.935  14.288  0.2375  0.0464  0.1234
 1595TIP3    H126276   3.568   3.000  14.327 -0.7135  0.9889  0.0183
 1595TIP3    H226277   3.439   2.987  14.248 -0.4126 -1.0374 -0.1758
 1596TIP3   OH226278   0.144   4.443  11.859  0.0081 -0.5495  0.2127
 1596TIP3    H126279   0.192   4.365  11.830  1.8574  0.3939  0.6327
 1596TIP3    H226280   0.127   4.427  11.952 -2.2868 -1.7227 -0.3130
 1597TIP3   OH226281   1.461   5.432  15.561  0.3532 -0.3078 -0.3045
 1597TIP3    H126282   1.481   5.448  15.653  0.8404  0.6722 -0.5792
 1597TIP3    H226283   1.430   5.516  15.528 -1.7042 -1.0975 -0.5755
 1598TIP3   OH226284   5.694   2.223   4.321  0.1228  0.1883 -0.4981
 1598TIP3    H126285   5.710   2.142   4.369 -0.4851  0.6114  0.4607
 1598TIP3    H226286   5.768   2.231   4.260  0.6015 -0.6696 -0.0389
 1599TIP3   OH226287   0.010   2.689   4.048  0.1898  0.0754  0.0757
 1599TIP3    H126288   0.005   2.690   3.953  2.6926  0.9888 -0.1172
 1599TIP3    H226289   0.013   2.596   4.071 -0.9091 -0.1663 -0.6650
 1600TIP3   OH226290   4.791   1.131   4.274 -0.2422 -0.2226  0.2390
 1600TIP3    H126291   4.723   1.078   4.233 -0.8183 -1.7661  2.9839
 1600TIP3    H226292   4.744   1.189   4.334  0.7654 -0.1074  0.9408
 1601TIP3   OH226293   3.781   1.922   3.161  0.2751 -0.5986  0.4226
 1601TIP3    H126294   3.876   1.923   3.165  0.6106 -1.1169 -3.2762
 1601TIP3    H226295   3.755   1.851   3.220  2.4344 -2.3110 -0.5296
 1602TIP3   OH226296   1.180   3.605  16.884 -0.1894  0.0239  0.2964
 1602TIP3    H126297   1.103   3.609  16.940 -0.5668 -0.2947 -0.1886
 1602TIP3    H226298   1.185   3.513  16.857 -0.7164  0.3945 -1.1459
 1603TIP3   OH226299   4.238   0.646   5.428  0.4884  0.5910  0.1149
 1603TIP3    H126300   4.305   0.582   5.454 -0.6850  0.2747  2.6655
 1603TIP3    H226301   4.214   0.621   5.339  1.6852 -1.1090  0.2267
 1604TIP3   OH226302   4.914   1.348   4.872 -0.5882 -0.0452 -0.0751
 1604TIP3    H126303   4.966   1.330   4.951 -0.4293 -1.6308 -0.5094
 1604TIP3    H226304   4.883   1.437   4.884 -0.4390 -0.1974  1.7165
 1605TIP3   OH226305   4.783   6.195  15.510 -0.0887 -0.2437  0.2720
 1605TIP3    H126306   4.725   6.209  15.436  1.3056 -1.4894 -1.1434
 1605TIP3    H226307   4.870   6.187  15.470  0.5719 -2.0004  1.9205
 1606TIP3   OH226308   6.799   4.764  12.946  0.0059 -0.0883  0.5246
 1606TIP3    H126309   6.838   4.813  13.018  2.8574  2.7223 -2.5861
 1606TIP3    H226310   6.868   4.704  12.917 -0.6141 -0.2674 -0.6555
 1607TIP3   OH226311   2.024   4.535  17.061  0.0350  0.1166 -0.3636
 1607TIP3    H126312   1.998   4.570  17.146  0.7442 -0.2687  0.0274
 1607TIP3    H226313   2.079   4.459  17.083 -0.6726 -0.6473 -1.1738
 1608TIP3   OH226314   4.098   1.864   5.356 -0.0636 -0.2800 -0.7267
 1608TIP3    H126315   4.006   1.861   5.382  0.2713  0.5989  0.6840
 1608TIP3    H226316   4.146   1.841   5.436  0.9627 -0.2049 -1.3024
 1609TIP3   OH226317   4.621   3.560   4.617 -0.3306 -0.2068  0.0425
 1609TIP3    H126318   4.549   3.528   4.563  0.0655  0.0721 -0.6660
 1609TIP3    H226319   4.617   3.507   4.697 -0.3478 -1.2778 -0.6482
 1610TIP3   OH226320   5.953   4.513   2.343 -0.0804 -0.0569  0.2052
 1610TIP3    H126321   5.946   4.439   2.282 -0.7292 -1.3274  1.7693
 1610TIP3    H226322   5.929   4.590   2.290  1.3163 -0.8051 -1.6529
 1611TIP3   OH226323   6.101   3.775  14.980  0.3626 -0.5896  0.4659
 1611TIP3    H126324   6.053   3.830  15.043  1.4739  0.3531  0.5196
 1611TIP3    H226325   6.165   3.834  14.941  1.4412 -1.8016  0.3447
 1612TIP3   OH226326   1.433   2.720   2.121 -0.4780 -0.7906 -0.0330
 1612TIP3    H126327   1.445   2.642   2.067  0.8026 -0.3618 -0.4132
 1612TIP3    H226328   1.479   2.789   2.073  0.4720 -0.3446  1.4766
 1613TIP3   OH226329   4.080   3.318   3.854  0.2170  0.2173 -0.1274
 1613TIP3    H126330   4.111   3.280   3.772 -1.7996  0.5634 -1.1094
 1613TIP3    H226331   4.012   3.381   3.828 -0.3044  0.5225  1.7815
 1614TIP3   OH226332   6.667   5.475   2.703 -0.7059 -0.1670  0.6835
 1614TIP3    H126333   6.679   5.408   2.771  0.6797  1.2160  1.8793
 1614TIP3    H226334   6.746   5.470   2.650 -0.9923 -0.0617  0.2392
 1615TIP3   OH226335   3.777   5.435  15.558 -0.1465  0.0082  0.4058
 1615TIP3    H126336   3.823   5.478  15.486 -0.2008 -0.4973  0.0624
 1615TIP3    H226337   3.693   5.482  15.564  0.1358  0.4941  0.5922
 1616TIP3   OH226338   4.563   1.733  14.932 -0.2196 -0.3243 -0.5036
 1616TIP3    H126339   4.494   1.719  14.868 -1.9843  1.4023  0.9077
 1616TIP3    H226340   4.623   1.796  14.891 -0.5247 -0.3585 -1.0007
 1617TIP3   OH226341   4.718   0.812  11.240  0.1442 -0.0788 -0.4116
 1617TIP3    H126342   4.813   0.806  11.245  0.1812 -0.1710 -1.1131
 1617TIP3    H226343   4.687   0.730  11.278  0.3588 -0.2007 -0.4960
 1618TIP3   OH226344   6.432   6.399  14.475 -0.0015  0.3119  0.7270
 1618TIP3    H126345   6.408   6.308  14.455  2.5776 -0.5975  1.4217
 1618TIP3    H226346   6.434   6.442  14.389  0.4005 -0.7328  0.1981
 1619TIP3   OH226347   0.640   5.483  11.584  0.2969 -0.1225 -0.2760
 1619TIP3    H126348   0.568   5.419  11.582  0.9963 -0.9008 -1.7111
 1619TIP3    H226349   0.605   5.555  11.637 -1.8030 -0.1832 -1.4467
 1620TIP3   OH226350   4.104   3.515   2.442  0.1557  0.1298  0.0822
 1620TIP3    H126351   4.137   3.436   2.400  0.7092  0.6565 -0.4874
 1620TIP3    H226352   4.176   3.546   2.497 -0.0240  0.3015  0.2255
 1621TIP3   OH226353   5.029   0.056   2.142 -0.2289 -0.4515 -0.3266
 1621TIP3    H126354   4.965   0.011   2.197 -0.2224  2.2860  2.1895
 1621TIP3    H226355   5.101   0.077   2.201  0.6450  1.0547 -1.8367
 1622TIP3   OH226356   1.355   1.307  13.235 -0.2426 -0.3343  0.6154
 1622TIP3    H126357   1.356   1.398  13.263 -3.2640  0.3388 -0.9298
 1622TIP3    H226358   1.404   1.307  13.153 -1.1124  0.1815  0.0754
 1623TIP3   OH226359   5.914   2.532   3.902 -0.0147  0.3350  0.1617
 1623TIP3    H126360   5.887   2.554   3.992 -0.6352  0.6689 -0.1011
 1623TIP3    H226361   5.834   2.540   3.850  0.2548 -0.2671 -0.3572
 1624TIP3   OH226362   6.332   4.368  13.021 -0.2864  0.5318  0.3140
 1624TIP3    H126363   6.238   4.358  13.014 -0.1477 -1.5322  0.7494
 1624TIP3    H226364   6.361   4.395  12.934 -1.3211  1.9039  0.3657
 1625TIP3   OH226365   2.136   5.728  16.708 -0.3649 -0.1093 -0.0347
 1625TIP3    H126366   2.068   5.740  16.642 -0.2188 -1.0888 -0.3751
 1625TIP3    H226367   2.161   5.818  16.733 -1.0547  0.2621 -0.6475
 1626TIP3   OH226368   0.763   2.820   6.565 -0.2029 -0.2074 -0.0206
 1626TIP3    H126369   0.734   2.740   6.521  2.5105 -1.3163  0.0546
 1626TIP3    H226370   0.774   2.795   6.657 -0.8048  0.7162  0.3310
 1627TIP3   OH226371   4.966   1.269  16.474  0.1758  0.0102 -0.0819
 1627TIP3    H126372   4.942   1.322  16.398  0.5386  1.5191  0.8028
 1627TIP3    H226373   5.027   1.324  16.523 -0.8272 -0.4780  1.8341
 1628TIP3   OH226374   4.693   5.722   4.238 -0.4897  0.1952  0.2311
 1628TIP3    H126375   4.624   5.736   4.174 -1.2683 -0.8902  0.8149
 1628TIP3    H226376   4.774   5.732   4.188 -1.0103  2.3485 -0.2849
 1629TIP3   OH226377   1.010   3.328  15.012 -0.1429 -0.1190  0.5568
 1629TIP3    H126378   0.994   3.422  15.008  0.3885 -0.0413  0.1458
 1629TIP3    H226379   0.999   3.306  15.105 -0.3725  0.3288  0.6373
 1630TIP3   OH226380   2.201   6.602  13.445  0.6916  0.0717  0.4039
 1630TIP3    H126381   2.228   6.635  13.531  0.4430 -0.4705  0.6947
 1630TIP3    H226382   2.282   6.601  13.393  1.0505 -0.5773  0.9576
 1631TIP3   OH226383   1.297   1.968   2.709  0.2960  0.4907 -0.1786
 1631TIP3    H126384   1.209   1.992   2.680  0.5308  0.1579 -1.2182
 1631TIP3    H226385   1.296   1.982   2.804 -1.3300 -0.8903  0.0518
 1632TIP3   OH226386   0.328   6.118  14.598  0.2367  0.0969 -0.0497
 1632TIP3    H126387   0.278   6.038  14.611 -1.1109  0.8707 -0.2546
 1632TIP3    H226388   0.263   6.184  14.574  1.2571  1.3381  0.4320
 1633TIP3   OH226389   5.607   4.018   6.596 -0.1927  0.5894  0.0503
 1633TIP3    H126390   5.513   4.007   6.582 -0.5149  2.3181  0.6485
 1633TIP3    H226391   5.631   4.091   6.539  0.9807 -0.3206 -0.6784
 1634TIP3   OH226392   4.981   4.466   0.996  0.4400  0.0684  0.2263
 1634TIP3    H126393   5.049   4.526   0.965 -0.7181  1.2768 -0.0127
 1634TIP3    H226394   4.902   4.519   1.002 -0.5707 -1.3804  0.2293
 1635TIP3   OH226395   0.888   6.035  16.981 -0.8304 -0.2084 -0.0044
 1635TIP3    H126396   0.946   5.960  16.970 -1.0076 -0.4239  0.5391
 1635TIP3    H226397   0.832   6.012  17.055 -1.9870 -0.2395 -0.8640
 1636TIP3   OH226398   5.004   0.804   1.377  0.3518 -0.5799 -0.0145
 1636TIP3    H126399   5.094   0.772   1.384 -0.0505 -1.8364 -0.3655
 1636TIP3    H226400   4.950   0.728   1.394 -0.6480  0.0071 -0.4820
 1637TIP3   OH226401   0.073   5.118   4.853  0.0022 -0.4563 -0.6894
 1637TIP3    H126402   0.063   5.081   4.765 -0.2403 -1.5171 -0.2382
 1637TIP3    H226403   0.168   5.125   4.865  0.1552 -2.7003 -0.1267
 1638TIP3   OH226404   4.483   6.144  13.635  0.0457  0.3076 -0.2199
 1638TIP3    H126405   4.512   6.097  13.714 -1.9045 -2.4668 -1.0160
 1638TIP3    H226406   4.436   6.220  13.669 -0.0810 -0.4025  1.3039
 1639TIP3   OH226407   0.521   6.403   3.972 -0.1877  0.8640 -0.1963
 1639TIP3    H126408   0.528   6.417   3.878 -1.3164  1.2275 -0.2401
 1639TIP3    H226409   0.520   6.307   3.983 -1.2154  0.8091 -0.6654
 1640TIP3   OH226410   1.626   0.853  17.162 -0.2450 -0.1231 -0.6655
 1640TIP3    H126411   1.716   0.883  17.175 -0.5388  0.3247  0.4143
 1640TIP3    H226412   1.577   0.931  17.140 -0.9805  0.2802  2.0077
 1641TIP3   OH226413   5.602   6.319  14.717 -0.3807  0.5098 -0.2942
 1641TIP3    H126414   5.555   6.239  14.742  0.4534  0.2963  0.6520
 1641TIP3    H226415   5.627   6.305  14.626  1.1975 -1.0500  0.3289
 1642TIP3   OH226416   3.294   0.176  11.901  0.3879  0.4723  0.0934
 1642TIP3    H126417   3.362   0.243  11.896  1.2922 -0.4236  0.2749
 1642TIP3    H226418   3.237   0.195  11.826  1.3763  0.6372 -0.6415
 1643TIP3   OH226419   3.992   3.005  12.135 -0.3813  0.4793  0.1047
 1643TIP3    H126420   4.022   3.036  12.049  0.7321 -0.3975  0.1588
 1643TIP3    H226421   4.069   3.012  12.191 -1.4526  2.3789  1.4452
 1644TIP3   OH226422   0.761   3.646  13.726  0.1809  0.0242  0.0245
 1644TIP3    H126423   0.684   3.601  13.760  0.8122 -1.8821 -0.8784
 1644TIP3    H226424   0.728   3.706  13.661 -0.5254 -1.5452 -1.1308
 1645TIP3   OH226425   2.211   2.373  12.377 -0.2142 -0.2364  0.1854
 1645TIP3    H126426   2.124   2.344  12.401 -0.8736  2.2290  1.1357
 1645TIP3    H226427   2.202   2.404  12.286 -0.3665  0.1166  0.3194
 1646TIP3   OH226428   2.422   2.800  16.482 -0.2462  0.1780  0.3607
 1646TIP3    H126429   2.350   2.747  16.446  0.3863 -0.4504 -0.0047
 1646TIP3    H226430   2.474   2.739  16.533  1.0670  0.1926 -0.8951
 1647TIP3   OH226431   3.699   1.349   3.902  0.0613 -0.3727  0.4016
 1647TIP3    H126432   3.614   1.393   3.894 -0.7214 -2.0663 -1.1847
 1647TIP3    H226433   3.763   1.418   3.883 -1.0062  0.6135  0.2352
 1648TIP3   OH226434   4.694   1.377   1.232 -0.1441 -0.0662  0.0373
 1648TIP3    H126435   4.726   1.301   1.184 -2.5685 -2.3872  1.7577
 1648TIP3    H226436   4.710   1.355   1.324 -0.3587  1.8259  0.5732
 1649TIP3   OH226437   4.655   3.807  13.905  0.0612  0.0395  0.2317
 1649TIP3    H126438   4.611   3.857  13.836 -0.5983  1.2870  1.4918
 1649TIP3    H226439   4.593   3.738  13.929  0.3708 -0.5128 -0.5299
 1650TIP3   OH226440   2.667   4.832   2.382  0.6599  0.1673  0.4573
 1650TIP3    H126441   2.744   4.888   2.390  0.4179  0.5157  0.3600
 1650TIP3    H226442   2.700   4.752   2.340  0.5683  1.1994 -1.7274
 1651TIP3   OH226443   4.232   0.596  16.048 -0.1077  0.6348  0.6883
 1651TIP3    H126444   4.138   0.604  16.060 -0.2559  0.5429 -0.3434
 1651TIP3    H226445   4.267   0.593  16.137 -1.1419 -0.1624  1.0876
 1652TIP3   OH226446   4.160   3.188  14.076 -0.0698 -0.3218  0.2461
 1652TIP3    H126447   4.076   3.226  14.049 -0.2319 -1.6332 -1.2111
 1652TIP3    H226448   4.145   3.158  14.165 -1.0136 -0.1183  0.1684
 1653TIP3   OH226449   3.683   0.012  15.489  0.2054 -0.5811  0.6677
 1653TIP3    H126450   3.739  -0.049  15.441 -0.0217 -0.5404  0.3517
 1653TIP3    H226451   3.742   0.055  15.551  0.8464  0.5887 -0.6980
 1654TIP3   OH226452   6.068   5.737   4.864 -0.1895  0.2744  0.1966
 1654TIP3    H126453   6.070   5.724   4.770  0.3411 -0.2937  0.2798
 1654TIP3    H226454   5.976   5.752   4.885 -0.2885  0.5383 -0.4264
 1655TIP3   OH226455   4.299   5.990  11.284  0.8898 -0.2054  0.6410
 1655TIP3    H126456   4.227   6.022  11.338  0.2409 -1.3048  0.4490
 1655TIP3    H226457   4.353   5.937  11.343  0.4844 -0.9487  0.3582
 1656TIP3   OH226458   4.174   0.801  14.676  0.3626  0.2505 -0.2240
 1656TIP3    H126459   4.124   0.849  14.610 -0.0459 -0.7487 -0.6618
 1656TIP3    H226460   4.213   0.728  14.629 -2.4111 -2.2980  1.0929
 1657TIP3   OH226461   6.640   0.666   6.197  0.3529 -0.4942 -0.0358
 1657TIP3    H126462   6.701   0.598   6.168  0.0306 -0.9699  0.3769
 1657TIP3    H226463   6.633   0.653   6.292 -2.8996 -2.6131 -0.4407
 1658TIP3   OH226464   4.679   3.763   0.845  0.1042  0.2120  0.7197
 1658TIP3    H126465   4.698   3.711   0.923  0.4271 -0.3216  0.2910
 1658TIP3    H226466   4.687   3.701   0.772  0.1647  0.7890  0.2315
 1659TIP3   OH226467   0.027   1.248   5.722  0.0759  0.2716  0.3457
 1659TIP3    H126468   0.048   1.155   5.710 -0.4964  0.3450 -1.3362
 1659TIP3    H226469   0.041   1.288   5.636 -1.8060  1.3317  0.4795
 1660TIP3   OH226470   3.082   5.741   1.204 -0.1914  0.1652  0.1896
 1660TIP3    H126471   3.106   5.702   1.289 -1.4118 -2.0347 -0.3848
 1660TIP3    H226472   3.139   5.698   1.141 -1.6788 -0.8993 -0.4879
 1661TIP3   OH226473   3.996   2.719   4.104  0.6181 -0.2003 -0.2898
 1661TIP3    H126474   3.928   2.785   4.088 -0.1775 -0.4648  1.6505
 1661TIP3    H226475   3.947   2.637   4.112  1.5074 -0.9122 -1.7848
 1662TIP3   OH226476   6.488   6.699   4.580 -0.0069 -0.0049 -0.6223
 1662TIP3    H126477   6.579   6.716   4.602 -0.2281  0.1538  0.2286
 1662TIP3    H226478   6.487   6.688   4.485  0.5317  2.3854 -0.9642
 1663TIP3   OH226479   1.654   6.156   6.537  0.2585 -0.7303  0.3488
 1663TIP3    H126480   1.606   6.233   6.567  1.0036 -0.6531  1.4165
 1663TIP3    H226481   1.678   6.110   6.617  0.4755 -1.6757 -0.2429
 1664TIP3   OH226482   6.759   0.953  11.090  0.2463 -0.1141  0.0494
 1664TIP3    H126483   6.850   0.983  11.089 -0.0450  0.7736 -1.3336
 1664TIP3    H226484   6.754   0.887  11.021 -0.1664 -0.1781  0.1373
 1665TIP3   OH226485   5.453   0.859   6.108 -0.3683 -0.7519  0.1153
 1665TIP3    H126486   5.364   0.824   6.107 -1.3103  1.4844 -0.2663
 1665TIP3    H226487   5.510   0.782   6.114 -2.2628 -2.3367 -1.2225
 1666TIP3   OH226488   5.403   2.261   0.532  0.0523 -0.3816  0.1206
 1666TIP3    H126489   5.394   2.356   0.544  0.6700 -0.4776  1.5168
 1666TIP3    H226490   5.394   2.248   0.437  1.0042  1.1875 -0.2235
 1667TIP3   OH226491   3.310   4.296  16.965 -0.5595  0.1278  0.1493
 1667TIP3    H126492   3.341   4.216  16.923 -0.6273 -0.0259  0.3881
 1667TIP3    H226493   3.297   4.358  16.894 -2.2007 -0.6209 -0.2574
 1668TIP3   OH226494   3.316   2.638   3.990  0.2382 -0.2618 -0.1644
 1668TIP3    H126495   3.306   2.693   4.067 -1.4792  1.6035 -1.6048
 1668TIP3    H226496   3.230   2.599   3.977  0.7167 -1.1712 -0.7014
 1669TIP3   OH226497   1.838   4.526  12.395 -0.1429 -0.5078 -0.2950
 1669TIP3    H126498   1.894   4.590  12.351 -1.5507  1.1561  0.2379
 1669TIP3    H226499   1.798   4.476  12.324  1.4632 -1.2817 -0.6993
 1670TIP3   OH226500   1.821   0.923  11.543  0.9994 -0.0398 -0.0378
 1670TIP3    H126501   1.772   0.928  11.461  0.8431 -0.2502  0.0417
 1670TIP3    H226502   1.910   0.950  11.519  1.3096 -1.4774 -0.5785
 1671TIP3   OH226503   1.633   1.897   2.433  0.2765  0.0182 -0.3052
 1671TIP3    H126504   1.616   1.842   2.509 -0.3234 -0.7505 -0.9729
 1671TIP3    H226505   1.621   1.986   2.464 -1.1551 -0.3374  0.2150
 1672TIP3   OH226506   4.871   0.557   5.671 -0.3421 -0.8815  0.0388
 1672TIP3    H126507   4.949   0.514   5.707  1.0287  0.4149 -1.2077
 1672TIP3    H226508   4.905   0.638   5.633 -2.4753  0.1558  0.2619
 1673TIP3   OH226509   4.886   4.187  16.184 -0.0393 -0.1834 -0.3226
 1673TIP3    H126510   4.884   4.273  16.225 -0.6810 -0.0547 -0.5979
 1673TIP3    H226511   4.955   4.194  16.118 -0.7605  0.4594 -1.0322
 1674TIP3   OH226512   4.447   4.879   3.312  0.4299 -0.1458  0.5921
 1674TIP3    H126513   4.440   4.799   3.261 -2.2210  0.9867 -0.9948
 1674TIP3    H226514   4.493   4.940   3.254 -2.4060  1.0788 -0.5688
 1675TIP3   OH226515   1.768   0.849   3.928 -0.8395 -0.4471  0.0239
 1675TIP3    H126516   1.751   0.822   4.018  0.5055  2.0883  1.1481
 1675TIP3    H226517   1.682   0.847   3.886 -1.5876 -1.1399  1.5097
 1676TIP3   OH226518   0.284   1.490   5.072  0.0089  0.1481 -0.4818
 1676TIP3    H126519   0.273   1.585   5.081 -0.9303  0.0707 -0.7023
 1676TIP3    H226520   0.320   1.479   4.984  1.0567  0.3561 -0.0899
 1677TIP3   OH226521   5.029   4.553  13.534 -0.6191  0.2452  0.3332
 1677TIP3    H126522   5.067   4.632  13.496 -0.3032  0.4626  1.0842
 1677TIP3    H226523   4.963   4.585  13.596  1.6046  0.0776  2.9496
 1678TIP3   OH226524   2.619   2.239   4.970  0.0105  0.5305  0.8540
 1678TIP3    H126525   2.542   2.181   4.975 -1.2231  2.1007  1.0382
 1678TIP3    H226526   2.663   2.229   5.054  0.1723 -0.5940  0.6429
 1679TIP3   OH226527   4.040   2.411  15.650 -1.1302  0.6121  0.0502
 1679TIP3    H126528   3.953   2.431  15.615 -0.7888  0.4068 -0.9404
 1679TIP3    H226529   4.085   2.495  15.652 -0.5474  0.3752 -1.7306
 1680TIP3   OH226530   4.178   4.372  16.360 -0.3361  0.2288  0.1151
 1680TIP3    H126531   4.082   4.374  16.363 -0.3168  1.2636  0.4070
 1680TIP3    H226532   4.199   4.283  16.331 -1.3946  0.1518 -0.4795
 1681TIP3   OH226533   2.111   6.493   4.462  0.0842  0.1086 -0.4306
 1681TIP3    H126534   2.066   6.409   4.452 -1.7504  1.0468 -0.5167
 1681TIP3    H226535   2.199   6.478   4.428  0.5258 -2.3582  1.5587
 1682TIP3   OH226536   1.605   2.261  16.081 -0.0425 -0.1317  0.0061
 1682TIP3    H126537   1.617   2.356  16.087 -0.5518  0.0660 -1.5390
 1682TIP3    H226538   1.658   2.235  16.005 -0.5457 -0.9522 -0.0763
 1683TIP3   OH226539   2.845   2.534  14.433 -0.4012 -0.0888  0.6353
 1683TIP3    H126540   2.879   2.445  14.444 -0.3000 -0.0655  0.5114
 1683TIP3    H226541   2.770   2.524  14.374  0.3168  0.0604 -0.3209
 1684TIP3   OH226542   3.784   4.097  12.144 -0.1089  0.8398 -0.5740
 1684TIP3    H126543   3.716   4.087  12.078 -2.3503 -0.1293  1.7292
 1684TIP3    H226544   3.737   4.100  12.227  2.6756  0.0126  1.1637
 1685TIP3   OH226545   1.894   6.107   6.361  0.4287  0.0202 -0.0292
 1685TIP3    H126546   1.809   6.101   6.405  0.3812 -0.8894 -0.2295
 1685TIP3    H226547   1.905   6.200   6.344  0.0750  0.3045  1.1765
 1686TIP3   OH226548   4.483   1.669   0.463 -0.3562 -0.3411  0.0521
 1686TIP3    H126549   4.474   1.764   0.460 -1.2186 -0.4299 -0.5020
 1686TIP3    H226550   4.543   1.648   0.392  0.0855 -0.1946  0.3736
 1687TIP3   OH226551   3.202   0.338  15.587 -0.2420  0.0214  0.1809
 1687TIP3    H126552   3.148   0.416  15.598  0.2959  0.3404  0.6271
 1687TIP3    H226553   3.190   0.313  15.495  0.8965  1.6350 -0.4411
 1688TIP3   OH226554   4.737   1.157  15.241  0.3052 -0.2982  0.0307
 1688TIP3    H126555   4.778   1.186  15.160 -1.5755 -1.9702 -1.6224
 1688TIP3    H226556   4.760   1.064  15.247 -0.0520 -0.3301  1.1154
 1689TIP3   OH226557   6.143   3.192  12.539  0.3168 -0.0825 -0.0788
 1689TIP3    H126558   6.236   3.177  12.524  0.9776 -0.6003  3.5228
 1689TIP3    H226559   6.140   3.250  12.615 -2.1697 -2.6511  2.0270
 1690TIP3   OH226560   5.627   5.354  11.983 -0.8358 -0.1703 -0.1606
 1690TIP3    H126561   5.589   5.428  11.935 -0.1924 -0.0734 -0.5323
 1690TIP3    H226562   5.613   5.375  12.075 -1.8026 -0.2008 -0.2887
 1691TIP3   OH226563   5.765   4.223  15.882  0.7343 -0.3798  0.2565
 1691TIP3    H126564   5.739   4.293  15.822  2.4855 -0.9670 -1.2645
 1691TIP3    H226565   5.716   4.242  15.962  0.1710  1.8407 -0.5203
 1692TIP3   OH226566   0.432   1.393   2.802  0.7933  0.4051 -0.1056
 1692TIP3    H126567   0.405   1.426   2.887  1.2862 -0.7958  0.5365
 1692TIP3    H226568   0.354   1.400   2.747  0.0290 -0.2655  0.8786
 1693TIP3   OH226569   4.963   1.347  14.461  0.5502  1.3977 -0.1501
 1693TIP3    H126570   4.927   1.416  14.517 -2.1431 -1.2444  1.6851
 1693TIP3    H226571   4.888   1.292  14.439  2.9695 -3.5039  2.2920
 1694TIP3   OH226572   4.315   0.247   0.001 -0.8718 -0.3388 -0.6353
 1694TIP3    H126573   4.409   0.235   0.012 -0.9177  0.8775  1.5379
 1694TIP3    H226574   4.275   0.182   0.059 -1.3164  0.5896  0.1196
 1695TIP3   OH226575   0.623   5.624   5.958  0.0532  0.5505  0.0298
 1695TIP3    H126576   0.538   5.624   6.001 -0.8519 -1.2372 -1.5856
 1695TIP3    H226577   0.676   5.562   6.009 -0.2334  0.2527 -0.0308
 1696TIP3   OH226578   1.830   1.983   3.399  0.5429 -0.4280  0.2741
 1696TIP3    H126579   1.867   1.915   3.455 -1.6578 -2.0418 -0.1002
 1696TIP3    H226580   1.737   1.987   3.424  0.1973  1.0879 -1.0713
 1697TIP3   OH226581   0.840   6.608  15.305 -0.0559 -0.8339 -0.0029
 1697TIP3    H126582   0.879   6.521  15.313 -0.2802 -1.0166 -0.7546
 1697TIP3    H226583   0.880   6.645  15.227  0.1094 -0.2186  0.3720
 1698TIP3   OH226584   3.761   1.297  10.344  0.3344  0.3109  0.1606
 1698TIP3    H126585   3.770   1.223  10.404  1.1764  0.0979 -0.2078
 1698TIP3    H226586   3.833   1.286  10.282  1.6301  2.4304  1.1623
 1699TIP3   OH226587   0.098   4.710  12.619  0.1353  0.3404 -0.6326
 1699TIP3    H126588   0.176   4.660  12.641 -0.7068 -0.3585  0.9639
 1699TIP3    H226589   0.126   4.770  12.550  2.0634  0.0961 -0.1227
 1700TIP3   OH226590   2.544   6.225   3.547  0.3842 -0.3851 -0.2120
 1700TIP3    H126591   2.576   6.161   3.483  0.6250 -0.1645 -0.3124
 1700TIP3    H226592   2.614   6.291   3.552  0.2764 -0.2981  0.1283
 1701TIP3   OH226593   0.863   6.283  16.800  0.4242  0.5325  0.0438
 1701TIP3    H126594   0.856   6.194  16.836 -0.1443  1.0055  1.1434
 1701TIP3    H226595   0.913   6.331  16.866 -1.9136  1.7996  1.0249
 1702TIP3   OH226596   1.107   3.375  14.021 -0.2322 -0.2322  0.5019
 1702TIP3    H126597   1.133   3.414  13.937 -1.3730 -1.7123 -0.5994
 1702TIP3    H226598   1.188   3.373  14.072  0.3515  1.3360 -0.2658
 1703TIP3   OH226599   3.279   5.447   3.619 -0.2042  0.3631 -0.5721
 1703TIP3    H126600   3.311   5.495   3.695 -0.4038  0.7049 -0.7051
 1703TIP3    H226601   3.187   5.474   3.610  0.3135  1.7559 -2.0497
 1704TIP3   OH226602   3.292   6.792  14.714 -0.0041  0.1451 -0.2373
 1704TIP3    H126603   3.337   6.738  14.779 -1.2457 -1.8044 -0.9206
 1704TIP3    H226604   3.299   6.743  14.632 -0.2385  1.5694 -1.1660
 1705TIP3   OH226605   1.101   5.585   0.844 -0.0471  0.2969 -0.5156
 1705TIP3    H126606   1.154   5.664   0.831  0.4222 -0.0302 -0.6413
 1705TIP3    H226607   1.158   5.526   0.894 -0.4874  0.1327 -0.1992
 1706TIP3   OH226608   6.409   3.575  16.506 -0.2410 -0.1814  0.3391
 1706TIP3    H126609   6.322   3.569  16.547  0.6916  0.6998  2.5732
 1706TIP3    H226610   6.410   3.661  16.464 -1.1718 -1.0573 -1.6142
 1707TIP3   OH226611   1.709   1.565  13.467  0.5010  0.1241 -0.0247
 1707TIP3    H126612   1.707   1.656  13.495  0.6389 -0.4801  2.0535
 1707TIP3    H226613   1.742   1.569  13.377  2.0408  1.9948  0.5531
 1708TIP3   OH226614   5.385   0.194  14.368 -0.6462  0.2009 -0.2762
 1708TIP3    H126615   5.476   0.214  14.390 -0.4591 -0.0922 -0.7738
 1708TIP3    H226616   5.376   0.221  14.277 -1.2851  0.9604 -0.0021
 1709TIP3   OH226617   2.782   2.304  15.570 -0.1803 -0.1367  1.0159
 1709TIP3    H126618   2.719   2.269  15.507 -1.4936  0.2725  2.0542
 1709TIP3    H226619   2.750   2.393  15.589  0.9789  0.2552  1.2202
 1710TIP3   OH226620   3.308   3.147   4.235  0.2325 -0.1543 -0.1896
 1710TIP3    H126621   3.220   3.159   4.198  0.5783  0.9788 -0.7107
 1710TIP3    H226622   3.334   3.059   4.207 -0.5842 -0.3495 -0.3603
 1711TIP3   OH226623   1.439   1.823   1.983  0.9135  0.5070 -0.1434
 1711TIP3    H126624   1.454   1.905   1.936  3.0403  1.2659  1.7004
 1711TIP3    H226625   1.452   1.845   2.075 -0.5323 -1.4841  0.5950
 1712TIP3   OH226626   4.505   3.637   5.326 -0.3771  0.2813 -0.9369
 1712TIP3    H126627   4.439   3.603   5.266  1.8919  0.0549 -3.4722
 1712TIP3    H226628   4.542   3.560   5.368 -0.5179  0.2611 -0.8499
 1713TIP3   OH226629   0.857   4.986  15.160 -0.3242  0.2355 -0.0508
 1713TIP3    H126630   0.893   4.923  15.098 -0.6209  0.1471 -0.1315
 1713TIP3    H226631   0.935   5.026  15.200 -0.1135  0.8006 -0.9880
 1714TIP3   OH226632   1.383   1.740  12.944  0.1955  0.1071  0.2105
 1714TIP3    H126633   1.419   1.818  12.901 -0.3497  0.6445  0.6987
 1714TIP3    H226634   1.344   1.774  13.025  1.0173 -0.8490  1.0250
 1715TIP3   OH226635   6.237   1.507   4.790  0.0045  1.1938  0.6951
 1715TIP3    H126636   6.142   1.492   4.797  0.3238 -2.1230 -0.4945
 1715TIP3    H226637   6.248   1.550   4.705 -0.3776  0.0137  0.0133
 1716TIP3   OH226638   1.680   2.417  16.344  0.6229 -0.0638 -0.2686
 1716TIP3    H126639   1.740   2.473  16.394  1.0135  0.1057 -0.9151
 1716TIP3    H226640   1.643   2.475  16.277  0.1500 -0.3020 -0.2163
 1717TIP3   OH226641   1.482   3.613   5.879  0.5577  0.7184 -0.0278
 1717TIP3    H126642   1.388   3.594   5.875  0.2623  1.6855  1.4451
 1717TIP3    H226643   1.509   3.619   5.787 -0.8579  0.6202 -0.4820
 1718TIP3   OH226644   4.374   2.909   1.099 -0.1041  0.1039  0.5327
 1718TIP3    H126645   4.421   2.993   1.092 -0.4356  0.3136  0.7681
 1718TIP3    H226646   4.299   2.929   1.157  0.9539 -0.8534  2.3066
 1719TIP3   OH226647   6.755   0.052   4.671  0.0967 -0.2531  0.0192
 1719TIP3    H126648   6.815  -0.011   4.631  0.0694 -0.0687 -0.3173
 1719TIP3    H226649   6.707   0.090   4.597  0.4196  0.4769  0.1836
 1720TIP3   OH226650   6.389   3.689   0.173 -0.6897  1.0436  0.2627
 1720TIP3    H126651   6.304   3.720   0.204 -1.6701 -1.9900  0.9789
 1720TIP3    H226652   6.379   3.681   0.078 -0.9798  1.3358  0.2674
 1721TIP3   OH226653   4.971   3.580   2.691 -0.4146  0.1854  0.4179
 1721TIP3    H126654   4.960   3.499   2.641  0.4502 -0.2440  0.9039
 1721TIP3    H226655   4.888   3.592   2.736 -1.3574  0.7824 -1.3802
 1722TIP3   OH226656   1.894   3.171   0.816  0.3632  0.3128 -0.6756
 1722TIP3    H126657   1.963   3.109   0.841  0.9366  0.9522 -0.6449
 1722TIP3    H226658   1.870   3.146   0.727  0.6736  0.1220 -0.7060
 1723TIP3   OH226659   3.130   3.417  13.069 -0.2628  0.3080 -0.3640
 1723TIP3    H126660   3.120   3.421  12.974  0.3158 -0.7296 -0.4777
 1723TIP3    H226661   3.136   3.324  13.089 -1.2126  0.4660  0.7879
 1724TIP3   OH226662   2.000   6.229  15.870 -0.4472 -0.1124  0.5043
 1724TIP3    H126663   1.946   6.204  15.795 -1.3841  0.2592  1.0320
 1724TIP3    H226664   2.087   6.241  15.834 -1.0514  0.8769 -0.7050
 1725TIP3   OH226665   3.722   0.205   1.818 -0.5659 -0.1497  0.0790
 1725TIP3    H126666   3.641   0.160   1.795 -0.3773  0.3996 -1.7839
 1725TIP3    H226667   3.788   0.167   1.761 -0.0884  1.3492 -0.4064
 1726TIP3   OH226668   1.603   5.394   5.181 -0.5093  0.0174 -0.3879
 1726TIP3    H126669   1.510   5.376   5.170 -0.8999  0.7265  1.4281
 1726TIP3    H226670   1.607   5.457   5.253  1.3215  0.8005 -1.1062
 1727TIP3   OH226671   3.565   4.733   0.726 -0.3703 -0.3548  0.2631
 1727TIP3    H126672   3.556   4.810   0.782 -1.1329 -0.6147  0.5087
 1727TIP3    H226673   3.475   4.710   0.702 -0.0273  0.5799 -2.2250
 1728TIP3   OH226674   5.074   1.137   3.900 -0.2145 -0.2190  0.2259
 1728TIP3    H126675   5.083   1.124   3.994 -1.2423 -0.4242  0.3033
 1728TIP3    H226676   5.010   1.071   3.872  0.3188 -0.3717 -0.6711
 1729TIP3   OH226677   2.722   4.161   5.801  0.8700  0.6717 -0.7156
 1729TIP3    H126678   2.666   4.096   5.758 -0.1206  1.6606 -0.9604
 1729TIP3    H226679   2.710   4.144   5.894 -1.9636  2.4844 -0.6158
 1730TIP3   OH226680   0.095   2.905  11.700 -0.1890  0.0214  0.1493
 1730TIP3    H126681   0.140   2.851  11.635 -1.2679 -0.6274 -0.0884
 1730TIP3    H226682   0.103   2.855  11.782 -1.7147 -0.8624 -0.1917
 1731TIP3   OH226683   5.869   1.048  14.073 -0.1518 -0.4318 -0.1071
 1731TIP3    H126684   5.948   1.060  14.019 -0.4091  2.5464 -0.0234
 1731TIP3    H226685   5.902   1.025  14.159  0.6198  0.2320 -0.2114
 1732TIP3   OH226686   6.292   2.593   4.009 -0.6421  0.3293  0.1427
 1732TIP3    H126687   6.224   2.656   3.984  1.9512  3.9943  1.4142
 1732TIP3    H226688   6.373   2.631   3.975  1.1446 -2.3679  1.0695
 1733TIP3   OH226689   1.536   3.118   4.826 -0.2688 -0.2866  0.1350
 1733TIP3    H126690   1.569   3.169   4.752 -0.4149 -0.7016 -0.2271
 1733TIP3    H226691   1.472   3.058   4.786 -0.8867 -0.0232  0.7021
 1734TIP3   OH226692   4.843   1.794  16.552  0.7407  0.0263 -0.3004
 1734TIP3    H126693   4.938   1.792  16.568  0.5366 -2.2890  1.1247
 1734TIP3    H226694   4.808   1.844  16.626  0.7431 -0.4660  0.0387
 1735TIP3   OH226695   6.244   4.013   2.967  0.4343 -0.1746  0.0994
 1735TIP3    H126696   6.266   4.060   2.886  0.3517 -2.0821 -1.0774
 1735TIP3    H226697   6.149   4.005   2.964  0.4719 -0.6300  0.1712
 1736TIP3   OH226698   5.193   6.054   4.829 -0.2703 -0.5624 -0.9564
 1736TIP3    H126699   5.229   6.059   4.918 -1.5055  0.0696 -0.4650
 1736TIP3    H226700   5.269   6.037   4.773  0.4845 -1.3052  0.2461
 1737TIP3   OH226701   2.347   4.110  17.030 -0.2953  0.3304 -0.1988
 1737TIP3    H126702   2.267   4.071  17.064 -0.6214  1.8043  0.8112
 1737TIP3    H226703   2.416   4.049  17.056 -1.1029 -1.2945 -1.6518
 1738TIP3   OH226704   0.682   4.504  11.321  0.2904  0.2312 -0.0766
 1738TIP3    H126705   0.754   4.543  11.370  0.1735  0.9672 -0.4842
 1738TIP3    H226706   0.723   4.438  11.265  0.4653 -0.3718  0.7334
 1739TIP3   OH226707   2.824   2.084  14.515  0.0272 -0.1032  0.5415
 1739TIP3    H126708   2.891   2.048  14.457 -1.9582 -2.4902 -0.4097
 1739TIP3    H226709   2.758   2.120  14.457 -1.4324 -1.4523  1.3004
 1740TIP3   OH226710   1.636   6.033   0.536 -0.4645  0.4837 -0.3538
 1740TIP3    H126711   1.721   6.067   0.509  0.1226 -0.8480 -0.2153
 1740TIP3    H226712   1.589   6.110   0.569  0.6727  1.2328 -0.4495
 1741TIP3   OH226713   4.316   3.285   1.959  0.2282 -0.0835 -0.0042
 1741TIP3    H126714   4.370   3.214   1.993 -1.1703 -0.4217  1.6139
 1741TIP3    H226715   4.347   3.363   2.004  1.0413  0.1878 -0.9868
 1742TIP3   OH226716   3.476   5.654  14.287  0.2424  0.4704 -0.6620
 1742TIP3    H126717   3.475   5.749  14.274  0.5979  0.4348 -0.9573
 1742TIP3    H226718   3.394   5.624  14.248 -1.1761  0.9486  1.7617
 1743TIP3   OH226719   3.589   6.816   0.259 -0.9151 -0.0917  0.1959
 1743TIP3    H126720   3.566   6.764   0.336 -0.3483 -0.9286 -0.1898
 1743TIP3    H226721   3.599   6.905   0.293 -0.3288 -0.5057  1.1609
 1744TIP3   OH226722   0.957   4.084   5.407  0.0318 -0.1702  0.2180
 1744TIP3    H126723   0.987   4.136   5.333  0.2821  0.3920  0.7034
 1744TIP3    H226724   0.878   4.040   5.376 -0.9753  1.5603  0.2095
 1745TIP3   OH226725   0.682   2.486   0.432  0.2794 -0.0952  0.6275
 1745TIP3    H126726   0.656   2.565   0.385  1.4246  0.6669  1.2182
 1745TIP3    H226727   0.618   2.420   0.406 -0.2765  0.8308 -0.4413
 1746TIP3   OH226728   3.733   0.895  17.182 -0.0970  0.4750 -0.3850
 1746TIP3    H126729   3.784   0.823  17.217 -0.8297  0.9269  1.7988
 1746TIP3    H226730   3.665   0.853  17.129 -0.8893 -0.5668  1.3358
 1747TIP3   OH226731   2.179   5.042   0.872 -0.5348 -0.3736  0.1956
 1747TIP3    H126732   2.128   5.095   0.933  0.4604  0.4371  0.3346
 1747TIP3    H226733   2.250   5.099   0.843  0.3527 -1.4972  0.0703
 1748TIP3   OH226734   2.805   0.114   2.276 -0.2133 -0.1863 -0.3600
 1748TIP3    H126735   2.814   0.023   2.248 -0.2970  0.1225 -1.4148
 1748TIP3    H226736   2.749   0.155   2.209 -0.2673  0.6145  0.1571
 1749TIP3   OH226737   2.184   4.013  13.217 -0.6032 -0.3009  0.4829
 1749TIP3    H126738   2.181   3.931  13.168 -0.2694 -0.1704  0.2369
 1749TIP3    H226739   2.278   4.028  13.233 -0.7399 -0.7401  1.8424
 1750TIP3   OH226740   1.587   5.439   4.272  0.4952  0.3784  0.1961
 1750TIP3    H126741   1.650   5.409   4.206 -0.9937  1.7376 -1.9610
 1750TIP3    H226742   1.502   5.434   4.228 -0.7386  0.1940  2.4588
 1751TIP3   OH226743   3.612   1.016   4.762 -0.3182 -0.1471 -0.4680
 1751TIP3    H126744   3.698   1.004   4.722  0.1646  2.0359 -0.1847
 1751TIP3    H226745   3.592   1.108   4.750 -1.3349  0.0341  1.9735
 1752TIP3   OH226746   5.932   3.401  11.040 -0.0276 -0.2812 -0.6714
 1752TIP3    H126747   5.918   3.448  10.958  0.2541  0.0943 -0.5087
 1752TIP3    H226748   5.985   3.325  11.016 -1.1406 -0.9560 -1.0643
 1753TIP3   OH226749   0.961   0.874  15.909 -0.1753  0.0152  0.1812
 1753TIP3    H126750   0.873   0.869  15.871 -0.0991 -1.2176  0.1345
 1753TIP3    H226751   0.949   0.849  16.000 -0.0335  0.9388  0.4602
 1754TIP3   OH226752   0.221   4.205   1.353  0.5662 -0.3489  0.4382
 1754TIP3    H126753   0.213   4.212   1.448  2.8346  1.3670  0.5675
 1754TIP3    H226754   0.256   4.117   1.338 -0.7357 -1.0086  1.0593
 1755TIP3   OH226755   0.232   6.216   0.743  0.6751  0.5070  1.2026
 1755TIP3    H126756   0.141   6.244   0.731  0.6780  0.8718  1.9641
 1755TIP3    H226757   0.283   6.293   0.720  0.7771  0.4329  1.1815
 1756TIP3   OH226758   3.443   5.548   5.048  0.2809  0.3267  0.2364
 1756TIP3    H126759   3.510   5.539   4.981  1.2868  3.3674  0.7018
 1756TIP3    H226760   3.427   5.458   5.079  0.0125 -1.1552 -3.7152
 1757TIP3   OH226761   2.428   2.509  15.394 -0.2172 -0.4808 -1.1069
 1757TIP3    H126762   2.396   2.573  15.330  0.3173  0.1387 -0.7639
 1757TIP3    H226763   2.488   2.454  15.344  0.4138  0.1753 -1.0909
 1758TIP3   OH226764   0.168   5.356   4.000 -0.1124  0.1297  0.5305
 1758TIP3    H126765   0.092   5.412   3.985 -0.5181 -0.4274  0.4900
 1758TIP3    H226766   0.222   5.367   3.922  0.1237  0.9598  0.8055
 1759TIP3   OH226767   4.908   6.295  12.192  0.1774  0.2127 -0.3456
 1759TIP3    H126768   4.924   6.378  12.236 -0.0083  0.2814 -0.4032
 1759TIP3    H226769   4.984   6.282  12.136 -0.0697  0.6493 -0.7943
 1760TIP3   OH226770   4.599   3.954  11.561 -0.4675 -0.4136  0.1513
 1760TIP3    H126771   4.571   3.927  11.649 -0.9033  0.1149  0.1890
 1760TIP3    H226772   4.537   3.911  11.502 -0.1995 -0.7365  0.1019
 1761TIP3   OH226773   5.464   2.739  12.504 -0.3579  0.1039 -0.2950
 1761TIP3    H126774   5.410   2.670  12.464  0.4687 -1.4416  1.0945
 1761TIP3    H226775   5.547   2.695  12.526 -0.6180  0.8579  2.7439
 1762TIP3   OH226776   0.506   4.747  12.580  0.0307 -0.6631 -0.4894
 1762TIP3    H126777   0.527   4.841  12.583  1.1308 -0.7610 -2.8202
 1762TIP3    H226778   0.585   4.703  12.610 -0.5896 -0.8692  0.8985
 1763TIP3   OH226779   0.833   6.297   3.486  0.2662 -0.5718  0.4123
 1763TIP3    H126780   0.782   6.222   3.456 -1.9726  0.9725  0.0975
 1763TIP3    H226781   0.903   6.306   3.421 -1.5532 -0.2787 -1.6207
 1764TIP3   OH226782   6.410   1.273   0.894 -0.0666 -0.5722 -0.4177
 1764TIP3    H126783   6.356   1.199   0.866  0.4360 -0.4132 -1.9308
 1764TIP3    H226784   6.379   1.346   0.839 -0.6181  0.3851  1.1068
 1765TIP3   OH226785   6.515   4.730  13.743  0.1308 -0.0952 -0.2067
 1765TIP3    H126786   6.518   4.747  13.649  0.5151  0.5406 -0.0854
 1765TIP3    H226787   6.547   4.640  13.752 -0.8073 -0.5063 -0.7618
 1766TIP3   OH226788   5.232   4.079  13.441 -0.3844 -0.3261  0.0218
 1766TIP3    H126789   5.167   4.147  13.424  0.3364  0.2222 -0.6079
 1766TIP3    H226790   5.240   4.076  13.536  2.8702  3.7254  0.1575
 1767TIP3   OH226791   0.734   2.126   2.897 -0.4937 -0.5444  0.1030
 1767TIP3    H126792   0.709   2.123   2.989 -2.4053 -1.1805 -0.3866
 1767TIP3    H226793   0.793   2.051   2.886  1.4794  0.7625  1.2154
 1768TIP3   OH226794   2.736   2.291  12.658 -0.3081 -0.1168  0.0770
 1768TIP3    H126795   2.661   2.334  12.699 -0.2972 -0.5036  0.5148
 1768TIP3    H226796   2.698   2.240  12.586 -0.3101  0.6764 -0.5068
 1769TIP3   OH226797   1.161   6.243  13.739 -0.1533  0.4397  0.4801
 1769TIP3    H126798   1.074   6.254  13.702 -0.1707 -0.7731  0.1369
 1769TIP3    H226799   1.176   6.149  13.740  1.5906  0.6686 -0.4751
 1770TIP3   OH226800   2.085   3.693  12.803 -0.3102 -0.3028 -0.3156
 1770TIP3    H126801   2.044   3.694  12.716 -0.3946  1.8468 -0.2899
 1770TIP3    H226802   2.015   3.720  12.862  0.2674  0.1342  0.1666
 1771TIP3   OH226803   6.610   2.111  16.203 -0.1646  0.6993  0.1000
 1771TIP3    H126804   6.667   2.172  16.156  1.1487 -0.1108  0.5781
 1771TIP3    H226805   6.524   2.151  16.200  0.0834  1.2115 -2.0532
 1772TIP3   OH226806   0.050   6.428   4.508 -0.0341 -0.0814  0.9206
 1772TIP3    H126807   0.051   6.519   4.536 -0.4869  0.3688 -0.4597
 1772TIP3    H226808   0.140   6.411   4.479 -0.4285  0.5970 -0.8042
 1773TIP3   OH226809   1.528   2.596  15.401 -0.6056  0.6763 -0.1537
 1773TIP3    H126810   1.569   2.683  15.400 -0.2365  0.5174  0.3981
 1773TIP3    H226811   1.592   2.538  15.360 -0.8890  0.6753 -0.6039
 1774TIP3   OH226812   3.493   2.553  17.151  0.1855  0.1317  0.2434
 1774TIP3    H126813   3.495   2.492  17.225 -1.4355  1.3780  1.4015
 1774TIP3    H226814   3.458   2.502  17.078 -1.3523 -0.3067  1.2428
 1775TIP3   OH226815   0.326   5.857  16.461 -0.2135  0.0604 -0.7659
 1775TIP3    H126816   0.299   5.931  16.406  1.0173  1.2294  0.1441
 1775TIP3    H226817   0.408   5.886  16.502  1.2113 -2.4554 -1.6427
 1776TIP3   OH226818   0.582   5.056  10.770  0.2483  0.8000  0.6783
 1776TIP3    H126819   0.621   5.138  10.798  0.7251  0.1951  1.8750
 1776TIP3    H226820   0.541   5.020  10.850 -1.5382  0.7349 -0.2088
 1777TIP3   OH226821   2.869   5.263   5.595 -0.1425  0.3988  0.1986
 1777TIP3    H126822   2.863   5.268   5.690  1.8284  1.3812  0.3165
 1777TIP3    H226823   2.906   5.176   5.578 -2.3267 -0.6022  0.1475
 1778TIP3   OH226824   5.240   6.212   0.778 -0.4032  0.2032 -0.1028
 1778TIP3    H126825   5.202   6.145   0.721 -2.3965  0.2592  1.0785
 1778TIP3    H226826   5.173   6.280   0.783  1.2062  1.8996 -0.5434
 1779TIP3   OH226827   4.053   5.800  13.457  0.0458 -0.8349  0.3928
 1779TIP3    H126828   4.065   5.838  13.543  1.7919 -1.8215  0.6366
 1779TIP3    H226829   4.070   5.706  13.470 -1.4366 -1.2942 -0.6902
 1780TIP3   OH226830   2.998   0.213   4.998  0.6644  0.0269  0.3240
 1780TIP3    H126831   2.924   0.152   4.991 -0.3070  1.1353  0.6105
 1780TIP3    H226832   3.001   0.237   5.090  0.7512  0.7514  0.1379
 1781TIP3   OH226833   1.947   0.170   6.618 -0.0819  0.1340  0.3810
 1781TIP3    H126834   1.920   0.130   6.535 -1.7677 -0.0895  1.0122
 1781TIP3    H226835   2.041   0.185   6.607  0.0753 -1.4888 -0.9162
 1782TIP3   OH226836   6.374   1.144  11.524 -0.2243 -0.5114  0.3158
 1782TIP3    H126837   6.368   1.115  11.615 -0.9939  0.5443  0.6271
 1782TIP3    H226838   6.298   1.105  11.481 -0.7195  0.2180  0.5065
 1783TIP3   OH226839   1.551   5.273  11.571  0.0370  0.3092  0.1868
 1783TIP3    H126840   1.593   5.269  11.485  0.0984 -1.0370  0.2499
 1783TIP3    H226841   1.472   5.218  11.562 -0.9712  1.6643  0.4698
 1784TIP3   OH226842   0.760   1.754  14.664  0.1581  0.2855  0.1331
 1784TIP3    H126843   0.796   1.716  14.584  0.2438  1.4196 -0.3734
 1784TIP3    H226844   0.684   1.805  14.635 -1.0282 -0.9053  1.0217
 1785TIP3   OH226845   3.711   5.309   5.086 -0.2031 -0.7228  0.0539
 1785TIP3    H126846   3.752   5.393   5.066 -1.9856  0.0241 -0.6198
 1785TIP3    H226847   3.667   5.323   5.170  0.7435 -1.4904  0.7145
 1786TIP3   OH226848   0.024   5.078   0.869 -0.2814 -0.2133 -0.1027
 1786TIP3    H126849  -0.048   5.067   0.808 -1.3018 -0.2155  1.0507
 1786TIP3    H226850   0.028   5.172   0.885  0.4975 -0.1270 -0.7572
 1787TIP3   OH226851   5.956   3.380  16.627 -0.2124 -0.1615 -0.2762
 1787TIP3    H126852   5.880   3.431  16.601 -0.1551  0.2441  0.3217
 1787TIP3    H226853   6.010   3.442  16.677  0.0880 -0.6788  0.0494
 1788TIP3   OH226854   3.154   1.194   3.047 -0.2593  0.3752  0.4703
 1788TIP3    H126855   3.197   1.115   3.078  1.3700  1.7745  2.0370
 1788TIP3    H226856   3.156   1.254   3.122 -1.9847  1.6941 -0.4613
 1789TIP3   OH226857   2.601   3.675   0.763 -0.4856 -0.1705  0.0363
 1789TIP3    H126858   2.581   3.634   0.679 -0.5923 -0.0668  0.0116
 1789TIP3    H226859   2.587   3.605   0.827 -1.7713  0.1373  0.1050
 1790TIP3   OH226860   1.311   6.492  14.403 -0.9173 -0.1432 -0.0416
 1790TIP3    H126861   1.388   6.514  14.351 -0.5343 -0.7683  0.2502
 1790TIP3    H226862   1.250   6.564  14.388 -0.3961  0.2011 -0.5192
 1791TIP3   OH226863   4.719   1.749   3.548  0.5579  0.2872 -0.5693
 1791TIP3    H126864   4.738   1.741   3.455  1.6507 -1.7907 -0.2137
 1791TIP3    H226865   4.699   1.660   3.577 -1.4428  1.1331  0.8669
 1792TIP3   OH226866   2.619   0.885   2.127  0.3042  0.1776  0.2591
 1792TIP3    H126867   2.605   0.975   2.156 -0.7502 -0.5136  2.0715
 1792TIP3    H226868   2.709   0.883   2.094  0.4623  1.7920  0.5430
 1793TIP3   OH226869   2.084   4.179  12.444  1.1244 -0.2017 -0.0511
 1793TIP3    H126870   2.018   4.168  12.513  0.3867 -0.0079 -0.7209
 1793TIP3    H226871   2.042   4.145  12.365  0.9998  1.9196 -0.9481
 1794TIP3   OH226872   5.964   0.274  15.125  0.5065  0.2156  0.1788
 1794TIP3    H126873   5.946   0.367  15.116 -0.9515 -0.1235 -0.7129
 1794TIP3    H226874   5.892   0.240  15.178  0.6738 -0.5232 -0.0510
 1795TIP3   OH226875   2.001   4.033   0.867 -0.8397  0.8145 -0.3278
 1795TIP3    H126876   2.061   3.958   0.864  2.1480  2.9842 -0.0606
 1795TIP3    H226877   1.977   4.048   0.776  1.2935  1.4531 -0.8502
 1796TIP3   OH226878   6.805   3.304  11.880 -0.4703  0.3853 -0.1268
 1796TIP3    H126879   6.825   3.397  11.872  1.1444 -0.0043 -1.0400
 1796TIP3    H226880   6.806   3.287  11.974 -1.4096  1.3850  0.0882
 1797TIP3   OH226881   2.093   4.983  13.026  0.1799 -0.1728  0.0981
 1797TIP3    H126882   2.142   5.003  12.947 -0.7379  1.2791 -0.1326
 1797TIP3    H226883   2.001   4.999  13.003 -0.2808 -1.4072  0.9484
 1798TIP3   OH226884   4.007   2.755   5.554  0.2008 -0.4131 -0.4175
 1798TIP3    H126885   3.970   2.828   5.504 -1.5914 -0.9132  0.1056
 1798TIP3    H226886   4.042   2.796   5.634 -0.0963 -0.0386 -0.4772
 1799TIP3   OH226887   4.024   6.596  11.667  0.1678  0.0441 -0.2287
 1799TIP3    H126888   4.061   6.565  11.749  0.4297 -0.0979 -0.3991
 1799TIP3    H226889   4.069   6.679  11.650 -0.1538  0.2590 -0.0406
 1800TIP3   OH226890   6.651   1.661   3.196 -0.3413 -0.0970 -0.2858
 1800TIP3    H126891   6.570   1.697   3.231  0.4018  1.8974 -0.4985
 1800TIP3    H226892   6.632   1.568   3.182 -2.2512  0.1166  0.5897
 1801TIP3   OH226893   4.093   1.055  17.156  0.4277  0.4749 -0.2050
 1801TIP3    H126894   4.037   1.124  17.122  0.8498  0.6148 -0.6154
 1801TIP3    H226895   4.090   0.987  17.089  0.5478  0.3737 -0.1056
 1802TIP3   OH226896   4.242   1.249  10.981  0.2034 -0.1628  0.2211
 1802TIP3    H126897   4.190   1.314  10.935 -0.4377 -0.7862  0.0443
 1802TIP3    H226898   4.195   1.167  10.966  1.0567 -0.6785  0.3499
 1803TIP3   OH226899   1.742   4.781  14.936 -0.1806 -0.1210  0.3775
 1803TIP3    H126900   1.812   4.791  14.871  2.1062 -1.6978  2.4085
 1803TIP3    H226901   1.706   4.694  14.918  0.5214 -0.6011  1.2019
 1804TIP3   OH226902   2.994   6.243   4.870  0.3821 -0.0344  0.1386
 1804TIP3    H126903   3.078   6.200   4.850 -0.1950  0.3068 -3.8295
 1804TIP3    H226904   2.945   6.178   4.920  1.5116 -1.9381 -1.1007
 1805TIP3   OH226905   1.796   1.552   6.364 -0.0641  0.2914 -0.1303
 1805TIP3    H126906   1.738   1.626   6.348  0.8790  0.7924 -1.3555
 1805TIP3    H226907   1.795   1.503   6.282 -0.0040 -0.5889  0.3834
 1806TIP3   OH226908   0.063   2.866  15.670 -0.8976 -0.1123  0.6047
 1806TIP3    H126909   0.032   2.785  15.712  1.8515 -1.0295  1.0847
 1806TIP3    H226910   0.072   2.928  15.742 -0.6762 -0.1567  0.6143
 1807TIP3   OH226911   5.939   0.123  14.063 -0.0715 -0.3049  0.4558
 1807TIP3    H126912   5.917   0.038  14.102 -0.9892  0.0862  0.8183
 1807TIP3    H226913   5.963   0.102  13.973 -2.8927 -0.7009 -0.2850
 1808TIP3   OH226914   2.389   2.966   0.799  0.1662 -0.0409  0.7648
 1808TIP3    H126915   2.476   2.987   0.763  0.2770 -0.6216  0.6959
 1808TIP3    H226916   2.392   2.999   0.889  1.4947 -2.5994  1.7595
 1809TIP3   OH226917   6.347   2.211   5.755  0.2536  0.2411  0.0173
 1809TIP3    H126918   6.371   2.226   5.846  0.6365  2.5147 -0.4205
 1809TIP3    H226919   6.359   2.116   5.743 -1.0537 -0.3617  2.6559
 1810TIP3   OH226920   6.820   5.349   0.495 -0.3404 -0.6416  0.2020
 1810TIP3    H126921   6.887   5.418   0.490 -0.4545 -0.5394  0.0675
 1810TIP3    H226922   6.867   5.269   0.472  0.2527 -0.9357  2.1912
 1811TIP3   OH226923   0.243   3.088  10.871 -0.2547  0.1188  0.9934
 1811TIP3    H126924   0.198   3.055  10.949 -1.9811  1.0199  0.4273
 1811TIP3    H226925   0.173   3.109  10.810  1.0137  0.5584 -0.3606
 1812TIP3   OH226926   1.490   3.889   4.400 -0.4547  0.1577 -0.2657
 1812TIP3    H126927   1.468   3.956   4.335 -0.9625  0.8194  0.5834
 1812TIP3    H226928   1.406   3.854   4.429 -0.2041 -0.7551 -0.5801
 1813TIP3   OH226929   2.992   1.297  16.644  0.0633  0.4351 -0.1459
 1813TIP3    H126930   3.074   1.254  16.669  0.3570  1.3613  0.5583
 1813TIP3    H226931   2.977   1.270  16.554 -0.0181 -1.5148  0.3889
 1814TIP3   OH226932   5.809   6.814  16.893  0.4100 -0.0811  0.4460
 1814TIP3    H126933   5.860   6.775  16.822  1.2675 -0.6512  1.3565
 1814TIP3    H226934   5.871   6.823  16.965 -1.4171 -3.9323  2.8085
 1815TIP3   OH226935   6.184   0.393  16.100  0.0429  0.2907  0.1815
 1815TIP3    H126936   6.238   0.463  16.134  2.1954 -1.0245 -0.2950
 1815TIP3    H226937   6.186   0.405  16.005 -0.9367  0.4821  0.1672
 1816TIP3   OH226938   4.645   5.534  16.953  0.8731 -0.2863 -0.0714
 1816TIP3    H126939   4.737   5.523  16.974  0.3240 -0.0488  2.8556
 1816TIP3    H226940   4.615   5.605  17.010 -1.1195 -0.3509 -0.9438
 1817TIP3   OH226941   3.342   4.674  13.242  0.6021  0.1945 -0.2486
 1817TIP3    H126942   3.395   4.654  13.319  0.6637 -0.8112 -0.5339
 1817TIP3    H226943   3.302   4.590  13.218 -0.1947  0.6957 -0.7297
 1818TIP3   OH226944   3.919   3.729  14.106  0.1076  0.0452  0.4716
 1818TIP3    H126945   3.990   3.714  14.044 -0.0774 -2.3805  0.7305
 1818TIP3    H226946   3.944   3.808  14.154  0.8188  1.3086 -1.8445
 1819TIP3   OH226947   0.450   3.611  15.745 -0.5563 -0.2535  0.0168
 1819TIP3    H126948   0.515   3.680  15.737 -0.6402 -0.1641  0.0989
 1819TIP3    H226949   0.422   3.615  15.837 -1.3307  0.3026 -0.2319
 1820TIP3   OH226950   5.741   5.183  11.366  0.3015  0.2346 -0.4186
 1820TIP3    H126951   5.683   5.109  11.346  0.4747  0.2524 -1.0045
 1820TIP3    H226952   5.681   5.258  11.372  0.0979  0.0127  0.4142
 1821TIP3   OH226953   5.936   3.316  15.246 -0.1066 -0.6911  0.0127
 1821TIP3    H126954   5.921   3.282  15.334  1.2108  0.2953  0.6644
 1821TIP3    H226955   5.949   3.410  15.258 -0.6633 -0.4036 -1.3462
 1822TIP3   OH226956   4.295   5.912  15.524  0.1633  0.0904 -0.8158
 1822TIP3    H126957   4.333   5.913  15.611 -0.2022  0.6195 -0.6586
 1822TIP3    H226958   4.215   5.965  15.531 -0.7227 -1.1436 -1.0881
 1823TIP3   OH226959   4.027   1.246   3.754 -0.0240  0.2111  0.6668
 1823TIP3    H126960   4.093   1.249   3.686 -0.4367 -0.0764  0.2472
 1823TIP3    H226961   4.001   1.337   3.767  1.5709  0.5445  1.9601
 1824TIP3   OH226962   1.636   0.846  15.405 -0.0022  0.0486 -0.1864
 1824TIP3    H126963   1.597   0.785  15.343 -0.6782 -0.7183  0.9513
 1824TIP3    H226964   1.724   0.811  15.422 -0.4586 -0.7546  0.6149
 1825TIP3   OH226965   3.856   0.957  12.181  0.1821  0.1539 -0.5481
 1825TIP3    H126966   3.844   1.029  12.120 -0.7820 -1.1964 -2.0145
 1825TIP3    H226967   3.768   0.931  12.206  0.5508  0.3604  1.0712
 1826TIP3   OH226968   1.875   6.332  11.631  0.6739 -0.5922 -0.2652
 1826TIP3    H126969   1.934   6.397  11.593 -0.4330  0.2444 -0.6236
 1826TIP3    H226970   1.890   6.253  11.578  1.7734 -0.5381 -0.0584
 1827TIP3   OH226971   5.217   5.578  11.856 -0.3844 -0.5075 -0.1130
 1827TIP3    H126972   5.216   5.670  11.831 -1.6641 -0.0273  1.5503
 1827TIP3    H226973   5.299   5.544  11.820 -1.1021  0.5865 -3.0495
 1828TIP3   OH226974   2.357   2.293   5.323  0.2698  0.1643 -0.3226
 1828TIP3    H126975   2.409   2.221   5.286 -1.7714 -0.8285 -1.4491
 1828TIP3    H226976   2.320   2.257   5.403  0.0286  0.2826 -0.3796
 1829TIP3   OH226977   3.302   5.284  16.989 -0.4113  0.7147  0.2823
 1829TIP3    H126978   3.290   5.353  16.924 -1.9654  0.3056  0.0909
 1829TIP3    H226979   3.393   5.258  16.981 -0.6076  0.5497 -1.8702
 1830TIP3   OH226980   6.233   0.232  15.699 -0.1673 -0.2887  0.1559
 1830TIP3    H126981   6.268   0.321  15.695  0.1014 -0.3600  0.7432
 1830TIP3    H226982   6.152   0.240  15.749 -0.7587 -0.2028 -0.7812
 1831TIP3   OH226983   6.281   1.585   3.490  0.0796 -0.6676  0.3479
 1831TIP3    H126984   6.262   1.599   3.397  0.7693  0.8067  0.4090
 1831TIP3    H226985   6.373   1.610   3.500 -0.2204 -0.0111  1.5842
 1832TIP3   OH226986   6.309   6.396  11.372 -0.2026 -0.4128 -0.2954
 1832TIP3    H126987   6.375   6.414  11.439  1.4792 -0.8306 -1.7942
 1832TIP3    H226988   6.358   6.371  11.295 -2.1828 -2.6272 -0.9461
 1833TIP3   OH226989   2.938   4.617  12.064  0.4690 -0.8284  0.5701
 1833TIP3    H126990   2.879   4.600  11.990 -1.7093  1.3714  1.6546
 1833TIP3    H226991   2.913   4.552  12.129  1.0138 -1.5061  0.1105
 1834TIP3   OH226992   4.324   1.583  13.127 -0.0862 -0.7118  0.4730
 1834TIP3    H126993   4.262   1.649  13.159 -0.3754 -0.6592 -0.1936
 1834TIP3    H226994   4.310   1.508  13.185  0.7772  0.0436  1.7401
 1835TIP3   OH226995   4.222   4.186   0.981 -0.1812 -0.5112 -0.7869
 1835TIP3    H126996   4.223   4.254   0.914  0.4912 -1.7381 -2.0681
 1835TIP3    H226997   4.218   4.104   0.932  0.7715 -1.4628  0.6636
 1836TIP3   OH226998   1.040   3.088   0.877  0.2204  0.3411  0.1362
 1836TIP3    H126999   0.996   3.028   0.815  0.0774 -0.5818  1.1076
 1836TIP3    H227000   1.000   3.173   0.859 -1.9272 -0.4307  0.8671
 1837TIP3   OH227001   0.903   2.860  11.923  1.0178 -0.0954 -0.4197
 1837TIP3    H127002   0.923   2.816  11.840  0.2138  0.4388 -0.9095
 1837TIP3    H227003   0.911   2.953  11.904 -0.0047  0.0677 -0.1471
 1838TIP3   OH227004   3.630   4.496   2.961 -0.1969 -0.0356 -0.1522
 1838TIP3    H127005   3.688   4.532   3.028 -1.8724 -2.0583  2.5790
 1838TIP3    H227006   3.547   4.543   2.973 -0.8365 -1.1596 -0.0780
 1839TIP3   OH227007   3.376   1.798   4.374 -0.9156 -0.2422 -0.2346
 1839TIP3    H127008   3.451   1.838   4.329 -2.2780  1.7187 -0.8547
 1839TIP3    H227009   3.350   1.725   4.317 -0.8936  0.4941 -1.2065
 1840TIP3   OH227010   4.413   4.917   1.308  0.0491 -0.3317 -0.8989
 1840TIP3    H127011   4.505   4.923   1.281  0.5757 -0.3029  0.8128
 1840TIP3    H227012   4.415   4.866   1.389 -1.4832 -0.5443 -0.9652
 1841TIP3   OH227013   1.846   5.925   1.243 -0.0004 -0.0640  0.0822
 1841TIP3    H127014   1.920   5.954   1.190 -0.2150 -1.6130 -1.1293
 1841TIP3    H227015   1.865   5.959   1.331  0.6695  2.0404 -0.8189
 1842TIP3   OH227016   1.870   5.000  14.674  0.1280  0.0871 -0.6104
 1842TIP3    H127017   1.873   5.064  14.745 -0.9217 -0.8444  0.3196
 1842TIP3    H227018   1.956   5.005  14.633  0.3201  1.5363 -0.0779
 1843TIP3   OH227019   4.230   5.864   6.403  0.3369 -0.5760 -0.4000
 1843TIP3    H127020   4.218   5.913   6.322 -2.2622 -0.4118 -0.0007
 1843TIP3    H227021   4.143   5.831   6.424  0.9212 -0.5672  2.3799
 1844TIP3   OH227022   5.219   0.646  11.440  0.0653  0.4460 -0.2948
 1844TIP3    H127023   5.173   0.598  11.371 -0.7663 -0.0779  0.6004
 1844TIP3    H227024   5.182   0.735  11.435 -0.5055  0.2257 -0.0793
 1845TIP3   OH227025   2.791   0.557   6.389  0.1235  0.2701  0.6964
 1845TIP3    H127026   2.814   0.466   6.372  0.6513 -0.2031  3.4603
 1845TIP3    H227027   2.864   0.608   6.355 -0.5701 -0.2179 -1.6583
 1846TIP3   OH227028   2.330   0.720  11.143  0.0835 -0.0049  0.7768
 1846TIP3    H127029   2.367   0.643  11.186  0.2790 -0.8737 -0.8692
 1846TIP3    H227030   2.294   0.686  11.061  1.2633  1.8234 -0.5735
 1847TIP3   OH227031   0.180   0.357  15.690  0.1054 -0.5378  0.0608
 1847TIP3    H127032   0.117   0.386  15.756 -1.0378 -2.0898 -0.3013
 1847TIP3    H227033   0.187   0.430  15.629 -0.1988  0.2127  0.9035
 1848TIP3   OH227034   5.506   5.937  10.667 -0.4691 -0.7112  0.0195
 1848TIP3    H127035   5.539   5.847  10.664  3.2886  0.5237 -0.4357
 1848TIP3    H227036   5.524   5.966  10.757 -2.8022 -0.6731  0.5516
 1849TIP3   OH227037   1.412   3.130  12.106 -0.0444  0.5261  0.5240
 1849TIP3    H127038   1.409   3.041  12.141  0.5217  0.2165 -0.1935
 1849TIP3    H227039   1.322   3.149  12.081  0.0034 -0.2732 -0.3382
 1850TIP3   OH227040   2.407   4.985  16.396 -0.2480 -0.6022 -0.1832
 1850TIP3    H127041   2.371   5.073  16.407 -0.3725 -0.0664 -3.6243
 1850TIP3    H227042   2.501   4.994  16.410  0.1648  0.8198 -3.1035
 1851TIP3   OH227043   0.684   6.551  14.559 -0.3827  0.0490  0.2067
 1851TIP3    H127044   0.735   6.472  14.575 -3.1264 -1.5492  2.0287
 1851TIP3    H227045   0.595   6.519  14.541 -1.2328  2.6941 -0.8555
 1852TIP3   OH227046   3.864   0.122  16.594  0.3085 -0.4012  0.0826
 1852TIP3    H127047   3.837   0.042  16.640  0.3713 -0.5827 -0.1980
 1852TIP3    H227048   3.837   0.193  16.653  0.7339 -0.6445  0.5786
 1853TIP3   OH227049   5.336   3.379  12.899  0.2357  0.5342 -0.6522
 1853TIP3    H127050   5.282   3.303  12.876 -1.5188  0.0388  4.0449
 1853TIP3    H227051   5.416   3.341  12.936 -0.6177  0.8379  1.6527
 1854TIP3   OH227052   4.611   3.222   2.454  0.3385 -0.0945  0.1540
 1854TIP3    H127053   4.629   3.314   2.473  1.4543 -0.1472 -0.5918
 1854TIP3    H227054   4.516   3.215   2.459  0.2676  1.0128  0.6082
 1855TIP3   OH227055   3.648   3.963   1.503 -0.2971  0.3306  0.6984
 1855TIP3    H127056   3.591   3.892   1.472 -2.8290  2.5726 -0.1964
 1855TIP3    H227057   3.697   3.990   1.425  0.7221 -0.4141  1.0563
 1856TIP3   OH227058   0.795   0.207   4.697  0.1618  0.4608  0.2163
 1856TIP3    H127059   0.859   0.269   4.661  0.5724 -0.2868 -0.3789
 1856TIP3    H227060   0.710   0.249   4.683  0.3970  0.6947 -0.6146
 1857TIP3   OH227061   3.148   0.932   2.141 -0.0555 -0.2410  0.4276
 1857TIP3    H127062   3.099   0.947   2.222 -1.5001 -0.9475 -0.2696
 1857TIP3    H227063   3.189   1.016   2.122  1.4848 -0.3935  2.5805
 1858TIP3   OH227064   0.240   0.628   0.131  0.1304 -0.1005 -0.3272
 1858TIP3    H127065   0.248   0.535   0.152 -0.5953 -0.0058  0.4234
 1858TIP3    H227066   0.269   0.635   0.041  0.4951 -1.0099 -0.2878
 1859TIP3   OH227067   0.530   4.724  11.427 -0.4496 -0.7348 -0.5505
 1859TIP3    H127068   0.568   4.637  11.412  2.8212  0.1381  1.5245
 1859TIP3    H227069   0.532   4.735  11.522 -1.7022  1.2611 -0.6854
 1860TIP3   OH227070   2.946   0.142  17.184 -0.0089  0.2205 -0.1244
 1860TIP3    H127071   2.900   0.062  17.156  2.0410 -0.7695 -0.8368
 1860TIP3    H227072   2.995   0.116  17.262  0.3723  0.9027 -0.1298
 1861TIP3   OH227073   2.085   2.949  12.711  0.4090 -0.3130 -0.2239
 1861TIP3    H127074   2.080   2.887  12.785  1.5836 -1.9492 -1.4531
 1861TIP3    H227075   2.061   3.033  12.750 -1.8933 -1.5893  1.4003
 1862TIP3   OH227076   5.348   0.579  16.021 -0.1752  0.1951  0.6503
 1862TIP3    H127077   5.366   0.665  16.057  1.0013 -0.5046  1.8290
 1862TIP3    H227078   5.263   0.554  16.059 -0.1206  0.4961  0.9727
 1863TIP3   OH227079   3.893   1.828   1.960 -0.1897 -0.6722  0.0890
 1863TIP3    H127080   3.857   1.819   1.871  0.1724 -1.1260 -0.0168
 1863TIP3    H227081   3.844   1.764   2.012 -0.0984 -0.7202  0.1165
 1864TIP3   OH227082   3.689   4.736   4.948  0.1743  0.5685  0.1325
 1864TIP3    H127083   3.729   4.651   4.967  0.4581  0.5383 -0.5952
 1864TIP3    H227084   3.666   4.732   4.855 -0.2632  1.1035  0.2104
 1865TIP3   OH227085   3.174   2.548  12.579  0.0282  0.7548  0.3547
 1865TIP3    H127086   3.122   2.470  12.594  1.4874 -0.8010 -2.0411
 1865TIP3    H227087   3.249   2.539  12.638 -1.0654  1.7428  1.9785
 1866TIP3   OH227088   4.988   3.614  17.159  0.1316  0.5067 -1.0112
 1866TIP3    H127089   5.001   3.529  17.202  0.1976  1.0743  0.1099
 1866TIP3    H227090   5.074   3.656  17.162 -0.5525  1.9035  1.3010
 1867TIP3   OH227091   5.471   1.795   0.648 -0.0778  0.4769  0.2719
 1867TIP3    H127092   5.455   1.703   0.669 -0.7688  0.7705  1.1003
 1867TIP3    H227093   5.566   1.803   0.645  0.0028 -0.0916  1.0420
 1868TIP3   OH227094   2.023   3.892  14.095  0.4191 -0.6429 -0.1163
 1868TIP3    H127095   2.061   3.979  14.082 -0.7811  0.0211  0.6035
 1868TIP3    H227096   2.090   3.844  14.144  0.2478  0.6000  1.4245
 1869TIP3   OH227097   1.379   5.746   3.231 -0.3292 -0.5116 -0.0633
 1869TIP3    H127098   1.388   5.654   3.254  0.8561 -1.0813 -2.4485
 1869TIP3    H227099   1.289   5.769   3.254 -0.7180 -2.3372  0.3562
 1870TIP3   OH227100   2.492   2.013   4.641 -0.4803  0.0255 -0.4120
 1870TIP3    H127101   2.583   1.996   4.666 -1.2929 -1.3032  1.9080
 1870TIP3    H227102   2.463   1.933   4.597 -1.0289 -0.3243  0.5372
 1871TIP3   OH227103   1.295   1.095   2.770  0.1628 -0.6117 -0.1795
 1871TIP3    H127104   1.389   1.112   2.764  0.3741 -0.9202  1.5122
 1871TIP3    H227105   1.285   1.047   2.853 -1.6420  0.5860  0.3679
 1872TIP3   OH227106   5.684   5.307  13.748 -0.2726 -0.3071 -0.0432
 1872TIP3    H127107   5.597   5.335  13.722 -0.1950  0.7852  0.8461
 1872TIP3    H227108   5.741   5.339  13.678 -0.6988 -2.1850 -1.3338
 1873TIP3   OH227109   4.130   0.966   1.263 -0.0536 -0.3972 -0.3379
 1873TIP3    H127110   4.169   0.887   1.225 -1.4757 -1.4127  0.2451
 1873TIP3    H227111   4.193   1.035   1.243  0.7853 -1.4940 -1.6790
 1874TIP3   OH227112   4.363   0.419   5.171 -0.1350 -0.1297 -0.0653
 1874TIP3    H127113   4.281   0.464   5.150  1.1875  2.3710 -0.2674
 1874TIP3    H227114   4.365   0.345   5.110 -1.6322  0.5141 -0.9736
 1875TIP3   OH227115   3.835   5.508   2.539  0.4948 -0.0639 -0.1025
 1875TIP3    H127116   3.757   5.554   2.569 -0.6489 -2.3523  0.6589
 1875TIP3    H227117   3.807   5.418   2.525  2.8336 -0.8108 -0.5568
 1876TIP3   OH227118   2.235   0.518  13.721  0.5730 -0.1499  0.6265
 1876TIP3    H127119   2.239   0.452  13.790  0.3179  0.6273  1.3984
 1876TIP3    H227120   2.149   0.504  13.680 -0.7429  1.4564  2.6215
 1877TIP3   OH227121   3.194   3.740  15.960 -0.5465 -0.7541  0.2466
 1877TIP3    H127122   3.144   3.822  15.956  0.7347  0.0872  0.7554
 1877TIP3    H227123   3.143   3.683  16.017 -0.9098  0.0797  0.7663
 1878TIP3   OH227124   4.389   1.284   6.058  0.5261  0.4965  0.1072
 1878TIP3    H127125   4.371   1.237   6.139 -0.5699  0.8987  0.1062
 1878TIP3    H227126   4.475   1.325   6.074 -0.7242  2.6134  2.0660
 1879TIP3   OH227127   3.259   1.373   5.758  0.1403 -0.5583  0.1683
 1879TIP3    H127128   3.274   1.394   5.850 -2.1317 -1.6471  0.8507
 1879TIP3    H227129   3.184   1.427   5.732 -0.2323 -1.3939 -0.5602
 1880TIP3   OH227130   1.634   3.358  14.072  0.1412 -0.1570  0.9115
 1880TIP3    H127131   1.654   3.406  14.153  2.5432  0.6937 -0.0871
 1880TIP3    H227132   1.671   3.413  14.003 -2.3358 -0.5771 -0.8713
 1881TIP3   OH227133   0.694   3.441   2.278  0.1662 -0.1045  0.0368
 1881TIP3    H127134   0.670   3.362   2.230  1.9984 -1.2541  0.9269
 1881TIP3    H227135   0.789   3.438   2.284  0.2727  2.0659  0.3177
 1882TIP3   OH227136   3.505   5.893   4.484 -0.1323 -1.0671 -0.2306
 1882TIP3    H127137   3.572   5.852   4.429 -0.9213 -0.6386 -1.5480
 1882TIP3    H227138   3.492   5.832   4.556  3.0925 -0.2792  1.1817
 1883TIP3   OH227139   0.806   2.550  11.445 -0.4071 -0.2700 -0.1038
 1883TIP3    H127140   0.874   2.483  11.437 -0.6714 -0.5573  0.0337
 1883TIP3    H227141   0.783   2.571  11.355  1.2170  1.2399 -0.2382
 1884TIP3   OH227142   4.570   4.029   6.183  0.3189  0.4849 -0.2037
 1884TIP3    H127143   4.600   4.076   6.262 -1.1309  0.9807  0.0730
 1884TIP3    H227144   4.486   4.069   6.162  0.5645  0.1758 -1.8719
 1885TIP3   OH227145   1.122   6.088   4.830 -0.2904  0.4034  0.3442
 1885TIP3    H127146   1.204   6.127   4.861 -0.0498  0.2887 -0.1504
 1885TIP3    H227147   1.144   6.048   4.746 -0.6173 -0.5258  0.6938
 1886TIP3   OH227148   0.372   3.384   2.700 -0.3801 -0.1957 -0.0882
 1886TIP3    H127149   0.434   3.419   2.636 -0.0811 -2.9609 -1.4825
 1886TIP3    H227150   0.299   3.445   2.699  1.2246  1.8472 -0.2274
 1887TIP3   OH227151   4.654   6.060   4.248 -0.4352 -0.3395 -0.1386
 1887TIP3    H127152   4.664   5.982   4.194 -1.2862  0.5023 -1.5723
 1887TIP3    H227153   4.675   6.133   4.190 -0.7458  0.5801  0.8539
 1888TIP3   OH227154   5.766   4.516   2.559 -0.2613 -0.3855 -0.1369
 1888TIP3    H127155   5.685   4.502   2.510  0.0441  1.3724 -1.2342
 1888TIP3    H227156   5.835   4.488   2.500  0.0037 -1.2822  0.5599
 1889TIP3   OH227157   0.175   6.307   1.858  0.3498 -0.0303 -0.2365
 1889TIP3    H127158   0.258   6.272   1.889  1.1246 -0.3093 -2.4471
 1889TIP3    H227159   0.196   6.393   1.823 -0.4706  0.2688 -0.0217
 1890TIP3   OH227160   4.928   5.145   4.873 -0.0333  0.4049 -0.7222
 1890TIP3    H127161   5.005   5.147   4.816 -0.7522  1.4005 -1.7001
 1890TIP3    H227162   4.954   5.088   4.945  1.6707  0.8044 -0.9526
 1891TIP3   OH227163   3.389   5.753   1.674 -0.5054 -0.2905 -0.2953
 1891TIP3    H127164   3.306   5.706   1.666 -0.5304 -0.2615 -0.2086
 1891TIP3    H227165   3.451   5.687   1.706 -0.0539 -0.7901 -2.0770
 1892TIP3   OH227166   1.800   3.888  16.037 -0.8526  0.1977  0.7835
 1892TIP3    H127167   1.869   3.947  16.006 -0.9894 -0.3881 -0.7263
 1892TIP3    H227168   1.819   3.804  15.994 -1.5724 -0.4142  1.6351
 1893TIP3   OH227169   0.380   5.075  14.235 -0.2655  0.8673  0.0899
 1893TIP3    H127170   0.328   5.021  14.175 -1.0856  1.5447  0.1565
 1893TIP3    H227171   0.465   5.033  14.238 -0.0092  1.1066 -1.9904
 1894TIP3   OH227172   5.321   1.457  10.616  0.4993  0.5241 -0.4185
 1894TIP3    H127173   5.271   1.377  10.631  0.4388  0.6255 -0.0582
 1894TIP3    H227174   5.328   1.497  10.703 -0.7888  1.6773 -0.8159
 1895TIP3   OH227175   2.977   1.774   3.441 -0.5735 -0.0851  0.0508
 1895TIP3    H127176   2.922   1.696   3.441 -0.3975 -0.2722  1.9295
 1895TIP3    H227177   2.916   1.847   3.455 -0.5065 -0.1551  0.7570
 1896TIP3   OH227178   2.328   0.440  13.994  0.2203  0.1685  0.4384
 1896TIP3    H127179   2.256   0.441  14.057 -1.3644 -1.0417 -1.2763
 1896TIP3    H227180   2.342   0.532  13.973 -1.5328  0.3729  0.0474
 1897TIP3   OH227181   5.578   3.965   4.594 -0.2570 -0.0235  0.1852
 1897TIP3    H127182   5.496   3.956   4.643 -0.8235 -1.0262 -0.9129
 1897TIP3    H227183   5.562   3.922   4.510  0.7888  1.3787 -0.7982
 1898TIP3   OH227184   3.370   1.982  17.164 -0.3860  0.0824 -0.0352
 1898TIP3    H127185   3.370   1.971  17.069 -1.2753  2.4281 -0.3789
 1898TIP3    H227186   3.347   2.074  17.177  2.4761  0.5840  2.3918
 1899TIP3   OH227187   0.302   4.867  13.279  0.1807 -0.3937 -0.3263
 1899TIP3    H127188   0.306   4.880  13.184  0.0047 -0.2817 -0.3198
 1899TIP3    H227189   0.369   4.802  13.297  1.1295  0.5365 -0.3603
 1900TIP3   OH227190   0.448   4.094   4.716 -0.2412  0.1841  0.2785
 1900TIP3    H127191   0.442   4.126   4.805  0.9447 -2.3526  1.3730
 1900TIP3    H227192   0.540   4.073   4.703 -0.4375  0.2137 -1.4542
 1901TIP3   OH227193   6.266   1.842  10.345  0.1054  0.8297  0.1927
 1901TIP3    H127194   6.253   1.775  10.277  0.7324  1.9034 -1.0282
 1901TIP3    H227195   6.177   1.863  10.375 -0.1078 -0.5036  0.5902
 1902TIP3   OH227196   4.430   1.324  14.005 -0.4120 -0.1190  0.6671
 1902TIP3    H127197   4.426   1.419  14.013  1.4503  0.0532  0.1313
 1902TIP3    H227198   4.423   1.291  14.094 -1.5186  0.4839  0.8095
 1903TIP3   OH227199   0.015   3.593  11.857  0.4352  0.2367 -0.0185
 1903TIP3    H127200   0.057   3.633  11.781  2.1903  1.5713  1.5635
 1903TIP3    H227201  -0.016   3.667  11.909 -1.1375 -0.6574  0.3815
 1904TIP3   OH227202   4.324   3.870   3.035  0.5254 -0.0015 -0.4974
 1904TIP3    H127203   4.333   3.775   3.024 -0.7376 -0.1690 -0.2567
 1904TIP3    H227204   4.328   3.883   3.130  1.9153  0.3410 -0.5875
 1905TIP3   OH227205   6.754   4.991  16.527 -0.7386 -0.4076  0.8949
 1905TIP3    H127206   6.826   4.951  16.576  2.7832  0.4776 -2.9888
 1905TIP3    H227207   6.693   4.919  16.512  1.7330 -2.5886  0.4375
 1906TIP3   OH227208   1.340   4.023  14.002  0.0141 -0.1035  0.5792
 1906TIP3    H127209   1.391   3.954  14.045  1.0271  0.5417  0.4706
 1906TIP3    H227210   1.402   4.063  13.940 -0.5592  0.8663  0.6119
 1907TIP3   OH227211   0.799   6.062  11.581  0.0855  0.3995  0.2377
 1907TIP3    H127212   0.789   6.096  11.491  0.2728 -1.2140 -0.4230
 1907TIP3    H227213   0.875   6.004  11.576  1.7792  2.2922  2.0990
 1908TIP3   OH227214   4.455   2.485  16.352  0.1828 -0.3017  0.0007
 1908TIP3    H127215   4.416   2.457  16.269  2.3196  0.8850 -1.4980
 1908TIP3    H227216   4.530   2.426  16.364  0.4236  0.1188  0.6101
 1909TIP3   OH227217   2.718   2.641   1.295 -0.3155 -0.3165  0.5731
 1909TIP3    H127218   2.753   2.702   1.360 -0.6965 -0.4491  0.9015
 1909TIP3    H227219   2.651   2.692   1.248  0.9389  0.2456 -0.6925
 1910TIP3   OH227220   5.365   2.386   1.483  0.1006  0.1848  0.7063
 1910TIP3    H127221   5.456   2.412   1.498  0.1664  0.1366  0.3991
 1910TIP3    H227222   5.334   2.446   1.415 -0.3609  0.7581  1.4009
 1911TIP3   OH227223   2.152   1.254   2.665 -0.4450  0.2706  0.1350
 1911TIP3    H127224   2.112   1.324   2.717  0.4911  0.8738  0.0543
 1911TIP3    H227225   2.204   1.300   2.600 -0.2628 -0.5068 -0.2699
 1912TIP3   OH227226   1.694   2.308  13.979 -0.2419 -0.3516 -0.0440
 1912TIP3    H127227   1.669   2.392  14.016 -1.3677 -0.4479 -0.5489
 1912TIP3    H227228   1.737   2.329  13.896  1.6437 -0.1740  0.9280
 1913TIP3   OH227229   3.845   6.228  14.720  0.1008  0.1007  0.0890
 1913TIP3    H127230   3.830   6.295  14.787 -0.9705  0.6977 -0.7176
 1913TIP3    H227231   3.923   6.181  14.750  1.3365  2.1790  0.2842
 1914TIP3   OH227232   1.047   5.852  11.564  0.0069 -0.5430  0.1309
 1914TIP3    H127233   0.982   5.812  11.506  0.1784 -1.9036  0.8545
 1914TIP3    H227234   1.080   5.780  11.618 -1.2718  0.8673  3.0438
 1915TIP3   OH227235   3.618   5.246  16.964 -0.6417 -0.0332  0.1100
 1915TIP3    H127236   3.596   5.165  16.920  0.0053 -0.1769  0.0510
 1915TIP3    H227237   3.713   5.245  16.972 -0.6648  0.4900  0.5431
 1916TIP3   OH227238   5.191   6.205  16.202  0.3745 -0.0494 -0.1363
 1916TIP3    H127239   5.125   6.271  16.180  1.1555 -0.0316 -2.8542
 1916TIP3    H227240   5.268   6.255  16.227 -0.1554 -0.0488  1.5981
 1917TIP3   OH227241   6.345   5.838   0.258  0.3276  0.1579  0.0944
 1917TIP3    H127242   6.331   5.751   0.220  0.0177 -0.3568  1.3236
 1917TIP3    H227243   6.302   5.833   0.344  0.5694  1.4342  0.3045
 1918TIP3   OH227244   1.355   1.712   0.591  0.2623 -0.4099 -0.0082
 1918TIP3    H127245   1.366   1.640   0.529  1.1362  0.4237 -0.8472
 1918TIP3    H227246   1.443   1.749   0.601 -0.3558  1.3380 -0.6036
 1919TIP3   OH227247   4.681   1.478   2.815  0.1022  0.2963 -0.0595
 1919TIP3    H127248   4.685   1.401   2.758 -2.5730 -0.4855  0.6760
 1919TIP3    H227249   4.746   1.460   2.883 -0.9140 -1.6978  0.4767
 1920TIP3   OH227250   3.096   1.457  16.236  0.0829 -0.0112 -0.5472
 1920TIP3    H127251   3.153   1.384  16.212  0.9529  0.8317 -1.1445
 1920TIP3    H227252   3.101   1.463  16.331  0.4641 -0.3659 -0.5460
 1921TIP3   OH227253   6.810   1.400  16.297 -0.1626 -0.2308  0.0857
 1921TIP3    H127254   6.768   1.382  16.214 -1.0446 -2.0101  0.8703
 1921TIP3    H227255   6.765   1.477  16.331 -1.8234 -1.2150  0.2192
 1922TIP3   OH227256   0.571   1.773   3.925 -0.3425 -0.0660  0.0012
 1922TIP3    H127257   0.531   1.821   3.997 -3.1460 -0.6896 -1.0318
 1922TIP3    H227258   0.573   1.682   3.955  2.6276  0.2103  0.9540
 1923TIP3   OH227259   3.848   0.582   3.250 -0.3837 -0.4760  0.1522
 1923TIP3    H127260   3.793   0.654   3.218 -0.3411 -0.8817 -0.8724
 1923TIP3    H227261   3.883   0.615   3.333  0.2280  1.0101 -0.6412
 1924TIP3   OH227262   1.762   0.266   1.833  0.6951 -0.1133 -0.1521
 1924TIP3    H127263   1.773   0.178   1.796 -1.2783 -0.1359 -0.8427
 1924TIP3    H227264   1.777   0.255   1.927  2.3174 -0.7811 -0.4546
 1925TIP3   OH227265   4.792   5.025  16.483  0.3331  0.3117 -0.0784
 1925TIP3    H127266   4.803   4.932  16.461  0.0397 -0.0445  1.1887
 1925TIP3    H227267   4.864   5.069  16.438 -0.0586 -0.4061 -1.4370
 1926TIP3   OH227268   6.061   5.085   2.597 -0.1467  0.0938 -0.0376
 1926TIP3    H127269   6.005   5.161   2.608 -0.8258 -0.4980  0.7793
 1926TIP3    H227270   6.147   5.112   2.629 -0.5228  0.3583  0.7681
 1927TIP3   OH227271   3.850   3.831   5.175  0.5685  0.9118  0.7227
 1927TIP3    H127272   3.788   3.767   5.139  2.2588 -1.1304  1.2205
 1927TIP3    H227273   3.798   3.882   5.238 -0.7412 -0.3288  0.7060
 1928TIP3   OH227274   0.928   5.321   4.630  0.1536  0.2174  0.4272
 1928TIP3    H127275   1.010   5.271   4.635 -0.8572 -1.3823  2.3540
 1928TIP3    H227276   0.932   5.365   4.545  3.4450  1.0271  0.8585
 1929TIP3   OH227277   3.979   0.328  11.821  0.3005  0.0589  0.2627
 1929TIP3    H127278   3.894   0.288  11.802  0.1343  0.6027 -0.1629
 1929TIP3    H227279   3.984   0.403  11.761  1.0877  0.0172  0.2694
 1930TIP3   OH227280   4.392   6.720  16.263 -0.4418  0.1954 -0.1017
 1930TIP3    H127281   4.381   6.713  16.358  3.2142 -3.5402  0.3459
 1930TIP3    H227282   4.458   6.788  16.251 -0.9548  0.7159  0.0086
 1931TIP3   OH227283   1.321   4.838   0.123 -0.2454 -0.2293 -0.1593
 1931TIP3    H127284   1.351   4.929   0.117  2.8834 -1.2299 -1.9032
 1931TIP3    H227285   1.259   4.838   0.196  0.8092  3.0038  0.9103
 1932TIP3   OH227286   1.384   2.204  11.077  0.3283  0.2185  1.0074
 1932TIP3    H127287   1.348   2.293  11.079 -1.0483 -0.2991  0.6664
 1932TIP3    H227288   1.406   2.185  11.167  0.9834  1.0353  1.0337
 1933TIP3   OH227289   4.369   2.072  16.252  0.1502  0.7931 -0.0496
 1933TIP3    H127290   4.433   2.004  16.272 -0.9710 -0.1957  0.2739
 1933TIP3    H227291   4.328   2.092  16.337  0.5302  1.9429 -0.1255
 1934TIP3   OH227292   0.795   1.155   1.324  0.0628 -0.2755 -0.1105
 1934TIP3    H127293   0.766   1.234   1.370 -2.1359 -0.7376 -0.5911
 1934TIP3    H227294   0.887   1.145   1.349  0.0280  1.6869  1.0001
 1935TIP3   OH227295   4.642   0.430  16.333 -0.1911 -0.6254 -0.0893
 1935TIP3    H127296   4.641   0.429  16.237 -0.4941  2.1971 -0.2017
 1935TIP3    H227297   4.728   0.464  16.356 -0.5616 -0.1172  0.5859
 1936TIP3   OH227298   3.077   3.627  10.663  0.2719 -0.7348 -0.0769
 1936TIP3    H127299   3.096   3.535  10.680  1.2823 -0.8921 -1.8061
 1936TIP3    H227300   3.162   3.669  10.656 -0.1741  0.5255  1.3992
 1937TIP3   OH227301   4.776   0.365   0.292  0.2496  0.9838  0.1622
 1937TIP3    H127302   4.767   0.346   0.386 -0.3628  1.1899  0.1549
 1937TIP3    H227303   4.706   0.428   0.274  1.0625  1.8115 -0.2041
 1938TIP3   OH227304   4.268   2.179  11.931  0.3214  0.1480  0.0643
 1938TIP3    H127305   4.226   2.240  11.991  0.2656  1.2888 -1.0991
 1938TIP3    H227306   4.295   2.233  11.856  1.9234 -0.9210 -0.1883
 1939TIP3   OH227307   4.251   0.326  14.271  0.1711  0.8964  0.3330
 1939TIP3    H127308   4.259   0.273  14.192 -0.5935 -0.5408  1.1700
 1939TIP3    H227309   4.216   0.410  14.241  1.7915  1.1243 -1.0768
 1940TIP3   OH227310   1.026   4.377   2.974 -0.0119  0.2291  0.5536
 1940TIP3    H127311   0.966   4.302   2.979  0.2754 -0.1356 -1.0306
 1940TIP3    H227312   0.969   4.453   2.962 -0.2959  0.2820  2.0144
 1941TIP3   OH227313   5.479   5.860  17.044 -0.3738 -0.4223  0.4018
 1941TIP3    H127314   5.414   5.854  17.114 -1.7630 -2.2215 -0.9196
 1941TIP3    H227315   5.480   5.952  17.019  0.1120  0.2516  2.6784
 1942TIP3   OH227316   1.754   5.879   4.498  0.5286  0.1476  0.2352
 1942TIP3    H127317   1.714   5.802   4.457  0.5408 -1.2019  2.5600
 1942TIP3    H227318   1.785   5.932   4.425  0.1091 -1.8452 -1.4825
 1943TIP3   OH227319   5.038   3.248   0.905  0.1590  0.0811  0.5274
 1943TIP3    H127320   4.967   3.311   0.915 -1.8902 -1.7776 -1.3426
 1943TIP3    H227321   5.030   3.191   0.981  0.6852  0.7722  1.1214
 1944TIP3   OH227322   0.668   4.968  11.929 -0.4178  0.1095  0.2000
 1944TIP3    H127323   0.587   4.928  11.898 -0.3482 -1.9444  2.3805
 1944TIP3    H227324   0.730   4.955  11.857 -1.4607 -0.0805 -0.6972
 1945TIP3   OH227325   0.988   0.292   6.410  0.0153 -0.3046  0.5155
 1945TIP3    H127326   1.041   0.262   6.484  3.0988  1.2271 -0.9037
 1945TIP3    H227327   0.980   0.386   6.424  3.3849  0.6334 -2.4704
 1946TIP3   OH227328   0.676   0.287  16.163 -0.2979  0.5026 -0.2432
 1946TIP3    H127329   0.747   0.225  16.178 -0.9064  0.2211  1.8638
 1946TIP3    H227330   0.720   0.370  16.144  0.6726  0.4939  1.7013
 1947TIP3   OH227331   4.083   5.342   5.017 -0.2788 -0.5130 -0.4044
 1947TIP3    H127332   4.091   5.436   5.034  0.2085 -0.5431 -0.4536
 1947TIP3    H227333   4.070   5.335   4.923 -0.2293 -0.5023 -0.4118
 1948TIP3   OH227334   0.709   3.978   2.793 -0.8771  0.1037 -0.1601
 1948TIP3    H127335   0.802   3.985   2.813 -0.9717 -0.0641  0.3478
 1948TIP3    H227336   0.706   3.963   2.699 -0.4742  2.1297 -0.5297
 1949TIP3   OH227337   5.176   1.135   0.752 -0.3323  0.2672 -0.5087
 1949TIP3    H127338   5.123   1.215   0.758  0.5918  1.0513 -2.0911
 1949TIP3    H227339   5.129   1.080   0.690  1.0616  1.3408 -2.6277
 1950TIP3   OH227340   4.042   2.429   3.504  0.0934  0.2786 -0.4015
 1950TIP3    H127341   4.045   2.444   3.410  0.7076  1.3694 -0.2319
 1950TIP3    H227342   4.116   2.480   3.539  0.6964 -1.1685  0.5406
 1951TIP3   OH227343   2.258   4.883   4.150  0.0903 -0.3656  0.2207
 1951TIP3    H127344   2.296   4.803   4.114  0.9683  0.4308 -0.6950
 1951TIP3    H227345   2.206   4.919   4.077 -1.4359 -0.8026  1.0627
 1952TIP3   OH227346   4.286   2.382   4.986 -0.9942 -0.4256 -0.1400
 1952TIP3    H127347   4.217   2.398   5.050 -0.4147 -0.0365  0.3958
 1952TIP3    H227348   4.345   2.320   5.029  0.4746  1.3424  0.5393
 1953TIP3   OH227349   5.422   3.609   1.054 -0.5097 -0.6284  0.6128
 1953TIP3    H127350   5.445   3.527   1.011  0.3842  1.3287 -3.1172
 1953TIP3    H227351   5.343   3.590   1.103 -0.5599 -3.6054 -0.4587
 1954TIP3   OH227352   6.127   1.856  13.953 -0.3981 -0.5812 -0.4167
 1954TIP3    H127353   6.047   1.804  13.942 -0.7172 -0.5673  1.4684
 1954TIP3    H227354   6.109   1.939  13.908 -1.3219 -0.7123 -0.3046
 1955TIP3   OH227355   4.095   1.799   2.336 -0.4896 -0.0828  0.1455
 1955TIP3    H127356   4.038   1.722   2.332 -0.3889 -0.1169 -0.6405
 1955TIP3    H227357   4.089   1.839   2.250  0.1989  0.2624  0.2504
 1956TIP3   OH227358   0.615   2.835   3.570  0.3823 -0.5773  0.1390
 1956TIP3    H127359   0.648   2.836   3.480  0.4884  0.3516  0.1865
 1956TIP3    H227360   0.521   2.820   3.562  0.2751  0.2314 -0.1653
 1957TIP3   OH227361   1.862   4.273  13.447  0.4359  0.4831  0.0965
 1957TIP3    H127362   1.955   4.278  13.468  0.7126 -0.9373 -0.6823
 1957TIP3    H227363   1.847   4.347  13.388  1.0104  0.8330  0.3724
 1958TIP3   OH227364   0.055   5.709  12.791 -0.0904 -0.4610  0.3780
 1958TIP3    H127365   0.100   5.648  12.733  0.7119  0.7902 -0.3613
 1958TIP3    H227366  -0.008   5.755  12.735  0.9409  1.0118  0.3666
 1959TIP3   OH227367   1.304   0.643   0.801 -0.3500 -0.1816  0.3272
 1959TIP3    H127368   1.227   0.592   0.825  0.5296 -1.4285  0.6320
 1959TIP3    H227369   1.378   0.589   0.830  0.6298  1.2709  0.6354
 1960TIP3   OH227370   0.173   5.427   0.259 -0.1025  0.2770  0.0606
 1960TIP3    H127371   0.253   5.430   0.206 -0.3507  1.1274 -0.2854
 1960TIP3    H227372   0.202   5.444   0.348  0.3475 -1.3652  0.2549
 1961TIP3   OH227373   6.496   0.264   2.912  0.2238  0.5530 -0.3859
 1961TIP3    H127374   6.561   0.322   2.874 -0.7842  1.1761 -1.2065
 1961TIP3    H227375   6.437   0.242   2.840  0.3164 -1.1426  0.0001
 1962TIP3   OH227376   5.775   3.701   0.015  0.7393  0.1988 -0.7854
 1962TIP3    H127377   5.775   3.793  -0.010 -0.6477  0.3455 -0.3690
 1962TIP3    H227378   5.714   3.659  -0.047 -0.0013 -0.0837  0.0979
 1963TIP3   OH227379   1.661   0.708  14.599 -0.5438 -0.0015 -0.2956
 1963TIP3    H127380   1.580   0.677  14.641 -0.6414 -0.2621 -0.6702
 1963TIP3    H227381   1.633   0.736  14.512 -0.1112 -0.7567 -0.6838
 1964TIP3   OH227382   5.778   6.782  13.160  0.3498  0.0286  0.8674
 1964TIP3    H127383   5.755   6.843  13.230  1.9820  0.5815  0.9527
 1964TIP3    H227384   5.736   6.817  13.082  0.0686  0.4416  1.2027
 1965TIP3   OH227385   2.675   5.387   2.319  0.2405 -0.2126 -0.2035
 1965TIP3    H127386   2.683   5.340   2.236  1.5457  0.3982 -0.4445
 1965TIP3    H227387   2.650   5.476   2.293  3.5953  0.8611 -0.2652
 1966TIP3   OH227388   3.062   4.666  10.605 -0.0563 -0.0892  0.0297
 1966TIP3    H127389   3.123   4.658  10.679 -0.9350 -1.1735  0.6637
 1966TIP3    H227390   2.976   4.650  10.644 -0.7207  1.0063 -0.9285
 1967TIP3   OH227391   3.985   2.465   0.247 -0.1173  0.2635  0.3926
 1967TIP3    H127392   3.925   2.470   0.172 -0.6684 -2.6574  0.4855
 1967TIP3    H227393   3.928   2.441   0.321  0.7394  0.7494  1.2232
 1968TIP3   OH227394   2.804   2.449  16.558 -0.4051 -0.2740  0.3866
 1968TIP3    H127395   2.869   2.395  16.512  0.5577  1.6089 -0.5912
 1968TIP3    H227396   2.839   2.458  16.646 -0.7674 -1.5047  0.6780
 1969TIP3   OH227397   0.226   3.708  16.316  0.1291  0.0465 -0.3929
 1969TIP3    H127398   0.179   3.739  16.238 -0.6325  0.4806  0.2190
 1969TIP3    H227399   0.156   3.686  16.378  0.7044 -1.1735 -0.1544
 1970TIP3   OH227400   5.083   1.221  13.085 -0.7574 -0.0314  0.3416
 1970TIP3    H127401   5.054   1.138  13.121  2.7376 -1.7643 -0.4639
 1970TIP3    H227402   5.152   1.198  13.023 -1.5306  3.3162 -2.0229
 1971TIP3   OH227403   0.583   3.845  15.618  0.0266 -0.3330 -0.3927
 1971TIP3    H127404   0.511   3.892  15.577 -0.0905 -0.4549 -0.3263
 1971TIP3    H227405   0.662   3.881  15.577 -0.1203 -0.9286 -1.2243
 1972TIP3   OH227406   3.165   2.527   2.633 -0.2940  0.1532 -0.0877
 1972TIP3    H127407   3.113   2.571   2.701 -2.2449 -0.4217 -1.1272
 1972TIP3    H227408   3.107   2.458   2.600  1.1523 -0.5068 -1.3450
 1973TIP3   OH227409   0.155   5.140   0.065  0.2351  0.2638  0.1283
 1973TIP3    H127410   0.155   5.183  -0.021  1.1382  1.4345  0.6860
 1973TIP3    H227411   0.125   5.208   0.126 -0.8710 -0.6969  0.6929
 1974TIP3   OH227412   3.252   1.938  11.080 -0.6697  0.3569  0.2399
 1974TIP3    H127413   3.213   2.019  11.111  0.2468  0.8076  0.2518
 1974TIP3    H227414   3.314   1.965  11.012 -0.3916 -0.3288  0.2056
 1975TIP3   OH227415   5.186   0.992   3.691 -0.3245 -0.3985  0.0910
 1975TIP3    H127416   5.143   1.023   3.611 -0.0362 -0.5201 -0.1109
 1975TIP3    H227417   5.122   1.009   3.760 -2.2794 -3.8816 -0.6408
 1976TIP3   OH227418   4.276   2.717   3.360 -0.2750 -0.0434  0.0085
 1976TIP3    H127419   4.216   2.647   3.383 -0.5603  0.0717 -0.3789
 1976TIP3    H227420   4.286   2.710   3.265 -1.3526  1.2577 -0.2257
 1977TIP3   OH227421   0.059   2.435   4.114  0.0163  0.3988 -0.4181
 1977TIP3    H127422   0.149   2.405   4.100  0.1193  0.7592 -0.5363
 1977TIP3    H227423   0.008   2.354   4.125  0.3033  0.1848 -0.6544
 1978TIP3   OH227424   1.868   2.684  15.387  0.1768 -0.8456  0.2215
 1978TIP3    H127425   1.941   2.666  15.328 -0.6283 -0.9904 -0.7620
 1978TIP3    H227426   1.825   2.761  15.350 -1.6170 -2.1969 -0.6654
 1979TIP3   OH227427   1.383   1.942  17.236 -0.3323 -0.1358  0.6314
 1979TIP3    H127428   1.357   1.989  17.315  0.0057 -1.7967  1.7803
 1979TIP3    H227429   1.414   1.857  17.267 -0.3482 -0.9151 -1.3012
 1980TIP3   OH227430   5.161   1.641  11.953  0.1279  0.2273  0.5000
 1980TIP3    H127431   5.079   1.690  11.962 -0.8433 -1.5817  2.5349
 1980TIP3    H227432   5.221   1.683  12.014 -0.1312 -0.0158  0.9254
 1981TIP3   OH227433   3.585   2.385  12.884  0.5772  0.0771 -0.2088
 1981TIP3    H127434   3.545   2.424  12.961 -1.3552 -1.9660 -0.0536
 1981TIP3    H227435   3.626   2.458  12.838  0.9432  1.4950  2.2112
 1982TIP3   OH227436   1.642   3.085  17.261 -0.4310 -0.1408  0.4520
 1982TIP3    H127437   1.654   3.105  17.354 -2.3584  0.8749  0.5339
 1982TIP3    H227438   1.547   3.077  17.250 -0.2558 -0.1751 -1.4614
 1983TIP3   OH227439   2.846   0.193   3.487 -0.1487  0.2951 -0.1425
 1983TIP3    H127440   2.940   0.181   3.502  0.3395  1.3738 -2.0260
 1983TIP3    H227441   2.820   0.260   3.551  0.9598  1.8561 -1.2482
 1984TIP3   OH227442   4.793   5.498   2.455  0.8716  0.4296 -0.5232
 1984TIP3    H127443   4.783   5.414   2.501 -0.1722  0.0393 -1.4310
 1984TIP3    H227444   4.862   5.543   2.504  0.2684 -0.2413  1.0177
 1985TIP3   OH227445   6.664   6.584  16.228 -0.2613  0.1108  0.2943
 1985TIP3    H127446   6.575   6.573  16.261 -0.1327  0.4213  0.7524
 1985TIP3    H227447   6.657   6.654  16.163 -0.5052 -0.4691 -0.3187
 1986TIP3   OH227448   5.209   1.886  13.033  1.0132  0.0847 -0.4284
 1986TIP3    H127449   5.202   1.797  13.000 -0.9507  0.2623 -0.6378
 1986TIP3    H227450   5.210   1.878  13.128 -0.1423 -0.1518 -0.4195
 1987TIP3   OH227451   4.498   3.896  16.863  0.2980 -0.0866 -0.4155
 1987TIP3    H127452   4.540   3.812  16.844  0.2483  0.0666 -1.2270
 1987TIP3    H227453   4.527   3.954  16.792  0.4334  0.6195  0.2008
 1988TIP3   OH227454   3.306   0.028   0.342  0.0254 -0.0809 -0.0746
 1988TIP3    H127455   3.366   0.083   0.391 -0.2704  0.3309 -0.1656
 1988TIP3    H227456   3.354   0.003   0.263 -0.5410  1.7386 -1.0324
 1989TIP3   OH227457   0.640   3.845  12.558 -0.1028  0.5811 -0.2433
 1989TIP3    H127458   0.687   3.784  12.614  0.2890 -0.1036 -1.2962
 1989TIP3    H227459   0.559   3.863  12.606  0.3796  0.3027  0.7076
 1990TIP3   OH227460   1.587   0.061   2.764 -0.0822  0.0355  0.6400
 1990TIP3    H127461   1.654   0.123   2.793  0.0436 -0.3522  1.1877
 1990TIP3    H227462   1.637  -0.010   2.724 -0.2627  0.7134 -0.8724
 1991TIP3   OH227463   1.182   1.353  16.844  0.1822  0.1400 -0.0785
 1991TIP3    H127464   1.241   1.400  16.784 -1.7420 -0.4032 -2.5573
 1991TIP3    H227465   1.096   1.391  16.828 -0.3686  0.4820  3.0079
 1992TIP3   OH227466   3.528   4.772   2.271 -0.4024  0.1182 -0.1210
 1992TIP3    H127467   3.477   4.846   2.237 -1.3422 -0.0756  0.8401
 1992TIP3    H227468   3.594   4.812   2.328 -1.2597  0.1960  0.8355
 1993TIP3   OH227469   2.976   2.249   5.442  0.5459  0.1654  0.0399
 1993TIP3    H127470   3.011   2.307   5.509  1.9097  0.0144 -0.4989
 1993TIP3    H227471   2.894   2.217   5.478  0.8536  0.7143  1.2876
 1994TIP3   OH227472   5.464   3.003   3.132 -0.4091 -0.3387 -0.3714
 1994TIP3    H127473   5.388   3.061   3.129 -0.1765 -0.0489 -0.8158
 1994TIP3    H227474   5.428   2.915   3.118 -0.6518 -0.1970 -0.6351
 1995TIP3   OH227475   3.350   3.553  16.875 -0.0180  0.2498  0.5466
 1995TIP3    H127476   3.373   3.468  16.912 -0.1391  0.7389  1.7863
 1995TIP3    H227477   3.435   3.595  16.859  0.0260  0.3252  0.9688
 1996TIP3   OH227478   4.364   1.677   0.717 -0.3625  0.2307  0.8743
 1996TIP3    H127479   4.425   1.661   0.645 -0.4668  2.4201  0.2054
 1996TIP3    H227480   4.415   1.729   0.779 -1.3501  1.6554  0.5414
 1997TIP3   OH227481   5.795   4.700   4.463 -0.1943  0.1517  0.0746
 1997TIP3    H127482   5.783   4.632   4.397  1.9372  0.9551 -1.2588
 1997TIP3    H227483   5.715   4.752   4.459 -1.5520 -1.8096  0.6128
 1998TIP3   OH227484   2.110   5.597   4.197 -0.5426 -0.2466  0.2076
 1998TIP3    H127485   2.076   5.673   4.243 -0.6227 -0.3081  0.2509
 1998TIP3    H227486   2.127   5.533   4.266 -3.4980 -1.4772 -0.0597
 1999TIP3   OH227487   4.512   5.970  16.346  0.4481 -0.0708  0.1511
 1999TIP3    H127488   4.590   5.928  16.310  0.0416 -0.6184 -0.0897
 1999TIP3    H227489   4.516   5.949  16.440 -0.3177 -1.5751 -0.1309
 2000TIP3   OH227490   4.733   4.144   2.521 -0.5045 -0.0330  0.2311
 2000TIP3    H127491   4.759   4.133   2.613  1.6518 -0.2088 -0.3429
 2000TIP3    H227492   4.772   4.228   2.496  0.8815 -1.0366 -1.1216
 2001TIP3   OH227493   5.445   0.913   1.778  0.0547 -0.2902 -0.7498
 2001TIP3    H127494   5.413   0.986   1.830  1.2450 -0.3899  0.1763
 2001TIP3    H227495   5.398   0.837   1.811  0.5377 -0.2936 -0.0553
 2002TIP3   OH227496   5.765   3.293   0.941  0.4692  0.3415  0.2923
 2002TIP3    H127497   5.702   3.338   0.885  1.3894  0.2647 -0.8515
 2002TIP3    H227498   5.712   3.238   0.998 -0.4704 -0.5311 -1.3488
 2003TIP3   OH227499   4.047   6.117   5.379 -0.4764  0.3093  0.3926
 2003TIP3    H127500   4.127   6.123   5.327 -0.3970  0.6109  0.5462
 2003TIP3    H227501   4.069   6.159   5.462 -0.9290  0.7869  0.2729
 2004TIP3   OH227502   4.330   4.972   6.270  0.3355  0.2517  0.1275
 2004TIP3    H127503   4.369   4.943   6.187 -1.2831 -0.5731 -0.3961
 2004TIP3    H227504   4.366   4.912   6.335  2.7096  1.7697  0.3190
 2005TIP3   OH227505   1.486   2.737   0.726 -0.6386  0.3297  0.3370
 2005TIP3    H127506   1.436   2.728   0.645  0.1038 -2.3587  0.0939
 2005TIP3    H227507   1.492   2.832   0.740 -2.3194  0.8133 -1.7577
 2006TIP3   OH227508   4.467   6.595  12.357 -0.0392  0.1119 -0.0530
 2006TIP3    H127509   4.516   6.611  12.438 -0.6463  1.2182  0.1186
 2006TIP3    H227510   4.412   6.673  12.347 -0.5243 -0.3538 -1.1344
 2007TIP3   OH227511   3.601   1.683   1.370 -0.4410  0.6398  0.3816
 2007TIP3    H127512   3.579   1.728   1.451 -0.0008  0.9338  0.3424
 2007TIP3    H227513   3.622   1.753   1.309  1.6129  0.3601  0.7134
 2008TIP3   OH227514   4.227   1.075  11.322  0.1959  0.4376 -0.1948
 2008TIP3    H127515   4.263   1.124  11.248  2.2495 -0.1141  0.3777
 2008TIP3    H227516   4.215   0.986  11.289 -1.3970  0.7704 -0.5856
 2009TIP3   OH227517   1.684   3.194  16.808  0.1337  1.3197 -0.1313
 2009TIP3    H127518   1.777   3.200  16.828  0.2310  0.2033 -0.2181
 2009TIP3    H227519   1.679   3.134  16.734 -0.7373  0.4620  0.5923
 2010TIP3   OH227520   5.631   3.464   0.263  0.6265 -0.0268  0.7396
 2010TIP3    H127521   5.726   3.473   0.256  0.4818  1.6623  0.4405
 2010TIP3    H227522   5.613   3.471   0.357  0.7231  0.8106  0.7045
 2011TIP3   OH227523   3.833   3.412   5.249  0.1363 -0.3585 -0.0439
 2011TIP3    H127524   3.832   3.488   5.307 -1.3459 -1.6293  1.7322
 2011TIP3    H227525   3.914   3.366   5.272  0.3293 -0.0440 -0.0963
 2012TIP3   OH227526   3.529   2.513  13.136  0.4164  0.1608  0.1455
 2012TIP3    H127527   3.516   2.603  13.104  1.7244  0.0976 -0.6670
 2012TIP3    H227528   3.514   2.518  13.230 -0.2654  1.0733 -0.0002
 2013TIP3   OH227529   1.976   5.664  14.498  0.7529 -0.5440  0.0680
 2013TIP3    H127530   2.033   5.661  14.420 -0.8488  2.1113 -1.3470
 2013TIP3    H227531   2.012   5.736  14.550 -0.2966  0.0458 -0.0114
 2014TIP3   OH227532   3.988   3.578  17.240  0.8852  0.1740  0.0660
 2014TIP3    H127533   3.971   3.574  17.334 -1.1345 -1.4743 -0.3055
 2014TIP3    H227534   4.082   3.559  17.232  1.2171  0.9453  1.7602
 2015TIP3   OH227535   3.765   3.547  15.964 -0.4465 -0.4259  0.0937
 2015TIP3    H127536   3.721   3.621  15.922 -1.2543 -0.9283  0.0475
 2015TIP3    H227537   3.704   3.474  15.956  0.0711 -0.9431  0.7131
 2016TIP3   OH227538   4.039   1.104  15.747 -0.0073  0.1494  0.1424
 2016TIP3    H127539   4.074   1.186  15.781  0.9785 -0.1498 -0.1166
 2016TIP3    H227540   4.013   1.055  15.826  0.1066  0.4000  0.3366
 2017TIP3   OH227541   1.844   4.306  15.456  0.8081  0.6528  0.4550
 2017TIP3    H127542   1.795   4.232  15.493  1.4559 -0.3882 -0.6948
 2017TIP3    H227543   1.830   4.377  15.519 -1.1614  0.0471  0.7961
 2018TIP3   OH227544   3.339   3.891   5.456 -0.5576 -0.6962  0.9067
 2018TIP3    H127545   3.393   3.852   5.525 -1.0235 -2.6385  0.2529
 2018TIP3    H227546   3.311   3.816   5.403 -0.6081  0.6675 -1.1169
 2019TIP3   OH227547   3.667   0.173  12.496  0.3367 -0.2933 -0.3070
 2019TIP3    H127548   3.604   0.104  12.479  0.3718  0.3263 -3.5438
 2019TIP3    H227549   3.728   0.168  12.422  0.9306  2.5141 -0.0966
 2020TIP3   OH227550   3.689   0.746   5.253 -0.2970 -0.3743  0.0569
 2020TIP3    H127551   3.662   0.831   5.220  0.2555 -1.0112 -2.2305
 2020TIP3    H227552   3.782   0.756   5.274 -0.4480 -0.1991  0.6788
 2021TIP3   OH227553   6.735   1.356  10.879 -0.1925 -0.3646  0.2282
 2021TIP3    H127554   6.706   1.397  10.961 -0.6332 -1.2085  0.5126
 2021TIP3    H227555   6.828   1.376  10.874 -0.3669  0.5510  0.4151
 2022TIP3   OH227556   6.623   5.940  14.075 -0.2281  0.0151 -0.1756
 2022TIP3    H127557   6.586   5.910  14.158 -0.9932 -0.9974 -0.8623
 2022TIP3    H227558   6.671   5.864  14.042 -0.4872  0.2008 -0.9823
 2023TIP3   OH227559   4.797   6.215   0.270  0.0419 -0.0688 -0.2551
 2023TIP3    H127560   4.760   6.128   0.264 -0.1333 -0.2350  2.3786
 2023TIP3    H227561   4.722   6.274   0.280  0.2568  0.0954  0.4617
 2024TIP3   OH227562   1.839   4.471  16.885 -0.0046 -0.4568 -0.4489
 2024TIP3    H127563   1.788   4.552  16.870  1.3838  0.3538 -0.9719
 2024TIP3    H227564   1.918   4.501  16.930  0.9255 -1.3939 -1.4064
 2025TIP3   OH227565   5.122   1.271   2.320  0.1270 -0.0976 -0.3653
 2025TIP3    H127566   5.047   1.213   2.310  0.3899 -0.4829 -0.1514
 2025TIP3    H227567   5.086   1.353   2.353  0.1047 -1.1971  2.6184
 2026TIP3   OH227568   0.250   2.377   0.654  0.3200 -0.0553  0.4334
 2026TIP3    H127569   0.206   2.297   0.683  1.2161 -0.7312 -0.0247
 2026TIP3    H227570   0.180   2.443   0.651 -0.5994 -1.0115  0.0701
 2027TIP3   OH227571   2.496   6.398  11.285 -0.1806  0.2221  0.1641
 2027TIP3    H127572   2.460   6.357  11.207  0.5301  0.9925 -0.5938
 2027TIP3    H227573   2.563   6.336  11.315 -1.4548 -0.7849  1.0620
 2028TIP3   OH227574   6.366   1.748   2.908 -0.1777 -0.4717 -0.4058
 2028TIP3    H127575   6.453   1.710   2.897 -0.7197 -1.8092 -0.1359
 2028TIP3    H227576   6.384   1.841   2.926  1.1687 -0.6278 -0.7981
 2029TIP3   OH227577   1.792   5.819  13.535  0.0849 -0.4322 -0.0183
 2029TIP3    H127578   1.840   5.899  13.513  1.8581 -1.5837 -0.5692
 2029TIP3    H227579   1.738   5.802  13.457  1.3107 -0.8877 -0.7971
 2030TIP3   OH227580   5.882   4.290   1.399 -0.2427 -0.2023  0.1641
 2030TIP3    H127581   5.927   4.373   1.385 -1.3775  0.6440  1.2674
 2030TIP3    H227582   5.821   4.308   1.470 -0.5875 -1.9693  0.3584
 2031TIP3   OH227583   3.845   6.717   4.984  0.1453  0.5676  0.3889
 2031TIP3    H127584   3.791   6.794   5.005  0.0720  0.7215 -0.3366
 2031TIP3    H227585   3.830   6.702   4.891  0.7506  0.1325  0.3562
 2032TIP3   OH227586   5.015   3.036   1.632 -0.1762  0.2889 -0.4684
 2032TIP3    H127587   4.987   3.127   1.636  0.6818  0.5770 -0.8833
 2032TIP3    H227588   5.090   3.030   1.691 -0.3172 -0.1862 -0.3279
 2033TIP3   OH227589   0.726   6.372  16.163 -1.0387  0.3818  0.1509
 2033TIP3    H127590   0.696   6.368  16.254 -0.5784 -0.0276  0.2915
 2033TIP3    H227591   0.801   6.312  16.160 -2.8206 -1.9101 -1.1835
 2034TIP3   OH227592   2.836   5.293  11.707 -0.1028  0.1523  0.8545
 2034TIP3    H127593   2.917   5.322  11.748 -0.7339  0.9682  1.5513
 2034TIP3    H227594   2.769   5.354  11.739 -0.6776  0.6518 -1.1568
 2035TIP3   OH227595   6.235   5.637  12.179  0.1795 -0.4483 -0.0174
 2035TIP3    H127596   6.232   5.556  12.231  0.7762 -0.3681  0.1541
 2035TIP3    H227597   6.328   5.653  12.166  0.2003  1.4426  1.8710
 2036TIP3   OH227598   4.655   4.320  11.431  0.1119  0.7143  0.3515
 2036TIP3    H127599   4.703   4.263  11.372  1.3761  0.4340  1.6136
 2036TIP3    H227600   4.563   4.306  11.409  0.5546  0.9036 -1.7798
 2037TIP3   OH227601   5.909   3.010   1.526 -0.1553 -0.1387  0.2344
 2037TIP3    H127602   5.849   3.042   1.458  0.6348 -0.6795 -0.7330
 2037TIP3    H227603   5.906   3.078   1.594  0.6526  1.4926 -1.2781
 2038TIP3   OH227604   4.245   1.138  16.218  0.4856 -0.3529 -0.4957
 2038TIP3    H127605   4.310   1.137  16.288  0.3204  2.2505 -0.2373
 2038TIP3    H227606   4.294   1.165  16.140  0.1803 -0.8489 -0.8706
 2039TIP3   OH227607   0.267   0.175  15.292 -0.3620 -0.3025 -0.2322
 2039TIP3    H127608   0.335   0.204  15.354 -0.8869 -0.8872  0.6408
 2039TIP3    H227609   0.234   0.256  15.254 -0.8127  0.1853  1.1145
 2040TIP3   OH227610   2.382   2.043   2.599  0.0605  0.3167 -0.2117
 2040TIP3    H127611   2.392   2.035   2.693  0.8928  0.9070 -0.2425
 2040TIP3    H227612   2.471   2.044   2.564 -0.1703  1.6982 -0.8462
 2041TIP3   OH227613   1.975   1.826   4.138 -0.1400 -0.6301  0.3423
 2041TIP3    H127614   1.953   1.873   4.058 -1.8440 -2.6722 -0.4805
 2041TIP3    H227615   2.023   1.890   4.191 -1.5091  1.7179 -1.0690
 2042TIP3   OH227616   2.378   2.586   3.047  0.3807 -0.2590 -0.2787
 2042TIP3    H127617   2.309   2.602   2.982  0.7426  0.0239 -0.5914
 2042TIP3    H227618   2.406   2.496   3.029  0.3077 -0.2676 -0.3540
 2043TIP3   OH227619   1.797   6.477   3.824 -0.4795 -0.4968 -0.1500
 2043TIP3    H127620   1.849   6.486   3.744  0.1913  0.0077  0.3308
 2043TIP3    H227621   1.730   6.544   3.816 -0.1549 -0.1605 -0.0993
 2044TIP3   OH227622   2.872   3.161  10.985 -0.3232  0.1602 -0.2677
 2044TIP3    H127623   2.925   3.106  11.043 -0.9488  0.5153  0.6713
 2044TIP3    H227624   2.907   3.145  10.897  0.5082 -0.5532  0.1811
 2045TIP3   OH227625   1.057   5.225  15.147  0.1183  0.4503  0.2073
 2045TIP3    H127626   1.100   5.308  15.127  0.2699  0.5688  1.0067
 2045TIP3    H227627   1.058   5.177  15.064  1.0457  0.7914  0.0099
 2046TIP3   OH227628   1.294   0.410   4.296  0.3401 -0.1388  0.3266
 2046TIP3    H127629   1.296   0.376   4.386 -0.9481 -0.3994  0.2872
 2046TIP3    H227630   1.262   0.499   4.306 -0.7993 -0.5000  0.0666
 2047TIP3   OH227631   5.463   6.491   4.779 -0.2072 -0.0153  0.3384
 2047TIP3    H127632   5.451   6.586   4.780 -0.6527 -0.0700  0.3583
 2047TIP3    H227633   5.441   6.465   4.690  2.1142  0.1644 -0.3495
 2048TIP3   OH227634   0.499   1.557  15.599  0.0444  0.1940 -0.3578
 2048TIP3    H127635   0.543   1.603  15.528 -0.0007  0.1540 -0.4118
 2048TIP3    H227636   0.442   1.495  15.555  0.2181 -0.0194 -0.2861
 2049TIP3   OH227637   5.544   6.453  11.520 -0.1304  0.1255  0.6350
 2049TIP3    H127638   5.625   6.469  11.569  0.7595 -1.4285 -0.2128
 2049TIP3    H227639   5.567   6.474  11.429 -0.2361 -1.5120  0.1875
 2050TIP3   OH227640   4.491   4.534  11.180 -1.0435 -0.1064  0.0518
 2050TIP3    H127641   4.568   4.539  11.122 -0.9072  1.7073  0.3487
 2050TIP3    H227642   4.464   4.442  11.175  1.5005 -0.9534  0.4118
 2051TIP3   OH227643   5.142   3.831  12.837  0.6661 -0.0930 -0.0514
 2051TIP3    H127644   5.155   3.737  12.828  0.2054 -0.0236 -1.6892
 2051TIP3    H227645   5.195   3.855  12.914  1.5797 -1.5118 -0.1981
 2052TIP3   OH227646   4.803   6.639   1.270 -0.1127  0.4840  0.4594
 2052TIP3    H127647   4.760   6.704   1.326  0.1011 -0.1680  1.4217
 2052TIP3    H227648   4.733   6.606   1.214 -0.5826  0.4063  1.0758
 2053TIP3   OH227649   1.173   6.030  15.775 -0.3051 -0.1891 -0.5072
 2053TIP3    H127650   1.118   6.080  15.715  0.6799 -0.7655 -1.9527
 2053TIP3    H227651   1.249   6.087  15.790 -0.8207  0.2047  0.7053
 2054TIP3   OH227652   2.810   0.125   1.877  0.3251 -0.4755  0.1153
 2054TIP3    H127653   2.872   0.189   1.912 -0.3860 -0.6629  1.7923
 2054TIP3    H227654   2.814   0.138   1.782 -0.4890  2.7722  0.3917
 2055TIP3   OH227655   4.109   1.706   3.273 -0.1995 -0.0802 -0.4639
 2055TIP3    H127656   4.151   1.668   3.196 -1.5662 -1.0379 -0.7735
 2055TIP3    H227657   4.016   1.685   3.263 -0.2895 -1.2060  1.9683
 2056TIP3   OH227658   6.758   2.734   4.446 -0.0715 -0.1683  0.2439
 2056TIP3    H127659   6.759   2.781   4.529 -0.0174 -0.5224  0.4490
 2056TIP3    H227660   6.686   2.672   4.454  0.6001 -0.9429  0.4543
 2057TIP3   OH227661   5.730   6.355  16.739  0.0137 -0.7254  0.5826
 2057TIP3    H127662   5.681   6.294  16.683  0.1438 -0.2984 -0.0083
 2057TIP3    H227663   5.820   6.351  16.705  0.2329 -0.9421  1.1779
 2058TIP3   OH227664   3.552   0.001   2.294 -0.4205  0.5085  0.1466
 2058TIP3    H127665   3.532   0.084   2.337  0.7496  0.9710 -0.1763
 2058TIP3    H227666   3.634   0.017   2.247 -0.0916 -0.8734  0.2115
 2059TIP3   OH227667   2.825   4.353  16.038 -0.1044  0.6875  0.2108
 2059TIP3    H127668   2.813   4.279  15.978 -1.2985  1.8681 -1.0942
 2059TIP3    H227669   2.889   4.409  15.995 -0.1353  1.0175  0.5917
 2060TIP3   OH227670   5.767   2.574  11.547  0.5882 -0.2648 -0.8810
 2060TIP3    H127671   5.736   2.538  11.629 -0.4651 -1.7977 -1.9026
 2060TIP3    H227672   5.862   2.562  11.549  0.7187  0.7227  0.5359
 2061TIP3   OH227673   3.303   5.429  11.180 -0.1194 -0.4548 -0.1740
 2061TIP3    H127674   3.240   5.496  11.153  0.0013 -0.7646 -1.2759
 2061TIP3    H227675   3.355   5.411  11.101  0.0101 -1.6620  0.1576
 2062TIP3   OH227676   6.288   3.351  14.181 -0.0037 -0.0366 -0.4632
 2062TIP3    H127677   6.193   3.354  14.185 -0.1007  1.5983 -2.1836
 2062TIP3    H227678   6.308   3.346  14.087  1.5953  1.1614 -0.2313
 2063TIP3   OH227679   2.169   0.145   4.466 -0.2064  0.1268 -0.6079
 2063TIP3    H127680   2.170   0.065   4.413  3.0505  0.0320 -0.5867
 2063TIP3    H227681   2.195   0.116   4.553  0.0126  1.0648 -0.3480
 2064TIP3   OH227682   5.368   3.277  16.562 -0.2729  0.4787 -0.3632
 2064TIP3    H127683   5.360   3.370  16.543 -0.5519  0.6036  0.3240
 2064TIP3    H227684   5.278   3.247  16.572 -0.1565  0.5136  1.1021
 2065TIP3   OH227685   2.625   3.080   3.483 -0.1298  0.0264  0.7552
 2065TIP3    H127686   2.692   3.130   3.437 -2.5482  1.6102 -1.3256
 2065TIP3    H227687   2.674   3.018   3.537  2.9619  1.5681 -0.0525
 2066TIP3   OH227688   5.000   2.930  13.205 -0.1885 -0.2990 -0.6139
 2066TIP3    H127689   4.996   2.960  13.296 -1.5317  1.3115 -1.1578
 2066TIP3    H227690   5.066   2.986  13.164  0.2952 -0.9100 -0.6750
 2067TIP3   OH227691   6.311   3.375  15.998  0.1894  0.5638  0.4467
 2067TIP3    H127692   6.403   3.361  16.021 -0.0401  0.1795  1.1737
 2067TIP3    H227693   6.267   3.295  16.025  0.3514 -1.4758 -4.4000
 2068TIP3   OH227694   5.842   2.385  11.367 -0.1538 -0.0292  0.2905
 2068TIP3    H127695   5.767   2.429  11.406 -1.8965  0.3399 -3.0546
 2068TIP3    H227696   5.810   2.355  11.282  2.9597 -1.6857 -0.4479
 2069TIP3   OH227697   2.889   2.910  15.592 -0.0556 -0.8144 -0.3221
 2069TIP3    H127698   2.903   3.002  15.568 -1.7760 -0.3127  0.4081
 2069TIP3    H227699   2.964   2.889  15.648  0.1555  0.2774 -0.1608
 2070TIP3   OH227700   2.829   3.802  12.981 -0.1806 -0.6551 -0.0709
 2070TIP3    H127701   2.847   3.713  13.012 -1.0882 -1.9361 -2.8608
 2070TIP3    H227702   2.915   3.845  12.980  0.2296 -1.3554  1.5932
 2071TIP3   OH227703   0.753   5.664   5.252  0.6746 -0.6322  0.3737
 2071TIP3    H127704   0.755   5.740   5.193 -1.0612 -1.5527 -0.9705
 2071TIP3    H227705   0.788   5.697   5.335 -0.9043  1.9547  0.1410
 2072TIP3   OH227706   5.885   0.330  15.604  0.2040 -1.1960 -0.0852
 2072TIP3    H127707   5.819   0.399  15.601 -2.0777 -2.9591  3.0213
 2072TIP3    H227708   5.932   0.344  15.686  2.0038 -1.4919 -1.0118
 2073TIP3   OH227709   5.149   2.720   5.164  0.4936 -0.4422 -0.3250
 2073TIP3    H127710   5.066   2.744   5.123  0.2081 -0.4788  0.2203
 2073TIP3    H227711   5.163   2.788   5.230  2.5826  1.5457 -2.6048
 2074TIP3   OH227712   5.905   3.093  11.267 -0.2551 -0.4312  0.3151
 2074TIP3    H127713   5.861   3.115  11.185  1.0485 -1.3484 -0.6754
 2074TIP3    H227714   5.918   2.998  11.263 -0.7366 -0.5891  1.8885
 2075TIP3   OH227715   6.511   5.377  16.893  0.2361  0.6309  0.2017
 2075TIP3    H127716   6.550   5.324  16.823  0.8431  0.2490  0.8164
 2075TIP3    H227717   6.429   5.331  16.915 -0.9071  1.7319 -1.4667
 2076TIP3   OH227718   6.034   2.408   0.496  0.0485 -0.2890  0.2404
 2076TIP3    H127719   5.988   2.335   0.454  0.7342 -2.0129  2.2920
 2076TIP3    H227720   5.968   2.477   0.504 -0.8835 -1.0076 -0.9073
 2077TIP3   OH227721   4.033   5.367  11.904 -0.2119 -0.3793  0.0232
 2077TIP3    H127722   4.026   5.357  11.809  0.3088  2.0181 -0.3232
 2077TIP3    H227723   3.951   5.410  11.929 -0.8618 -2.0180  0.8845
 2078TIP3   OH227724   1.279   6.542   3.148  0.0349  0.2042  0.3372
 2078TIP3    H127725   1.262   6.509   3.236  1.0231  1.6992  1.1273
 2078TIP3    H227726   1.223   6.489   3.092 -0.9030 -0.5353  1.8971
 2079TIP3   OH227727   2.691   1.477   0.072 -0.2865 -0.0014 -0.0589
 2079TIP3    H127728   2.752   1.528   0.018  1.5572 -0.6135  1.3473
 2079TIP3    H227729   2.624   1.449   0.010  0.6942  0.9264 -1.6389
 2080TIP3   OH227730   0.833   4.724   0.599 -0.1112 -0.3852  0.0608
 2080TIP3    H127731   0.906   4.681   0.553  0.6789  0.4966  0.4715
 2080TIP3    H227732   0.874   4.775   0.668 -1.1348  0.0353  0.3801
 2081TIP3   OH227733   2.862   1.075  14.881 -0.1152 -0.4870  0.2290
 2081TIP3    H127734   2.819   1.157  14.855  1.0377 -0.2622 -1.1265
 2081TIP3    H227735   2.886   1.088  14.972  1.8440  1.5836 -0.4739
 2082TIP3   OH227736   0.317   3.096   0.940 -0.2250  0.4461  0.3676
 2082TIP3    H127737   0.286   3.180   0.973  0.2895  0.2138  1.4790
 2082TIP3    H227738   0.237   3.047   0.920 -0.5236  1.3051 -0.5963
 2083TIP3   OH227739   1.272   1.564   0.334  0.0193 -0.4230 -0.2172
 2083TIP3    H127740   1.226   1.509   0.271 -1.0149  0.0828  0.0752
 2083TIP3    H227741   1.363   1.537   0.328  0.0935  0.1607 -2.5028
 2084TIP3   OH227742   2.158   0.858   4.403  0.5302  0.0203 -0.1926
 2084TIP3    H127743   2.252   0.878   4.399  0.9144 -1.6988 -0.5706
 2084TIP3    H227744   2.140   0.813   4.321 -0.0792 -1.7812  0.8664
 2085TIP3   OH227745   4.501   0.238  16.491 -0.3844  0.1991  0.0089
 2085TIP3    H127746   4.555   0.312  16.464  0.5439  0.1182  1.5352
 2085TIP3    H227747   4.549   0.198  16.564 -0.3649 -2.4816 -1.3353
 2086TIP3   OH227748   0.657   0.050  13.358  0.1248 -0.9762  0.1353
 2086TIP3    H127749   0.729   0.113  13.361 -0.2247 -0.4463 -1.4225
 2086TIP3    H227750   0.638   0.030  13.449  0.7494  0.6179  0.6517
 2087TIP3   OH227751   4.549   5.357  11.477  0.0435 -0.9586  0.0439
 2087TIP3    H127752   4.519   5.300  11.406 -0.6854  0.0011 -0.4404
 2087TIP3    H227753   4.471   5.370  11.532 -0.0864  0.4008 -0.4322
 2088TIP3   OH227754   5.545   1.535   3.730 -0.2409 -0.4940 -0.8775
 2088TIP3    H127755   5.617   1.588   3.696  0.4055 -0.8694 -0.1185
 2088TIP3    H227756   5.561   1.528   3.824 -0.7570 -1.3605 -0.8325
 2089TIP3   OH227757   3.894   6.154   5.039 -0.1112  0.2156 -1.0426
 2089TIP3    H127758   3.943   6.075   5.064 -0.9479 -0.7363 -2.2872
 2089TIP3    H227759   3.905   6.213   5.113 -1.7885 -2.1276  1.2525
 2090TIP3   OH227760   3.484   0.316   5.784 -0.0991  0.0901 -0.1235
 2090TIP3    H127761   3.572   0.283   5.769  0.0609 -0.1116  1.0947
 2090TIP3    H227762   3.492   0.411   5.783 -0.5968  0.2243 -3.8668
 2091TIP3   OH227763   3.092   2.384   4.950 -0.2469 -0.3609 -0.4554
 2091TIP3    H127764   3.006   2.355   4.919 -1.5054  2.3999  0.0936
 2091TIP3    H227765   3.105   2.337   5.032 -0.7437 -1.5641 -1.0462
 2092TIP3   OH227766   2.761   5.181  14.602  0.2565  0.4376  0.1884
 2092TIP3    H127767   2.700   5.199  14.530  0.8154 -0.1377 -0.4429
 2092TIP3    H227768   2.838   5.233  14.581 -0.3306  1.9431  1.4950
 2093TIP3   OH227769   3.294   4.922   4.460 -0.5279  0.1138  0.1109
 2093TIP3    H127770   3.332   5.006   4.485 -1.0634  0.3791  0.0386
 2093TIP3    H227771   3.303   4.919   4.365 -4.9060  2.3453 -0.6210
 2094TIP3   OH227772   2.625   6.073   0.571  0.4573  0.1816  0.1922
 2094TIP3    H127773   2.692   6.127   0.528  1.0509  0.5924  1.5797
 2094TIP3    H227774   2.649   5.983   0.550  0.1736  0.3867 -1.1144
 2095TIP3   OH227775   1.858   2.046  15.194  0.1957  0.3135  0.0818
 2095TIP3    H127776   1.887   1.996  15.271  2.5390 -0.2085 -1.0611
 2095TIP3    H227777   1.810   1.982  15.141 -0.6981  0.4602  0.6988
 2096TIP3   OH227778   0.916   0.614  13.460  0.4863  0.0400 -0.5361
 2096TIP3    H127779   0.866   0.640  13.382 -2.2280 -2.3080  0.2472
 2096TIP3    H227780   0.869   0.654  13.533  1.9233  0.7036  0.0638
 2097TIP3   OH227781   0.092   1.761   4.911 -0.4929 -0.4811  0.2710
 2097TIP3    H127782   0.140   1.727   4.836  0.3077 -1.3238  1.1432
 2097TIP3    H227783   0.148   1.742   4.986 -1.5201 -0.1401  1.1473
 2098TIP3   OH227784   2.773   0.165  10.826  0.1267  0.3246 -0.8705
 2098TIP3    H127785   2.690   0.168  10.874  1.1063 -0.9281  1.0204
 2098TIP3    H227786   2.747   0.142  10.736 -1.7902  3.1647 -1.1764
 2099TIP3   OH227787   5.561   1.558  16.876  0.4290  0.0044 -0.1146
 2099TIP3    H127788   5.540   1.651  16.869 -2.4026 -0.6607 -2.4699
 2099TIP3    H227789   5.477   1.515  16.894  1.3146 -2.2256 -0.9150
 2100TIP3   OH227790   5.038   6.425  16.125 -0.4210 -0.2236 -0.4370
 2100TIP3    H127791   5.015   6.488  16.057  1.2589  0.2961 -0.5756
 2100TIP3    H227792   5.019   6.470  16.208  1.4344  0.7851 -0.5213
 2101TIP3   OH227793   3.099   0.305   1.326 -0.1247  0.1595  0.1444
 2101TIP3    H127794   3.121   0.352   1.246  0.3220  0.2883  0.3417
 2101TIP3    H227795   3.069   0.219   1.295 -0.2233  0.3072 -0.1758
 2102TIP3   OH227796   5.843   1.460  11.480  0.6187  0.3061  1.1562
 2102TIP3    H127797   5.810   1.517  11.410  0.6661 -0.8589  0.1366
 2102TIP3    H227798   5.925   1.425  11.445  1.1311  0.4330  2.2057
 2103TIP3   OH227799   5.903   3.190   5.860 -0.1706 -0.5476  0.1114
 2103TIP3    H127800   5.925   3.127   5.791 -1.3039 -0.9766  0.1218
 2103TIP3    H227801   5.830   3.150   5.907  1.0015 -0.5802  2.0307
 2104TIP3   OH227802   1.543   4.323   3.628  0.4405 -0.1996 -0.4546
 2104TIP3    H127803   1.604   4.367   3.569  1.5277 -0.4962  0.4078
 2104TIP3    H227804   1.549   4.231   3.604 -0.6326 -0.0971 -1.1923
 2105TIP3   OH227805   3.743   0.959  11.637 -0.3216  0.0158 -0.5177
 2105TIP3    H127806   3.796   0.926  11.565 -2.6691 -1.2801 -1.7746
 2105TIP3    H227807   3.679   0.890  11.653 -0.1456  0.4322  2.5993
 2106TIP3   OH227808   1.866   0.438  12.641  0.1698 -0.3042 -0.3967
 2106TIP3    H127809   1.787   0.395  12.672  1.1226 -1.3346  0.7297
 2106TIP3    H227810   1.937   0.397  12.691  1.4422  0.4284 -1.5181
 2107TIP3   OH227811   2.176   3.862  11.238 -0.1942  0.0593  0.1019
 2107TIP3    H127812   2.084   3.887  11.230 -0.1663  0.1508  0.0670
 2107TIP3    H227813   2.209   3.864  11.149  0.4067  2.1759  0.3043
 2108TIP3   OH227814   5.832   4.193   4.037 -0.1754 -0.2125  0.2063
 2108TIP3    H127815   5.823   4.278   3.995  2.2360 -0.1074 -0.2332
 2108TIP3    H227816   5.895   4.146   3.983 -0.9240 -2.0543  0.8356
 2109TIP3   OH227817   5.338   6.142   5.084  0.3889 -0.3132  0.1796
 2109TIP3    H127818   5.399   6.210   5.056  0.2840  0.6174  2.0289
 2109TIP3    H227819   5.252   6.175   5.060  0.4776 -0.9943 -1.1849
 2110TIP3   OH227820   4.010   2.962   6.199 -0.8295  0.1269  0.6353
 2110TIP3    H127821   3.915   2.978   6.198 -0.6347  2.2062 -3.0323
 2110TIP3    H227822   4.047   3.040   6.241 -0.6645  0.4299 -0.0639
 2111TIP3   OH227823   6.295   5.228   4.803  0.9196  0.1944 -0.3988
 2111TIP3    H127824   6.390   5.213   4.809  1.3804  2.1445 -1.6339
 2111TIP3    H227825   6.272   5.200   4.715  0.1023 -1.2292  0.2387
 2112TIP3   OH227826   5.487   3.911  15.773 -0.3181  0.4557  0.3604
 2112TIP3    H127827   5.497   3.871  15.860 -0.4747  2.3030  1.2690
 2112TIP3    H227828   5.567   3.887  15.726 -1.3535 -2.7911  0.0081
 2113TIP3   OH227829   5.054   2.250   2.965  0.6138 -0.3148  0.7075
 2113TIP3    H127830   5.123   2.203   2.918  0.3666 -0.4283  0.4583
 2113TIP3    H227831   5.063   2.220   3.056 -1.4983 -3.2824  0.0824
 2114TIP3   OH227832   5.402   4.649  15.781  0.2390 -0.1110 -0.2505
 2114TIP3    H127833   5.353   4.671  15.702  1.2051  1.5989 -0.4173
 2114TIP3    H227834   5.384   4.721  15.842 -0.4000 -1.3444  1.0739
 2115TIP3   OH227835   6.650   4.225   3.345 -0.1544 -0.3365  0.2738
 2115TIP3    H127836   6.584   4.244   3.411 -0.2303 -0.3225  0.1938
 2115TIP3    H227837   6.689   4.142   3.372 -0.3008 -0.4136  0.2450
 2116TIP3   OH227838   6.482   4.703   4.234  0.7989  0.3429 -0.3052
 2116TIP3    H127839   6.536   4.719   4.156  3.1456 -0.1188  1.1185
 2116TIP3    H227840   6.471   4.608   4.236 -2.6167  0.5577 -2.0858
 2117TIP3   OH227841   1.003   4.268   5.779 -0.0496  0.1891  0.3284
 2117TIP3    H127842   0.951   4.331   5.729  0.5057 -0.4548 -1.1407
 2117TIP3    H227843   1.075   4.245   5.720  0.1889 -1.2219  1.1321
 2118TIP3   OH227844   5.231   4.011  13.712 -0.7136  0.3305  0.3480
 2118TIP3    H127845   5.258   4.046  13.798 -0.0929  0.2401  0.1992
 2118TIP3    H227846   5.136   4.017  13.713 -0.6798  1.0469  0.7438
 2119TIP3   OH227847   2.555   0.048   2.727 -0.2868 -0.6631  0.4577
 2119TIP3    H127848   2.564  -0.010   2.802 -1.8940 -0.8086  0.5823
 2119TIP3    H227849   2.555  -0.010   2.651  3.6333 -0.3703  0.0363
 2120TIP3   OH227850   5.144   3.553  13.808 -0.1826  0.8839  0.3210
 2120TIP3    H127851   5.106   3.636  13.836 -0.4876  0.5479  0.9190
 2120TIP3    H227852   5.073   3.490  13.817  0.0439  0.5592 -0.1489
 2121TIP3   OH227853   6.601   2.520   4.506  0.2760  0.3682 -0.3381
 2121TIP3    H127854   6.597   2.515   4.601  0.6126 -0.1401 -0.3454
 2121TIP3    H227855   6.511   2.536   4.478 -0.2925 -1.9389 -0.0675
 2122TIP3   OH227856   4.225   2.169  10.584  0.0716  0.2219  0.2640
 2122TIP3    H127857   4.140   2.137  10.555 -0.1046  1.6273 -0.8822
 2122TIP3    H227858   4.264   2.095  10.632 -0.8638 -1.1929 -1.0651
 2123TIP3   OH227859   6.379   3.403   1.629 -0.4909  0.0663  0.1516
 2123TIP3    H127860   6.317   3.331   1.641 -1.5621  1.0354  0.6028
 2123TIP3    H227861   6.395   3.435   1.717  0.1130  0.2733 -0.0329
 2124TIP3   OH227862   0.099   1.835   3.905 -0.5078 -0.5306 -0.2709
 2124TIP3    H127863   0.192   1.821   3.886 -0.2760 -1.5347  1.3784
 2124TIP3    H227864   0.075   1.913   3.855  1.2756 -0.1345 -0.5572
 2125TIP3   OH227865   6.656   2.709  15.111  0.6575  0.2087 -0.1292
 2125TIP3    H127866   6.742   2.719  15.070  1.1542 -2.4321  0.0629
 2125TIP3    H227867   6.663   2.627  15.160 -1.5108  0.7224  1.1363
 2126TIP3   OH227868   2.900   6.504   1.699  0.3955 -0.1829  0.4024
 2126TIP3    H127869   2.932   6.592   1.720 -1.2311  0.5695 -0.0369
 2126TIP3    H227870   2.886   6.462   1.784  1.0411  0.0377  0.6219
 2127TIP3   OH227871   2.713   0.249   6.215 -0.1355 -0.1608  0.0690
 2127TIP3    H127872   2.626   0.288   6.209  0.0293  0.1458 -0.4136
 2127TIP3    H227873   2.706   0.185   6.286 -0.8690 -0.4593 -0.2682
 2128TIP3   OH227874   2.540   2.727  12.220 -0.3681  0.5994 -0.2889
 2128TIP3    H127875   2.608   2.718  12.287 -0.1352  0.1043 -0.5907
 2128TIP3    H227876   2.497   2.642  12.218 -0.8611  0.8455 -0.2514
 2129TIP3   OH227877   3.849   1.331  15.569 -0.3400  0.1003  0.3537
 2129TIP3    H127878   3.767   1.319  15.522 -1.2511  1.1248  1.5852
 2129TIP3    H227879   3.847   1.423  15.596  0.4838 -0.2459  1.7055
 2130TIP3   OH227880   5.162   3.177  12.805 -0.2095  0.5896 -0.1182
 2130TIP3    H127881   5.136   3.086  12.817 -1.9994  1.2115  1.0269
 2130TIP3    H227882   5.128   3.201  12.719 -1.4387  0.7154  0.3904
 2131TIP3   OH227883   5.888   5.380   1.015  0.9216 -0.1500 -0.1358
 2131TIP3    H127884   5.892   5.290   1.049 -0.7440 -0.1612  0.1383
 2131TIP3    H227885   5.957   5.384   0.949  1.6865 -1.3211  0.5529
 2132TIP3   OH227886   4.893   5.812  15.149 -0.0792  0.6052  0.0360
 2132TIP3    H127887   4.868   5.858  15.069  1.6701  1.9042  0.1728
 2132TIP3    H227888   4.836   5.850  15.217  1.0977  2.3895  0.0818
 2133TIP3   OH227889   1.612   0.585  16.449 -0.0632 -0.6363  0.1124
 2133TIP3    H127890   1.588   0.495  16.429 -1.4184 -0.3745  0.4530
 2133TIP3    H227891   1.616   0.588  16.544  2.5215 -0.9261  0.0958
 2134TIP3   OH227892   4.211   1.498   0.874  0.4410 -0.6053  0.3341
 2134TIP3    H127893   4.280   1.435   0.893  1.2149  0.1388  0.0735
 2134TIP3    H227894   4.251   1.559   0.812 -1.2220 -1.5525 -1.7784
 2135TIP3   OH227895   2.351   4.417  13.027  0.0912  0.2737  0.0115
 2135TIP3    H127896   2.272   4.472  13.030  1.1407  1.8400 -0.0822
 2135TIP3    H227897   2.345   4.372  12.943 -2.0299 -1.7665  1.1307
 2136TIP3   OH227898   1.342   1.345   1.124  0.1526 -0.4852  0.3844
 2136TIP3    H127899   1.339   1.370   1.216  1.9791 -0.9221  0.5943
 2136TIP3    H227900   1.341   1.428   1.076 -1.0622 -0.2659  0.7680
 2137TIP3   OH227901   5.151   2.235   3.215  0.0585  0.3918 -0.4296
 2137TIP3    H127902   5.145   2.276   3.301  2.5549  1.7735 -0.8331
 2137TIP3    H227903   5.202   2.156   3.230  0.2158  0.4639 -0.5872
 2138TIP3   OH227904   0.751   6.636   5.441 -0.0495  0.5795 -0.4861
 2138TIP3    H127905   0.677   6.688   5.409 -0.5772  0.1953  0.0784
 2138TIP3    H227906   0.725   6.545   5.421  0.3135  0.4486 -0.3614
 2139TIP3   OH227907   6.091   2.515   4.688 -0.3900  0.6231  0.3641
 2139TIP3    H127908   6.123   2.566   4.614 -0.9892 -1.0351 -1.1153
 2139TIP3    H227909   6.143   2.434   4.686  0.1558  0.8668  2.2962
 2140TIP3   OH227910   2.522   5.998   4.509  0.2393  0.0895 -0.7219
 2140TIP3    H127911   2.616   6.009   4.519  0.5772 -2.4280 -0.2934
 2140TIP3    H227912   2.486   6.022   4.594  0.5526  0.5119 -0.7052
 2141TIP3   OH227913   5.744   0.519  17.074 -0.1916  0.1824  0.7417
 2141TIP3    H127914   5.761   0.597  17.127 -0.8007  0.3221  0.7370
 2141TIP3    H227915   5.657   0.489  17.102 -0.2017 -0.1677  0.3504
 2142TIP3   OH227916   2.442   2.499   0.517  0.2099  0.0954 -0.0316
 2142TIP3    H127917   2.347   2.500   0.505  0.3547 -2.5432 -2.1205
 2142TIP3    H227918   2.454   2.465   0.606 -0.8049 -1.0652 -0.3159
 2143TIP3   OH227919   5.198   3.088  17.245 -0.3049  0.8215 -0.3005
 2143TIP3    H127920   5.211   3.181  17.266  0.7474  0.2673  1.7801
 2143TIP3    H227921   5.276   3.045  17.279 -0.9948 -0.8977 -0.7984
 2144TIP3   OH227922   1.971   3.312   3.195 -0.6117 -0.2169  0.2173
 2144TIP3    H127923   1.995   3.290   3.105  0.0618 -0.2011  0.3924
 2144TIP3    H227924   1.960   3.407   3.194  0.5980 -0.0571  0.4209
 2145TIP3   OH227925   6.545   6.219  11.592  0.0406 -0.2291 -0.6037
 2145TIP3    H127926   6.533   6.183  11.504  2.1247  0.8760 -1.3984
 2145TIP3    H227927   6.568   6.143  11.646 -1.5587 -0.9688 -0.9023
 2146TIP3   OH227928   2.024   2.744   2.002 -0.5866 -0.2657 -0.2239
 2146TIP3    H127929   2.046   2.660   2.043  0.4723 -0.1901 -0.6175
 2146TIP3    H227930   1.998   2.720   1.913  0.1370 -0.1473 -0.4739
 2147TIP3   OH227931   0.129   3.457  13.973  0.1017  0.5669  0.3369
 2147TIP3    H127932   0.184   3.384  14.001  0.3302  0.1190 -1.2007
 2147TIP3    H227933   0.044   3.417  13.953  0.1373  0.7604 -0.2127
 2148TIP3   OH227934   6.301   5.406  11.581 -0.0217 -0.9935 -0.4908
 2148TIP3    H127935   6.343   5.374  11.501 -1.0550 -3.0549 -0.2624
 2148TIP3    H227936   6.305   5.501  11.573  1.7411 -1.1399 -1.9998
 2149TIP3   OH227937   6.603   5.430   3.104  0.6261 -0.1390  0.4314
 2149TIP3    H127938   6.572   5.366   3.168 -0.2079  0.5375  0.7241
 2149TIP3    H227939   6.627   5.378   3.027  0.2723 -0.8237  0.7784
 2150TIP3   OH227940   6.179   0.124  16.716 -0.2291 -0.5482  0.3123
 2150TIP3    H127941   6.092   0.159  16.693  0.4334  0.6439 -0.5029
 2150TIP3    H227942   6.178   0.119  16.811 -0.4359  1.6257  0.4836
 2151TIP3   OH227943   4.979   5.158  14.691 -0.5372 -0.5480  0.1822
 2151TIP3    H127944   5.050   5.125  14.636  1.1659  0.6201  1.5703
 2151TIP3    H227945   4.932   5.218  14.634 -0.6157 -1.5327 -0.8463
 2152TIP3   OH227946   4.348   5.279  14.118 -0.1705  0.4318  0.3035
 2152TIP3    H127947   4.382   5.368  14.123 -1.7656  1.0655  0.4271
 2152TIP3    H227948   4.362   5.243  14.205  0.8176  0.4242  0.1462
 2153TIP3   OH227949   2.399   6.820   5.010 -0.2050 -0.1668 -0.0391
 2153TIP3    H127950   2.312   6.783   5.028 -0.5966  0.0782 -1.2849
 2153TIP3    H227951   2.450   6.746   4.976  0.3923 -0.5294  1.5806
 2154TIP3   OH227952   3.120   0.604  12.789  0.9192 -0.8989  0.4524
 2154TIP3    H127953   3.044   0.601  12.732  2.7543 -0.5334 -2.2123
 2154TIP3    H227954   3.159   0.517  12.782  1.7101 -0.5435  0.3173
 2155TIP3   OH227955   3.560   5.391  15.795  0.5368 -0.2996  0.4368
 2155TIP3    H127956   3.600   5.309  15.768 -3.1598 -2.0218 -0.3974
 2155TIP3    H227957   3.562   5.446  15.717 -1.6179 -1.6945 -0.7084
 2156TIP3   OH227958   0.432   3.938  14.453  0.4337  0.1683  0.6900
 2156TIP3    H127959   0.527   3.937  14.464  0.5478  0.4274 -0.1656
 2156TIP3    H227960   0.399   3.885  14.525  1.3131 -1.0488  0.2337
 2157TIP3   OH227961   3.354   4.285  11.978 -0.0107  0.5332 -0.2554
 2157TIP3    H127962   3.362   4.244  11.892 -1.0150 -1.5204  0.5671
 2157TIP3    H227963   3.260   4.294  11.991  0.1080  0.2316  0.8915
 2158TIP3   OH227964   3.783   0.878   0.567 -0.0443 -0.0989 -0.5634
 2158TIP3    H127965   3.723   0.812   0.532  0.0465 -0.3118 -0.3174
 2158TIP3    H227966   3.811   0.927   0.490 -0.3896 -0.1186 -0.7015
 2159TIP3   OH227967   1.223   3.646  10.567 -0.4987  0.6317  0.2272
 2159TIP3    H127968   1.256   3.653  10.478 -1.3305 -1.1660 -0.2633
 2159TIP3    H227969   1.285   3.589  10.612 -1.5893 -0.7831 -0.0206
 2160TIP3   OH227970   1.826   5.288  12.637 -0.2263 -0.0040 -0.4502
 2160TIP3    H127971   1.740   5.307  12.675 -0.9498  0.9228 -2.4107
 2160TIP3    H227972   1.889   5.328  12.698 -1.3731  2.3526 -0.6850
 2161TIP3   OH227973   2.374   4.357   4.613  0.5697 -0.2374  0.1878
 2161TIP3    H127974   2.299   4.334   4.667  0.6491 -0.5350  0.1766
 2161TIP3    H227975   2.358   4.447   4.584 -0.1086 -0.5294 -0.3684
 2162TIP3   OH227976   0.543   3.126  10.988  0.8424 -0.5570 -0.8457
 2162TIP3    H127977   0.599   3.055  10.956  1.0967 -0.1361 -1.3405
 2162TIP3    H227978   0.538   3.188  10.916  2.7697  1.2231  0.4377
 2163TIP3   OH227979   1.411   2.451   0.190 -0.2338 -0.1565  0.7746
 2163TIP3    H127980   1.339   2.411   0.240 -1.0282 -0.1430 -0.3158
 2163TIP3    H227981   1.416   2.400   0.110  1.9715 -1.0624  1.4374
 2164TIP3   OH227982   5.302   3.422   2.253  0.3642 -0.1410  0.3412
 2164TIP3    H127983   5.352   3.494   2.213 -2.1878  1.3807 -0.3587
 2164TIP3    H227984   5.260   3.378   2.179 -1.8813  0.7202  0.9919
 2165TIP3   OH227985   5.262   3.200   4.821  0.5204  0.1767  0.4104
 2165TIP3    H127986   5.334   3.234   4.768  1.2022 -0.6141  0.7992
 2165TIP3    H227987   5.214   3.277   4.848  0.3639  0.6283 -1.0484
 2166TIP3   OH227988   3.561   5.911  17.265  0.2184 -0.3552 -0.5876
 2166TIP3    H127989   3.478   5.940  17.227 -0.3747  1.2668  1.7822
 2166TIP3    H227990   3.608   5.872  17.191 -0.6086  3.0236 -3.1242
 2167TIP3   OH227991   4.318   5.433  16.862 -0.0803  0.0424 -0.4114
 2167TIP3    H127992   4.360   5.352  16.831  1.3173  0.7077 -0.3613
 2167TIP3    H227993   4.256   5.456  16.793 -0.0869 -0.7740 -0.6913
 2168TIP3   OH227994   6.700   1.690   1.822 -0.5582 -0.0030 -0.6690
 2168TIP3    H127995   6.659   1.689   1.909 -0.9233  0.3474 -0.8365
 2168TIP3    H227996   6.690   1.780   1.792 -0.0136 -0.0105 -0.8796
 2169TIP3   OH227997   0.040   6.138   1.032 -0.6950 -0.1316 -0.3037
 2169TIP3    H127998  -0.004   6.149   1.116 -1.5225  0.6965 -0.8280
 2169TIP3    H227999   0.091   6.057   1.041 -0.1384  0.3575  1.2633
 2170TIP3   OH228000   0.443   0.551   3.600 -0.0266  0.0281 -0.6025
 2170TIP3    H128001   0.470   0.477   3.653 -2.6622  0.2065  1.1841
 2170TIP3    H228002   0.365   0.520   3.553 -0.2110  1.1734 -1.1000
 2171TIP3   OH228003   5.664   0.440  15.174 -0.6654 -0.0674  0.2590
 2171TIP3    H128004   5.589   0.487  15.209 -1.0727 -1.1814  0.8981
 2171TIP3    H228005   5.739   0.497  15.194 -0.9827 -0.2922  2.2060
 2172TIP3   OH228006   3.692   5.932  16.250 -0.9368  0.1026  0.1843
 2172TIP3    H128007   3.637   5.890  16.316 -0.6352  0.1225  0.4540
 2172TIP3    H228008   3.692   5.872  16.176 -0.4092 -0.4337  0.6118
 2173TIP3   OH228009   2.995   0.081  12.544 -0.0188  0.2198  0.2217
 2173TIP3    H128010   2.902   0.072  12.560  0.0442 -3.7703 -0.7180
 2173TIP3    H228011   3.037   0.055  12.627  0.2066 -1.1559 -0.2964
 2174TIP3   OH228012   2.484   3.698  11.988  0.0363  0.6766 -0.2022
 2174TIP3    H128013   2.552   3.765  11.996  0.7901 -0.2968  3.3394
 2174TIP3    H228014   2.531   3.616  12.003 -1.5402 -0.2662 -0.2607
 2175TIP3   OH228015   1.287   3.764   2.687 -0.2620 -0.5430 -0.4188
 2175TIP3    H128016   1.370   3.765   2.639 -0.3357  1.0680 -0.5510
 2175TIP3    H228017   1.312   3.754   2.779  0.2176  1.7047 -0.2678
 2176TIP3   OH228018   3.995   4.252   4.482 -0.0725  0.1712  0.4456
 2176TIP3    H128019   4.048   4.172   4.483  0.1419  0.2625 -1.3926
 2176TIP3    H228020   4.047   4.315   4.532 -0.8009 -1.1083  3.0188
 2177TIP3   OH228021   3.939   1.848  13.969  0.4481  0.3946 -0.8281
 2177TIP3    H128022   3.951   1.803  13.885  2.1292 -2.0983  0.6390
 2177TIP3    H228023   3.867   1.801  14.011  2.4790 -1.3788  0.8900
 2178TIP3   OH228024   1.762   5.379   6.455 -0.0729 -0.0651  0.0762
 2178TIP3    H128025   1.749   5.352   6.364  0.6628  1.0048 -0.3765
 2178TIP3    H228026   1.731   5.306   6.507 -1.2676 -0.3696 -1.0232
 2179TIP3   OH228027   2.097   1.558  15.331  0.0803  0.5792 -0.3711
 2179TIP3    H128028   2.021   1.604  15.293 -0.8312 -0.9320 -0.4679
 2179TIP3    H228029   2.068   1.534  15.419  0.6069  0.3459 -0.2624
 2180TIP3   OH228030   6.294   4.559   4.690  0.5496  0.3131 -0.1180
 2180TIP3    H128031   6.242   4.558   4.610  1.3072 -1.8514 -0.6487
 2180TIP3    H228032   6.255   4.491   4.745  1.0868  0.6122  0.6521
 2181TIP3   OH228033   5.141   5.190  17.224  0.4166 -0.4686  0.0389
 2181TIP3    H128034   5.158   5.148  17.139 -1.7027  0.7342 -1.0456
 2181TIP3    H228035   5.209   5.257  17.231 -0.3336  0.5078 -1.5155
 2182TIP3   OH228036   3.285   3.893  13.180  0.5611 -0.4782 -0.0568
 2182TIP3    H128037   3.276   3.883  13.085  0.0330  1.3122 -0.2341
 2182TIP3    H228038   3.369   3.939  13.191 -0.6735  1.8810  0.0883
 2183TIP3   OH228039   2.567   0.757   1.132  0.0432 -0.3843  0.1086
 2183TIP3    H128040   2.607   0.842   1.112  1.8134 -1.6501 -2.2844
 2183TIP3    H228041   2.628   0.716   1.193  0.1066 -0.6242 -0.1176
 2184TIP3   OH228042   1.783   0.416   1.208 -0.1277  0.3194  0.0806
 2184TIP3    H128043   1.849   0.471   1.251  1.3656 -1.5915  0.4099
 2184TIP3    H228044   1.728   0.477   1.160  1.5169  2.0692  0.3025
 2185TIP3   OH228045   0.014   0.606   3.181  0.9162  0.0846  0.5298
 2185TIP3    H128046  -0.070   0.576   3.216  0.0989  0.7784 -0.7422
 2185TIP3    H228047   0.040   0.538   3.119  0.5787  0.5213 -0.1052
 2186TIP3   OH228048   5.869   0.767  16.110  0.1062 -0.2189 -0.4622
 2186TIP3    H128049   5.850   0.837  16.173 -1.8940 -0.3784 -0.8240
 2186TIP3    H228050   5.805   0.698  16.131  1.8823 -1.8922 -0.2490
 2187TIP3   OH228051   6.783   6.603  14.095 -0.6707 -0.1155  0.2769
 2187TIP3    H128052   6.711   6.558  14.138 -1.5562  2.2038  1.3486
 2187TIP3    H228053   6.773   6.695  14.120  2.0764  0.4493 -0.3482
 2188TIP3   OH228054   3.892   0.495  11.143 -0.0284  0.1942 -0.1079
 2188TIP3    H128055   3.823   0.540  11.095  1.4559  1.6291 -0.9876
 2188TIP3    H228056   3.934   0.564  11.195 -1.1027 -1.1495  2.8175
 2189TIP3   OH228057   5.754   2.618   6.416  0.8056  0.7515 -0.2758
 2189TIP3    H128058   5.802   2.542   6.448 -0.5762  0.5965  1.5497
 2189TIP3    H228059   5.760   2.683   6.486 -1.6580  0.6824  0.1218
 2190TIP3   OH228060   5.661   0.849  15.236 -0.2365  0.0119  0.1952
 2190TIP3    H128061   5.570   0.821  15.236 -0.4125  0.5610 -0.6355
 2190TIP3    H228062   5.706   0.785  15.292 -0.9539 -0.8496 -0.1866
 2191TIP3   OH228063   1.916   0.880   0.974  0.4589 -0.7779  0.5579
 2191TIP3    H128064   1.984   0.927   1.022  0.4774  1.7595 -1.7360
 2191TIP3    H228065   1.958   0.854   0.892 -0.9528 -0.3316 -0.3357
 2192TIP3   OH228066   0.231   2.345   1.353  0.7462  0.6198  0.0526
 2192TIP3    H128067   0.158   2.385   1.401  1.2424  0.7811  0.6890
 2192TIP3    H228068   0.190   2.304   1.277 -0.2111 -0.5568  1.1599
 2193TIP3   OH228069   3.735   0.535  11.619  0.1765  0.3715 -0.0824
 2193TIP3    H128070   3.642   0.527  11.641 -0.0532 -1.4429 -1.5096
 2193TIP3    H228071   3.741   0.501  11.530  2.3672 -0.5603  0.3706
 2194TIP3   OH228072   1.847   5.404   0.979  0.5801 -0.1704 -0.3609
 2194TIP3    H128073   1.788   5.418   0.905  0.6645 -2.3493 -0.8957
 2194TIP3    H228074   1.856   5.491   1.019 -2.1778  0.4365 -0.8464
 2195TIP3   OH228075   2.251   1.991  16.411 -0.4532 -0.4145  0.0160
 2195TIP3    H128076   2.221   2.068  16.364  1.3405  0.3216 -0.0307
 2195TIP3    H228077   2.209   1.917  16.367 -0.7125  0.4154 -1.1598
 2196TIP3   OH228078   1.178   1.264   1.830  0.5948 -0.0037  0.8047
 2196TIP3    H128079   1.162   1.173   1.855  1.3678 -0.4081 -0.0953
 2196TIP3    H228080   1.201   1.308   1.912  1.5902 -0.9496  1.0543
 2197TIP3   OH228081   0.085   3.234  16.803  0.6597 -0.3174  0.4694
 2197TIP3    H128082   0.069   3.177  16.878  2.6061  0.7209  1.7640
 2197TIP3    H228083  -0.002   3.262  16.775 -0.2215 -2.2010  1.1320
 2198TIP3   OH228084   1.310   6.751   2.717 -0.1657 -0.0845 -0.3821
 2198TIP3    H128085   1.280   6.765   2.627 -0.5035  0.3254 -0.2132
 2198TIP3    H228086   1.403   6.774   2.716 -0.1158 -0.3007 -0.6772
 2199TIP3   OH228087   4.561   1.330  16.115 -0.1990 -0.5502 -0.4959
 2199TIP3    H128088   4.587   1.422  16.108 -1.0229 -0.0858  1.7920
 2199TIP3    H228089   4.639   1.282  16.087  0.8104  0.8209 -0.1708
 2200TIP3   OH228090   4.530   4.419   5.985 -0.1969  0.2685  0.0071
 2200TIP3    H128091   4.541   4.476   5.909 -0.4122  1.5476  0.8982
 2200TIP3    H228092   4.435   4.416   5.998 -0.1620  0.0083  0.2032
 2201TIP3   OH228093   0.575   2.407  12.416  0.0290 -0.4229 -0.0615
 2201TIP3    H128094   0.660   2.407  12.372 -0.7464  1.3732 -1.7028
 2201TIP3    H228095   0.511   2.411  12.344 -1.5474 -3.0567  1.0582
 2202TIP3   OH228096   3.375   2.724  16.185 -0.2439 -0.3496  0.0784
 2202TIP3    H128097   3.414   2.795  16.235  1.5292 -2.2580  1.5833
 2202TIP3    H228098   3.392   2.645  16.237 -2.6203 -1.8330 -1.2165
 2203TIP3   OH228099   0.120   5.627   2.571  0.1721 -0.2705  0.2650
 2203TIP3    H128100   0.162   5.701   2.527 -1.3959 -0.2389 -1.3048
 2203TIP3    H228101   0.085   5.665   2.651  1.7740  0.0261  0.8597
 2204TIP3   OH228102   0.843   0.508   0.714  0.7069 -0.5007  0.2592
 2204TIP3    H128103   0.916   0.451   0.689  0.7415 -0.1545 -0.4484
 2204TIP3    H228104   0.854   0.520   0.809  1.1079 -1.0888  0.2971
 2205TIP3   OH228105   5.285   6.411  14.801  0.1296 -0.8857  0.5121
 2205TIP3    H128106   5.349   6.363  14.749  1.5946 -1.2483  2.5122
 2205TIP3    H228107   5.286   6.500  14.765  3.2118 -0.3650  1.5871
 2206TIP3   OH228108   5.545   3.403  12.348  0.0348 -0.1952 -0.3515
 2206TIP3    H128109   5.501   3.376  12.268 -1.8859  1.5492  0.0150
 2206TIP3    H228110   5.478   3.395  12.416  0.5641  1.5131  0.4342
 2207TIP3   OH228111   2.236   3.295  16.792  0.3945  0.2906 -0.1477
 2207TIP3    H128112   2.316   3.245  16.775  0.7981 -0.1070  2.5085
 2207TIP3    H228113   2.262   3.363  16.854 -1.1928  0.5958  0.2345
 2208TIP3   OH228114   1.649   3.793   3.468  0.0601  0.5177 -0.0477
 2208TIP3    H128115   1.624   3.847   3.393 -2.1378  0.0086  0.2528
 2208TIP3    H228116   1.624   3.704   3.443 -0.5090  0.3035  1.1841
 2209TIP3   OH228117   4.358   2.312   1.346  0.0929 -0.4362  0.1937
 2209TIP3    H128118   4.292   2.376   1.373  1.6178  1.1846  0.2737
 2209TIP3    H228119   4.322   2.228   1.375 -2.1609  0.2927 -0.2568
 2210TIP3   OH228120   4.594   2.770   1.176 -0.8880  0.3992  0.0148
 2210TIP3    H128121   4.533   2.703   1.208  0.0483 -0.2974  0.3726
 2210TIP3    H228122   4.537   2.842   1.148 -2.0821 -1.4241 -2.5886
 2211TIP3   OH228123   3.257   5.154  12.065 -0.2941 -0.3052  0.2029
 2211TIP3    H128124   3.320   5.109  12.009 -0.6959 -1.2172  0.4630
 2211TIP3    H228125   3.205   5.207  12.005  1.2744  1.1909  0.0716
 2212TIP3   OH228126   1.164   6.671  12.063  0.2043  0.2715 -1.1031
 2212TIP3    H128127   1.104   6.662  11.989 -0.0181  2.6352 -1.2736
 2212TIP3    H228128   1.107   6.676  12.140  0.3316  0.0048 -0.9880
 2213TIP3   OH228129   1.175   4.883  12.704 -0.3169 -0.1032 -0.2777
 2213TIP3    H128130   1.206   4.892  12.794  0.0864  0.6091 -0.4737
 2213TIP3    H228131   1.204   4.964  12.661 -1.5363  0.1056 -0.7430
 2214TIP3   OH228132   0.943   1.748  13.770  0.2570 -0.2417  0.1304
 2214TIP3    H128133   0.904   1.684  13.710 -0.0711 -0.5748  0.7023
 2214TIP3    H228134   1.028   1.767  13.731  0.0620 -0.4821 -0.4299
 2215TIP3   OH228135   0.218   6.018   3.630 -0.2186 -0.6770  0.1999
 2215TIP3    H128136   0.282   5.977   3.689  0.4952  1.2518  0.8812
 2215TIP3    H228137   0.145   6.042   3.688 -0.7647 -1.2696 -0.2399
 2216TIP3   OH228138   2.468   5.626  14.758 -0.1468  0.2479 -0.2135
 2216TIP3    H128139   2.459   5.530  14.764 -2.1236  0.3302 -0.9019
 2216TIP3    H228140   2.556   5.640  14.723  0.3758 -1.2920  0.4061
 2217TIP3   OH228141   0.477   4.082   1.160  0.0722  0.1654 -0.0235
 2217TIP3    H128142   0.512   4.169   1.179  0.4451  0.1977 -0.8174
 2217TIP3    H228143   0.472   4.079   1.065 -0.1947 -0.5877  0.0123
 2218TIP3   OH228144   2.617   4.997  12.663  0.2287  0.1877 -0.2794
 2218TIP3    H128145   2.585   4.940  12.593 -0.0251  0.9842 -0.8278
 2218TIP3    H228146   2.694   4.952  12.697 -0.9596 -1.3652  0.5048
 2219TIP3   OH228147   5.359   0.460  12.104 -0.0199  0.7951 -0.6695
 2219TIP3    H128148   5.357   0.474  12.199  2.9375 -1.1902 -0.1624
 2219TIP3    H228149   5.269   0.475  12.076 -0.8635  2.1656  2.3061
 2220TIP3   OH228150   1.589   3.487  14.920 -0.3052  0.4429  0.0211
 2220TIP3    H128151   1.551   3.569  14.951 -1.5489 -0.0676 -0.0604
 2220TIP3    H228152   1.553   3.420  14.979  1.3507  0.0318  0.6155
 2221TIP3   OH228153   4.421   5.201   5.745 -0.2429  0.0627  0.2084
 2221TIP3    H128154   4.382   5.246   5.820  0.0619  0.0322  0.3874
 2221TIP3    H228155   4.465   5.270   5.695 -0.3743  0.0701  0.1013
 2222TIP3   OH228156   6.792   2.931   3.605 -0.0073 -0.3178  0.7715
 2222TIP3    H128157   6.749   3.015   3.624  1.0730  0.6672 -0.8369
 2222TIP3    H228158   6.872   2.956   3.558  0.1287 -2.2846 -0.1130
 2223TIP3   OH228159   5.781   1.933  15.707 -0.2902  0.3846  0.1347
 2223TIP3    H128160   5.775   1.840  15.685  0.0242  0.3866  0.0400
 2223TIP3    H228161   5.864   1.942  15.754 -0.7381  0.4654  0.9185
 2224TIP3   OH228162   3.300   0.573   0.668 -0.2092  0.7096  0.6152
 2224TIP3    H128163   3.334   0.661   0.656  0.8356 -0.0228 -2.9830
 2224TIP3    H228164   3.213   0.575   0.626 -1.4159  0.6371  2.9637
 2225TIP3   OH228165   3.437   1.914  11.792 -0.4045  0.0178 -0.3642
 2225TIP3    H128166   3.398   1.993  11.830 -0.1941 -1.1884  2.6314
 2225TIP3    H228167   3.531   1.924  11.807 -0.4323 -1.0490  0.6900
 2226TIP3   OH228168   0.124   1.240   0.582 -0.0096  0.3547  0.3079
 2226TIP3    H128169   0.148   1.250   0.674 -2.1042 -0.8817  1.0614
 2226TIP3    H228170   0.176   1.165   0.552 -1.0406 -0.7498  1.1991
 2227TIP3   OH228171   0.606   5.356   4.549 -0.6709 -0.3175 -0.1075
 2227TIP3    H128172   0.556   5.415   4.494  0.3515  0.6952  0.0144
 2227TIP3    H228173   0.697   5.367   4.521  0.0765  1.1510  2.5153
 2228TIP3   OH228174   5.356   2.854  15.179  0.3321 -0.0170 -0.6218
 2228TIP3    H128175   5.290   2.895  15.124 -0.2893  0.4956  0.4837
 2228TIP3    H228176   5.333   2.879  15.269  1.2335 -0.9414 -0.0993
 2229TIP3   OH228177   2.723   3.382   3.958  0.2083 -0.0977  0.1013
 2229TIP3    H128178   2.696   3.474   3.960  0.1801 -0.0705 -0.9261
 2229TIP3    H228179   2.648   3.335   3.994  0.3181  0.2898  0.8675
 2230TIP3   OH228180   2.434   0.294  16.471 -0.3218 -0.4051 -0.3168
 2230TIP3    H128181   2.401   0.222  16.417  0.5186  0.4965 -2.0997
 2230TIP3    H228182   2.464   0.359  16.408  0.7528  0.6730  1.2602
 2231TIP3   OH228183   3.173   3.782  10.951  0.3676 -0.3945  0.2660
 2231TIP3    H128184   3.152   3.689  10.945  1.2298 -0.5374 -1.4583
 2231TIP3    H228185   3.130   3.821  10.874  3.2264 -0.1136 -1.3450
 2232TIP3   OH228186   2.417   4.475  10.722  0.0237 -0.1413 -0.2930
 2232TIP3    H128187   2.460   4.390  10.714 -0.9311 -0.5458 -1.3832
 2232TIP3    H228188   2.377   4.490  10.637  0.3444  1.5138 -0.1909
 2233TIP3   OH228189   5.928   5.592  16.867 -0.0111 -0.1883  0.2227
 2233TIP3    H128190   5.884   5.523  16.917 -0.0836  0.4800  1.0994
 2233TIP3    H228191   5.899   5.673  16.908  1.0804  0.3129  0.0200
 2234TIP3   OH228192   3.960   0.597  12.022 -0.1346  0.3010  0.1579
 2234TIP3    H128193   3.917   0.602  11.937  3.3574 -0.5926 -1.8307
 2234TIP3    H228194   3.983   0.505  12.032 -1.1654  0.2111  2.5689
 2235TIP3   OH228195   0.395   1.347  12.660  0.5010 -0.0582  0.2110
 2235TIP3    H128196   0.448   1.300  12.596  0.1512  0.6322 -0.6075
 2235TIP3    H228197   0.336   1.281  12.696  1.6410 -0.7444  0.8507
 2236TIP3   OH228198   4.050   1.384   3.172 -0.4811 -0.0760 -0.1796
 2236TIP3    H128199   3.956   1.395   3.161 -0.3617 -0.7467 -2.3265
 2236TIP3    H228200   4.082   1.471   3.196 -1.5826  0.2383  0.2329
 2237TIP3   OH228201   3.298   4.154   4.458  0.1196  0.6298  0.8137
 2237TIP3    H128202   3.230   4.152   4.526 -0.1011 -0.3676  0.5818
 2237TIP3    H228203   3.253   4.188   4.381 -0.0333  0.2777  0.7477
 2238TIP3   OH228204   5.679   4.560  12.304 -0.1215 -0.2897  0.2969
 2238TIP3    H128205   5.717   4.643  12.277 -2.1012  0.5019 -0.2592
 2238TIP3    H228206   5.738   4.494  12.267  1.1599  0.8411  0.2447
 2239TIP3   OH228207   0.035   0.079  13.419  0.1665 -0.3759 -0.1394
 2239TIP3    H128208  -0.027   0.070  13.347  0.9106 -1.0516 -0.7203
 2239TIP3    H228209   0.116   0.108  13.377  0.5682 -0.6360  0.4413
 2240TIP3   OH228210   2.624   4.842  15.513  0.0412 -0.1139  0.1029
 2240TIP3    H128211   2.716   4.816  15.504 -0.0670 -0.2307 -0.7830
 2240TIP3    H228212   2.580   4.800  15.439 -1.1946 -2.1084  1.8674
 2241TIP3   OH228213   0.279   1.877   1.634  0.4273  0.2646 -0.1759
 2241TIP3    H128214   0.335   1.932   1.689 -0.6870 -0.3965  1.7133
 2241TIP3    H228215   0.229   1.939   1.581 -1.2541  1.2313  2.3307
 2242TIP3   OH228216   1.751   1.786   5.299 -0.0365 -0.0420  0.8543
 2242TIP3    H128217   1.666   1.792   5.343 -0.1629 -0.6406  0.6988
 2242TIP3    H228218   1.737   1.725   5.227 -0.3661  2.4051 -1.3070
 2243TIP3   OH228219   1.961   4.515   4.897 -0.2492  0.0552  0.3340
 2243TIP3    H128220   1.994   4.598   4.864 -0.3601  0.0008  0.0854
 2243TIP3    H228221   1.882   4.498   4.846 -0.1747 -0.2502  0.3173
 2244TIP3   OH228222   1.048   2.023   2.629  0.0695  0.1842  0.3308
 2244TIP3    H128223   0.994   1.995   2.555  2.3757 -0.7673 -1.1206
 2244TIP3    H228224   1.047   2.119   2.626  0.6948  0.1661 -1.4372
 2245TIP3   OH228225   4.169   0.825   1.898 -0.0748  0.0824  0.0899
 2245TIP3    H128226   4.227   0.764   1.943 -0.4940  0.4308  1.1470
 2245TIP3    H228227   4.218   0.908   1.896  0.6015 -0.3113 -1.5762
 2246TIP3   OH228228   6.018   4.716   0.874  0.2000 -0.0358 -0.1265
 2246TIP3    H128229   6.072   4.684   0.946 -0.6318  0.3574  0.6870
 2246TIP3    H228230   5.940   4.660   0.876  0.8297 -1.0472 -1.7141
 2247TIP3   OH228231   6.413   1.429  16.240  0.2649 -0.0981  0.3641
 2247TIP3    H128232   6.341   1.491  16.255 -0.7613 -1.5673  1.8077
 2247TIP3    H228233   6.492   1.482  16.251 -0.5846  1.1338  0.7594
 2248TIP3   OH228234   0.805   6.445  11.247  0.1949  0.1001 -0.2981
 2248TIP3    H128235   0.794   6.521  11.306 -0.4717 -0.5719  0.4784
 2248TIP3    H228236   0.748   6.465  11.173  1.0454  0.9594 -0.7439
 2249TIP3   OH228237   4.444   5.292   1.160  0.0949  0.4379  0.6984
 2249TIP3    H128238   4.406   5.209   1.131  3.4359 -1.2494  0.5999
 2249TIP3    H228239   4.417   5.301   1.251 -0.0286 -0.9819  0.8191
 2250TIP3   OH228240   2.886   1.057  11.277  0.0396  0.0255  0.4949
 2250TIP3    H128241   2.934   1.062  11.194 -1.3430  1.2632 -0.2852
 2250TIP3    H228242   2.859   0.966  11.284  0.2082 -0.1065 -0.4113
 2251TIP3   OH228243   4.871   5.791  14.755 -0.0522 -0.1069  0.8866
 2251TIP3    H128244   4.844   5.836  14.834 -0.5682  0.3973  0.4317
 2251TIP3    H228245   4.800   5.807  14.693 -0.4527 -1.8820  0.8309
 2252TIP3   OH228246   6.362   0.562  12.418 -0.3401 -0.0107  0.2487
 2252TIP3    H128247   6.305   0.485  12.426 -0.6909  0.1381 -0.6436
 2252TIP3    H228248   6.383   0.586  12.508 -1.9502  0.1067  0.6270
 2253TIP3   OH228249   1.477   6.270  12.269  0.1367 -0.6478 -0.5988
 2253TIP3    H128250   1.470   6.295  12.177 -1.1831  4.0486  0.5073
 2253TIP3    H228251   1.387   6.272  12.302  0.7884  0.1765  1.2762
 2254TIP3   OH228252   4.552   5.616   2.757  0.0011 -0.5334  0.1734
 2254TIP3    H128253   4.464   5.617   2.793 -0.4523 -0.6721 -0.9015
 2254TIP3    H228254   4.573   5.523   2.747  0.0884 -0.4978  0.0170
 2255TIP3   OH228255   1.371   4.338   1.621  0.2895 -0.4254 -0.4780
 2255TIP3    H128256   1.446   4.335   1.562  0.9829 -1.5124  0.4008
 2255TIP3    H228257   1.371   4.252   1.664 -1.1700 -0.2619 -0.0922
 2256TIP3   OH228258   1.238   3.721   5.623 -0.2365  0.4025  0.8321
 2256TIP3    H128259   1.209   3.696   5.710 -0.8916  0.2693  0.5797
 2256TIP3    H228260   1.164   3.768   5.585  0.4917  1.5884  0.8067
 2257TIP3   OH228261   1.128   0.972   0.385  0.7178  0.1312  0.4016
 2257TIP3    H128262   1.100   0.899   0.329 -0.8260  1.9513 -1.3250
 2257TIP3    H228263   1.099   0.945   0.473  0.5777 -1.5197 -0.1093
 2258TIP3   OH228264   3.081   2.352  15.052  0.1778  0.1679  0.3879
 2258TIP3    H128265   3.076   2.319  15.142 -0.1459  2.7344  1.4153
 2258TIP3    H228266   3.145   2.296  15.009  0.8308 -0.7432  2.4128
 2259TIP3   OH228267   3.858   2.011   1.562 -0.5283 -0.1970  0.2047
 2259TIP3    H128268   3.812   1.941   1.610  1.5026 -2.8057 -1.3621
 2259TIP3    H228269   3.919   2.047   1.626 -1.0139 -0.4369  0.8177
 2260TIP3   OH228270   0.757   0.264   5.196 -0.3785 -0.1393 -0.0043
 2260TIP3    H128271   0.818   0.235   5.265  0.7638  2.1678  0.0336
 2260TIP3    H228272   0.766   0.198   5.127  0.3864 -1.1093  0.9814
 2261TIP3   OH228273   5.264   6.108   0.142 -0.5037 -0.0480  0.5452
 2261TIP3    H128274   5.323   6.033   0.144 -0.0757  0.2930  1.0577
 2261TIP3    H228275   5.251   6.131   0.234  0.6768  1.4916  0.3812
 2262TIP3   OH228276   4.655   1.238  17.221  0.0381 -0.0294 -0.3902
 2262TIP3    H128277   4.639   1.258  17.313  0.2812 -1.4969 -0.0081
 2262TIP3    H228278   4.687   1.320  17.184 -1.9523  1.1589  0.3506
 2263TIP3   OH228279   3.367   0.565   3.030 -0.2044 -0.2185  0.1088
 2263TIP3    H128280   3.275   0.545   3.012 -0.1780 -0.3428  0.1130
 2263TIP3    H228281   3.388   0.512   3.107 -0.7413  1.4087  1.4418
 2264TIP3   OH228282   5.647   0.943  14.307  0.2921 -0.4299 -0.1722
 2264TIP3    H128283   5.734   0.907  14.291  0.2707 -0.7556  0.4423
 2264TIP3    H228284   5.663   1.037  14.322  0.1624  0.2788 -3.6432
 2265TIP3   OH228285   0.204   3.159   0.187  0.4371  0.2359 -0.1293
 2265TIP3    H128286   0.183   3.164   0.280 -0.7262 -1.0027 -0.2875
 2265TIP3    H228287   0.123   3.187   0.143  0.9428  0.7121 -0.7665
 2266TIP3   OH228288   0.939   4.778  12.622 -0.0801 -0.2263 -0.4525
 2266TIP3    H128289   1.028   4.769  12.657 -0.9815  0.9738  2.4191
 2266TIP3    H228290   0.926   4.872  12.613 -1.3169 -0.3438 -0.0504
 2267TIP3   OH228291   2.358   1.404   1.995  0.1394  0.3556 -0.2611
 2267TIP3    H128292   2.357   1.348   1.917 -2.1059 -0.9148  0.5942
 2267TIP3    H228293   2.330   1.347   2.066  0.3950  1.9350  1.1795
 2268TIP3   OH228294   6.046   6.092   2.902 -0.6145  0.0003 -0.3071
 2268TIP3    H128295   6.064   6.086   2.808 -1.0196 -1.6626 -0.3114
 2268TIP3    H228296   5.973   6.153   2.909 -0.4350  0.3103 -1.0458
 2269TIP3   OH228297   6.041   3.836  15.423  0.2110  0.0079  0.5507
 2269TIP3    H128298   5.963   3.808  15.374 -0.0832  1.5077  0.1008
 2269TIP3    H228299   6.095   3.757  15.429 -2.1029 -1.5568  2.4379
 2270TIP3   OH228300   1.787   4.158  12.026  0.4477 -0.5794 -0.3293
 2270TIP3    H128301   1.743   4.111  12.096  2.3171 -0.6920  0.8231
 2270TIP3    H228302   1.736   4.137  11.947 -1.3907 -0.8537  0.8779
 2271TIP3   OH228303   6.289   5.051   0.992 -0.0568  0.3881  0.1812
 2271TIP3    H128304   6.254   5.005   0.916 -0.0614 -0.0400  0.4368
 2271TIP3    H228305   6.213   5.086   1.038 -0.0646  0.5136  0.0715
 2272TIP3   OH228306   0.267   1.343  15.767 -0.0622  0.5319  0.3146
 2272TIP3    H128307   0.283   1.385  15.851  0.6991  0.0313  0.4285
 2272TIP3    H228308   0.354   1.312  15.739 -0.5585 -0.6802  0.0825
 2273TIP3   OH228309   0.664   1.663  13.911  0.5844 -0.2038  0.0871
 2273TIP3    H128310   0.657   1.586  13.968  1.2688 -1.8237 -1.9151
 2273TIP3    H228311   0.758   1.682  13.908  0.5260  0.0303 -0.2933
 2274TIP3   OH228312   6.804   4.134   4.085  0.4628  0.3471  0.4390
 2274TIP3    H128313   6.886   4.087   4.072 -0.3265 -0.8737 -0.2701
 2274TIP3    H228314   6.832   4.223   4.110  1.9870 -0.0372  0.2336
 2275TIP3   OH228315   0.639   1.045   1.558  0.9123  0.2824 -0.0500
 2275TIP3    H128316   0.689   1.045   1.640  1.4172  0.8633 -0.3453
 2275TIP3    H228317   0.705   1.060   1.490  0.5898 -0.8505 -0.6319
 2276TIP3   OH228318   6.335   4.000   4.727  0.2801 -0.7678 -0.4475
 2276TIP3    H128319   6.320   3.912   4.694  0.6584 -0.2430 -2.1147
 2276TIP3    H228320   6.414   4.030   4.682  0.7016  0.0903  0.7962
 2277TIP3   OH228321   3.866   4.470  15.442  0.1550 -0.2450  0.4658
 2277TIP3    H128322   3.819   4.387  15.454 -0.6581 -0.0377 -1.0621
 2277TIP3    H228323   3.815   4.517  15.376 -0.9656  2.6686  3.1304
 2278TIP3   OH228324   1.747   2.314  15.845 -0.3580 -0.3564  0.2241
 2278TIP3    H128325   1.820   2.274  15.798 -1.1577 -1.2856 -0.2631
 2278TIP3    H228326   1.728   2.394  15.795 -0.5752 -0.8345 -0.4662
 2279TIP3   OH228327   3.881   6.680  15.370 -0.2334  0.1876 -0.0879
 2279TIP3    H128328   3.948   6.634  15.421  0.9898  0.5626 -1.2935
 2279TIP3    H228329   3.929   6.717  15.295 -1.7542  0.6862 -0.8549
 2280TIP3   OH228330   0.073   3.051   4.964 -0.1318  0.0638 -0.2168
 2280TIP3    H128331   0.153   3.098   4.987 -1.0928  1.8620 -0.3909
 2280TIP3    H228332   0.080   3.035   4.870  0.9473 -1.6963  0.1185
 2281TIP3   OH228333   2.860   3.146  15.135 -0.0433  0.3776 -0.1750
 2281TIP3    H128334   2.870   3.060  15.176 -0.4438  0.3693 -0.0956
 2281TIP3    H228335   2.941   3.192  15.156  0.4950 -0.2343 -0.8332
 2282TIP3   OH228336   1.715   3.379  13.557 -0.0795 -0.5714 -0.0566
 2282TIP3    H128337   1.769   3.329  13.618 -0.7490  0.3303  1.3111
 2282TIP3    H228338   1.777   3.416  13.494  0.8644  0.1579  1.2795
 2283TIP3   OH228339   1.261   4.056   2.647 -0.1417 -0.0263 -0.1861
 2283TIP3    H128340   1.330   3.989   2.641 -0.7668 -1.3958  4.2332
 2283TIP3    H228341   1.295   4.119   2.710 -1.9595  0.5821  0.2276
 2284TIP3   OH228342   0.496   0.775  13.086  0.4590  0.8686 -0.1527
 2284TIP3    H128343   0.563   0.725  13.040  0.7961 -1.1511  2.2964
 2284TIP3    H228344   0.529   0.782  13.176 -0.7604  3.4411  0.1798
 2285TIP3   OH228345   4.389   2.125   2.558  0.1143 -0.0088  0.9376
 2285TIP3    H128346   4.462   2.120   2.496  0.1975  0.6059  0.9781
 2285TIP3    H228347   4.427   2.095   2.641  1.2978  3.3563  1.7742
 2286TIP3   OH228348   5.562   4.730   2.642  0.1051  0.6245  0.0034
 2286TIP3    H128349   5.594   4.653   2.595  1.8845  2.1160 -1.4047
 2286TIP3    H228350   5.550   4.700   2.732  0.3272 -1.3731 -0.5841
 2287TIP3   OH228351   3.199   1.511   5.478  0.0612  0.2162 -0.2800
 2287TIP3    H128352   3.136   1.510   5.550  0.6797  2.5774  0.3850
 2287TIP3    H228353   3.260   1.581   5.500  1.0075  0.1870 -2.5066
 2288TIP3   OH228354   6.165   1.284   0.269 -1.4898  0.3181 -0.0767
 2288TIP3    H128355   6.180   1.308   0.360  0.8246  0.6045 -0.4724
 2288TIP3    H228356   6.146   1.367   0.225 -1.9128  0.2737  0.0216
 2289TIP3   OH228357   0.737   0.852   3.066 -0.1777  0.7561  0.0020
 2289TIP3    H128358   0.752   0.906   3.143  1.0423 -0.2502  0.5152
 2289TIP3    H228359   0.642   0.837   3.065 -0.2420  0.9729  1.1837
 2290TIP3   OH228360   2.593   3.559  12.943  0.0405  0.4887  0.4837
 2290TIP3    H128361   2.567   3.508  13.020  2.7426 -2.5940 -0.4605
 2290TIP3    H228362   2.673   3.604  12.971  0.8570 -0.3945 -0.3858
 2291TIP3   OH228363   4.511   6.425  13.964 -0.3316 -0.3963  0.1928
 2291TIP3    H128364   4.506   6.513  14.002  2.2382  0.1893 -0.5740
 2291TIP3    H228365   4.595   6.424  13.917 -1.0438 -2.7302 -1.2278
 2292TIP3   OH228366   3.180   0.435  13.229  0.4940  0.3499  0.6961
 2292TIP3    H128367   3.184   0.522  13.189  0.7804  1.1200  2.3117
 2292TIP3    H228368   3.098   0.397  13.196  0.7546  0.9023 -0.6390
 2293TIP3   OH228369   0.256   0.860   6.219 -0.0875 -0.0251  0.3918
 2293TIP3    H128370   0.347   0.882   6.201 -0.1688 -0.9041 -1.3113
 2293TIP3    H228371   0.260   0.781   6.273  0.2366 -1.4771 -1.6109
 2294TIP3   OH228372   1.290   1.777   1.373 -0.4824 -0.0265 -1.0588
 2294TIP3    H128373   1.294   1.869   1.399 -1.5969  0.1480 -1.4388
 2294TIP3    H228374   1.244   1.734   1.445  0.0159 -0.2961 -0.8926
 2295TIP3   OH228375   3.643   0.609  15.935 -0.2672 -0.3965 -0.2357
 2295TIP3    H128376   3.584   0.600  16.010  0.5576  0.1730  0.5144
 2295TIP3    H228377   3.676   0.521  15.919  1.3162 -0.2060  1.5958
 2296TIP3   OH228378   3.547   1.351  13.099 -0.0306 -0.5379 -0.0654
 2296TIP3    H128379   3.523   1.329  13.188 -1.2642  1.9102  0.2968
 2296TIP3    H228380   3.542   1.447  13.095 -0.8521 -0.5884 -2.9662
 2297TIP3   OH228381   4.742   0.356  15.039 -0.2683  0.3388  0.2837
 2297TIP3    H128382   4.820   0.346  15.095 -0.4219 -0.1697  0.4109
 2297TIP3    H228383   4.725   0.268  15.006 -1.5379  0.2107  1.2522
 2298TIP3   OH228384   1.458   4.324   4.913 -0.2478  0.0232  0.4463
 2298TIP3    H128385   1.392   4.393   4.911 -0.1936  0.0672 -1.3480
 2298TIP3    H228386   1.526   4.358   4.970 -1.0381  0.6732  1.0235
 2299TIP3   OH228387   4.710   0.538   4.585 -0.6718 -0.3077  0.0276
 2299TIP3    H128388   4.692   0.628   4.557 -0.9336 -1.0748 -2.5265
 2299TIP3    H228389   4.710   0.488   4.504  1.5009 -2.3024  1.1554
 2300TIP3   OH228390   1.861   5.082   0.769  0.5980  0.2449 -0.3874
 2300TIP3    H128391   1.920   5.008   0.753 -0.6905 -0.6793 -1.0853
 2300TIP3    H228392   1.844   5.080   0.863 -0.0871 -0.9074 -0.5139
 2301TIP3   OH228393   5.414   3.341  12.114 -0.1083 -0.7403 -0.0048
 2301TIP3    H128394   5.321   3.361  12.111 -0.0761 -0.5157  0.3784
 2301TIP3    H228395   5.429   3.283  12.039 -0.0875  1.1570 -1.5233
 2302TIP3   OH228396   4.288   1.063  13.609 -0.2209  0.0166  0.0657
 2302TIP3    H128397   4.367   1.110  13.634 -0.8502  1.0014  0.2301
 2302TIP3    H228398   4.250   1.114  13.538 -0.6893 -0.4667 -0.0401
 2303TIP3   OH228399   1.883   0.470  16.952  0.4695  0.0322  0.0995
 2303TIP3    H128400   1.922   0.423  17.025  1.7204 -0.3952 -0.8099
 2303TIP3    H228401   1.883   0.562  16.980  0.3463 -0.1957  0.8693
 2304TIP3   OH228402   6.486   3.773  16.330  0.2196 -0.6412  0.0628
 2304TIP3    H128403   6.578   3.778  16.305 -0.0302 -1.7594 -1.2124
 2304TIP3    H228404   6.442   3.735  16.254 -1.5678  1.2706  0.0260
 2305TIP3   OH228405   3.178   1.694   4.170  0.0278  0.5409  0.0648
 2305TIP3    H128406   3.133   1.767   4.130 -1.5996 -1.0451 -1.1681
 2305TIP3    H228407   3.216   1.646   4.097  0.3013 -0.3305  0.7579
 2306TIP3   OH228408   1.583   3.774   1.739 -0.4782  0.1158  0.0946
 2306TIP3    H128409   1.640   3.820   1.800 -0.4739  0.5215 -0.2122
 2306TIP3    H228410   1.507   3.748   1.792 -0.9287  1.3205  0.0691
 2307TIP3   OH228411   3.959   0.112   3.894  0.4645  0.2569  0.0595
 2307TIP3    H128412   3.883   0.162   3.863  1.7990  2.0745 -0.4378
 2307TIP3    H228413   3.939   0.093   3.986  0.0046  1.9609  0.3461
 2308TIP3   OH228414   5.094   2.800  15.808  0.1642 -0.9475 -0.1018
 2308TIP3    H128415   5.051   2.879  15.777  3.7854  1.7916  1.1511
 2308TIP3    H228416   5.049   2.777  15.889 -0.9369 -0.2110 -0.4822
 2309TIP3   OH228417   3.211   4.718  15.040 -0.1039 -0.2213 -0.2088
 2309TIP3    H128418   3.173   4.806  15.028  0.1051  0.1381  1.4822
 2309TIP3    H228419   3.297   4.723  15.000 -0.7778 -0.2152 -1.7020
 2310TIP3   OH228420   0.226   4.869   0.814 -0.4166  0.1563  0.0805
 2310TIP3    H128421   0.191   4.937   0.872  1.2079  0.8903  0.2552
 2310TIP3    H228422   0.198   4.787   0.854 -0.7794  0.6889  0.9537
 2311TIP3   OH228423   3.684   6.452   1.483  0.2979 -0.1389  0.1026
 2311TIP3    H128424   3.601   6.413   1.509  0.6881 -0.7591  0.4294
 2311TIP3    H228425   3.661   6.541   1.455 -0.3020  0.1876  1.5188
 2312TIP3   OH228426   2.498   5.368  14.739 -0.2107  0.2564  0.5559
 2312TIP3    H128427   2.583   5.336  14.710 -0.7216 -0.7032  0.0959
 2312TIP3    H228428   2.494   5.345  14.832 -0.2126 -0.2435  0.4347
 2313TIP3   OH228429   4.164   6.750   3.155  0.0306 -0.0169  0.2955
 2313TIP3    H128430   4.118   6.726   3.235 -0.5740 -1.0949 -0.3451
 2313TIP3    H228431   4.096   6.792   3.101 -0.5126 -2.4608 -1.0367
 2314TIP3   OH228432   3.030   4.758  11.592  0.3842 -0.6116 -0.3182
 2314TIP3    H128433   2.975   4.752  11.514 -1.5076 -2.0662  1.0190
 2314TIP3    H228434   2.979   4.813  11.653  0.0979 -2.3738  1.1185
 2315TIP3   OH228435   5.671   4.490   0.678  0.3337  0.3830  0.5119
 2315TIP3    H128436   5.599   4.447   0.632  0.2154  0.6774  0.4249
 2315TIP3    H228437   5.684   4.572   0.631 -0.2644  1.0252  1.4482
 2316TIP3   OH228438   5.947   1.385  12.491 -0.0678  0.4194 -0.1800
 2316TIP3    H128439   5.879   1.452  12.492 -1.6787 -1.1360  0.3837
 2316TIP3    H228440   6.024   1.428  12.525 -0.9296  2.0936 -0.2613
 2317TIP3   OH228441   1.762   3.962   1.837 -0.5666  0.2002 -0.1312
 2317TIP3    H128442   1.729   4.032   1.893  0.3917  0.0852  0.5983
 2317TIP3    H228443   1.804   3.901   1.897 -0.6222 -0.5614 -0.8529
 2318TIP3   OH228444   4.841   0.575   4.856  0.2115 -0.1380  0.3022
 2318TIP3    H128445   4.905   0.561   4.786  0.7587 -0.3968  0.8420
 2318TIP3    H228446   4.758   0.589   4.810  0.8098  1.1476 -0.4621
 2319TIP3   OH228447   2.647   0.755  16.404  0.0299 -0.0069  0.0069
 2319TIP3    H128448   2.679   0.718  16.486 -0.9921  1.0485  0.9197
 2319TIP3    H228449   2.682   0.844  16.402 -4.7898  2.3358  2.5050
 2320TIP3   OH228450   0.794   0.018  14.679 -0.4549  0.3110 -0.3044
 2320TIP3    H128451   0.802  -0.047  14.749  0.4290  1.2062  0.4544
 2320TIP3    H228452   0.814  -0.031  14.599 -1.2172 -0.6639  0.0838
 2321TIP3   OH228453   3.519   4.320  11.204 -0.2209  0.2797 -0.3526
 2321TIP3    H128454   3.585   4.388  11.215  0.1877  0.2142 -2.1253
 2321TIP3    H228455   3.440   4.358  11.242  0.3133  1.2278 -0.1388
 2322TIP3   OH228456   0.002   3.325  15.077 -0.1735 -0.0782  0.6896
 2322TIP3    H128457  -0.080   3.363  15.044 -1.5158 -2.9458  0.4367
 2322TIP3    H228458   0.064   3.340  15.006 -0.7665  1.1125  0.3836
 2323TIP3   OH228459   4.050   5.500  13.065  0.1487 -0.3825  0.2170
 2323TIP3    H128460   4.040   5.435  12.996 -0.0890  0.8210 -0.9191
 2323TIP3    H228461   3.963   5.540  13.074  1.0412  2.2564 -1.6871
 2324TIP3   OH228462   3.608   2.753  16.394 -0.3262  0.0372 -0.1987
 2324TIP3    H128463   3.671   2.822  16.371 -0.0176 -0.7461 -1.9020
 2324TIP3    H228464   3.617   2.743  16.488  0.9261  1.0888 -0.1684
 2325TIP3   OH228465   6.735   1.876   0.306 -0.5454  0.2561  0.1645
 2325TIP3    H128466   6.750   1.787   0.339 -1.6359 -0.1166 -0.3038
 2325TIP3    H228467   6.674   1.865   0.233 -0.5471  1.3755 -0.0208
 2326TIP3   OH228468   3.575   4.464  11.945 -0.0628 -0.1299  0.5012
 2326TIP3    H128469   3.506   4.401  11.965 -0.5956  0.3163  0.1039
 2326TIP3    H228470   3.531   4.549  11.948  0.1386  0.0698 -1.1202
 2327TIP3   OH228471   1.680   2.883  15.335 -0.0101 -0.2893 -0.0109
 2327TIP3    H128472   1.738   2.958  15.325  2.1724 -1.8182  0.5157
 2327TIP3    H228473   1.599   2.909  15.291  1.4175  1.5522 -1.7198
 2328TIP3   OH228474   1.940   0.167   4.942 -0.7493 -0.2068 -0.6793
 2328TIP3    H128475   1.943   0.157   5.037  1.1387 -0.6307 -0.7527
 2328TIP3    H228476   1.874   0.235   4.928  0.2987  1.2556  1.0683
 2329TIP3   OH228477   2.117   3.346   5.835  0.4941 -0.6240 -0.4172
 2329TIP3    H128478   2.157   3.287   5.898  0.9868 -0.2951 -0.4168
 2329TIP3    H228479   2.032   3.369   5.873  0.7002 -0.5941  0.0240
 2330TIP3   OH228480   0.848   1.874   4.999  0.9015 -0.1481 -0.7444
 2330TIP3    H128481   0.912   1.864   4.928  0.8530  0.4499 -0.8779
 2330TIP3    H228482   0.795   1.794   4.994  2.4380 -1.2842  0.2000
 2331TIP3   OH228483   3.615   3.744   4.090 -0.2103 -0.0024 -0.3872
 2331TIP3    H128484   3.522   3.764   4.075 -0.2701 -1.1706 -1.6550
 2331TIP3    H228485   3.659   3.772   4.010  0.7712  1.7818  0.7117
 2332TIP3   OH228486   3.804   2.777   2.500  0.2196  0.4462 -0.2688
 2332TIP3    H128487   3.830   2.745   2.414  0.8648  0.5083 -0.1061
 2332TIP3    H228488   3.745   2.850   2.482 -1.5437 -1.0067 -0.6432
 2333TIP3   OH228489   5.455   3.519   1.616  0.3432  0.2845 -0.4011
 2333TIP3    H128490   5.529   3.577   1.632 -0.2308  0.4653  1.9011
 2333TIP3    H228491   5.484   3.433   1.648 -0.6323  0.5123  1.1941
 2334TIP3   OH228492   5.866   3.660   4.930  0.2046  0.1085 -0.5413
 2334TIP3    H128493   5.869   3.755   4.920  0.7732  0.0813 -0.6965
 2334TIP3    H228494   5.934   3.628   4.871  0.8973 -0.3025  0.4418
 2335TIP3   OH228495   4.104   0.814  16.554  0.1392 -0.1902  0.4316
 2335TIP3    H128496   4.132   0.902  16.580  1.9703 -0.7260  0.4547
 2335TIP3    H228497   4.144   0.801  16.468 -0.8296 -0.6939  0.0419
 2336TIP3   OH228498   4.732   5.310  14.919  0.1073 -0.4510  0.1572
 2336TIP3    H128499   4.714   5.229  14.872 -0.0859 -0.1278 -0.3360
 2336TIP3    H228500   4.649   5.358  14.917 -0.3433 -1.0667  2.1196
 2337TIP3   OH228501   0.638   5.004  13.570  0.3356 -0.1431  0.1333
 2337TIP3    H128502   0.612   5.088  13.532  0.1650  0.2125  1.0186
 2337TIP3    H228503   0.724   5.021  13.609  0.7743 -0.6577 -0.5869
 2338TIP3   OH228504   1.970   5.026  11.585 -0.3223 -0.2980  0.0106
 2338TIP3    H128505   1.942   5.041  11.495  0.7540 -0.7544 -0.4200
 2338TIP3    H228506   1.889   5.028  11.636 -1.0312 -0.6840 -1.0573
 2339TIP3   OH228507   0.565   4.365  15.010  0.2124 -0.2479  0.2350
 2339TIP3    H128508   0.609   4.318  15.081 -1.0536 -0.0633  1.1669
 2339TIP3    H228509   0.590   4.457  15.024  0.3428 -0.2686  0.1456
 2340TIP3   OH228510   5.357   2.060  16.768  0.2941 -0.2978  0.5774
 2340TIP3    H128511   5.307   1.981  16.790 -0.0046 -0.1793  0.3226
 2340TIP3    H228512   5.316   2.093  16.689  0.4697  0.0740  0.6427
 2341TIP3   OH228513   3.475   1.175  13.596  0.1235 -0.2732 -0.0481
 2341TIP3    H128514   3.532   1.209  13.527  0.7370  0.7745  0.9353
 2341TIP3    H228515   3.504   1.221  13.676 -1.2757 -0.6469  0.7041
 2342TIP3   OH228516   3.797   6.056   1.787 -0.0083  0.0700  0.0658
 2342TIP3    H128517   3.834   6.125   1.843  1.1228  0.6680 -1.3563
 2342TIP3    H228518   3.836   6.072   1.701 -2.4585 -0.2019 -1.1735
 2343TIP3   OH228519   5.397   1.151   3.789  0.4677  0.1261  0.1284
 2343TIP3    H128520   5.440   1.100   3.857 -1.3144 -0.7774  0.6555
 2343TIP3    H228521   5.331   1.091   3.753  1.0758  0.7036 -2.1438
 2344TIP3   OH228522   6.442   2.158   0.056  0.1021 -0.3318  0.5535
 2344TIP3    H128523   6.515   2.176   0.116  1.5695 -0.4920 -1.0988
 2344TIP3    H228524   6.401   2.244   0.042  1.9987  0.4151 -0.9431
 2345TIP3   OH228525   0.652   4.169  14.132 -0.0033 -0.1349  0.4412
 2345TIP3    H128526   0.689   4.081  14.139  0.2689  0.0319  1.2080
 2345TIP3    H228527   0.565   4.155  14.093 -0.4834 -0.8940  1.7061
 2346TIP3   OH228528   5.691   3.827  13.754 -0.1195 -0.3435  0.5481
 2346TIP3    H128529   5.663   3.918  13.755 -1.7100 -0.7885 -0.3763
 2346TIP3    H228530   5.614   3.778  13.727  0.9219 -1.8944  0.2357
 2347TIP3   OH228531   4.835   4.144  16.706  0.4046  0.4684  0.3028
 2347TIP3    H128532   4.897   4.146  16.633  0.4101  2.0681  0.3125
 2347TIP3    H228533   4.754   4.109  16.669  1.7180 -3.5030  0.7109
 2348TIP3   OH228534   1.665   4.067  16.660  0.1253 -0.1810  0.8661
 2348TIP3    H128535   1.603   4.116  16.713 -0.1183 -0.2494  0.6464
 2348TIP3    H228536   1.747   4.117  16.666 -0.2592  0.5482  0.2112
 2349TIP3   OH228537   0.716   5.646  12.584 -0.5125  0.4701 -0.2708
 2349TIP3    H128538   0.649   5.710  12.606 -0.0777  0.8061  0.1175
 2349TIP3    H228539   0.694   5.616  12.496 -1.0242  0.7565 -0.2412
 2350TIP3   OH228540   2.807   0.212  14.335 -0.1422 -0.0877  0.2793
 2350TIP3    H128541   2.745   0.251  14.274  1.2535  0.6200 -0.7627
 2350TIP3    H228542   2.808   0.119  14.312 -0.6594 -0.0687  0.1761
 2351TIP3   OH228543   0.320   1.771   6.588  0.0920 -0.2383  0.2975
 2351TIP3    H128544   0.357   1.704   6.531  1.8876  1.2496 -0.4148
 2351TIP3    H228545   0.226   1.765   6.575  0.3408 -1.1627 -1.4111
 2352TIP3   OH228546   1.442   6.760  16.714 -0.0455  0.4550  0.8051
 2352TIP3    H128547   1.521   6.789  16.760  0.0862 -1.3569  1.7948
 2352TIP3    H228548   1.428   6.827  16.646  2.5753  0.5932  0.3161
 2353TIP3   OH228549   6.082   0.931   6.086  0.0784  0.9291  0.9675
 2353TIP3    H128550   6.032   0.967   6.159 -0.8492 -3.3986  2.7190
 2353TIP3    H228551   6.021   0.874   6.039  1.8224  0.1294 -0.4851
 2354TIP3   OH228552   5.213   0.271   2.462  0.0566  0.2557  0.0292
 2354TIP3    H128553   5.192   0.311   2.546  2.0353  0.9433  0.2557
 2354TIP3    H228554   5.237   0.344   2.406  1.7669 -0.3954 -0.1591
 2355TIP3   OH228555   1.558   3.791  16.655 -0.5028 -0.2916 -0.3651
 2355TIP3    H128556   1.608   3.872  16.667  0.4498 -1.0176  0.6623
 2355TIP3    H228557   1.514   3.803  16.570 -1.9442  2.1235  0.6020
 2356TIP3   OH228558   2.435   1.072  12.350  0.0337 -0.1700  0.8181
 2356TIP3    H128559   2.388   0.990  12.337  0.7298 -0.4354 -0.2099
 2356TIP3    H228560   2.377   1.126  12.405 -2.2552  0.1898 -1.7448
 2357TIP3   OH228561   4.322   6.390  16.675 -0.1396  0.4373  0.4226
 2357TIP3    H128562   4.249   6.451  16.667 -0.2267  0.1749 -1.0272
 2357TIP3    H228563   4.348   6.396  16.767 -0.4721  2.2477  0.4267
 2358TIP3   OH228564   5.429   2.199   5.655  0.3390 -0.1531 -0.1968
 2358TIP3    H128565   5.340   2.165   5.661  0.1079  0.4145 -0.3113
 2358TIP3    H228566   5.481   2.125   5.625 -0.2445 -0.2813 -0.9334
 2359TIP3   OH228567   4.703   3.584  17.144 -0.3341 -0.0420  0.1522
 2359TIP3    H128568   4.725   3.557  17.233 -0.1619 -2.0591 -0.4520
 2359TIP3    H228569   4.781   3.630  17.113 -0.0521 -0.1190  0.7316
 2360TIP3   OH228570   0.672   3.245  11.502  0.0075  0.0961  0.0589
 2360TIP3    H128571   0.677   3.315  11.437  3.0378  0.8918  0.9925
 2360TIP3    H228572   0.603   3.272  11.562 -0.5440  1.0346 -0.9695
 2361TIP3   OH228573   4.588   1.886   2.267 -0.2748 -0.5646  0.3379
 2361TIP3    H128574   4.613   1.966   2.313 -2.8955  1.0856 -0.8579
 2361TIP3    H228575   4.623   1.896   2.179  1.2076 -1.8030  0.7405
 2362TIP3   OH228576   4.890   0.554  12.676  0.3860 -0.0489 -0.4350
 2362TIP3    H128577   4.813   0.606  12.699  1.0164 -0.1055  2.0974
 2362TIP3    H228578   4.962   0.617  12.677  0.4941 -0.0883 -2.3213
 2363TIP3   OH228579   5.091   2.215   3.643 -0.2595 -0.1189  0.8327
 2363TIP3    H128580   5.184   2.194   3.649 -0.4431 -0.9963  0.8381
 2363TIP3    H228581   5.056   2.195   3.729 -0.2257  1.4772  1.2346
 2364TIP3   OH228582   5.358   1.420  14.681  0.4985  0.3483  0.7252
 2364TIP3    H128583   5.386   1.499  14.728 -0.5438  0.7794  0.6452
 2364TIP3    H228584   5.372   1.441  14.589  0.5816  0.2935  0.7253
 2365TIP3   OH228585   2.975   3.458  15.935 -0.0702 -0.2401 -0.0056
 2365TIP3    H128586   3.055   3.436  15.983 -0.6060 -3.4661 -0.4034
 2365TIP3    H228587   2.987   3.420  15.849 -1.7620 -0.2053 -0.2917
 2366TIP3   OH228588   1.683   1.274  16.807  0.3363 -0.3422  0.6337
 2366TIP3    H128589   1.625   1.255  16.733  1.3395  1.4953 -0.7418
 2366TIP3    H228590   1.709   1.189  16.840 -0.1096 -1.2580 -1.2185
 2367TIP3   OH228591   2.306   5.743  13.642  0.3239 -0.0966  0.6737
 2367TIP3    H128592   2.265   5.768  13.559 -0.1737 -0.9530  0.6468
 2367TIP3    H228593   2.246   5.679  13.680 -0.1677  1.3006  2.3764
 2368TIP3   OH228594   1.370   0.077  11.004  0.0649  0.5113  0.3572
 2368TIP3    H128595   1.277   0.066  10.986 -0.0347 -0.3147  1.2868
 2368TIP3    H228596   1.414   0.032  10.933 -0.2934 -1.1778  1.1568
 2369TIP3   OH228597   0.141   2.636   2.862 -0.1087  0.0796 -0.2713
 2369TIP3    H128598   0.094   2.709   2.902  1.9603  0.6043  1.3718
 2369TIP3    H228599   0.108   2.558   2.908 -0.2946  0.2859 -0.0540
 2370TIP3   OH228600   5.470   3.991   5.266  0.2705 -0.6355 -0.3062
 2370TIP3    H128601   5.377   4.009   5.271  0.0553 -1.8993  1.1340
 2370TIP3    H228602   5.502   4.047   5.196 -0.9490  2.3369  1.3250
 2371TIP3   OH228603   6.516   2.647  12.124  0.7727  0.1469  0.7273
 2371TIP3    H128604   6.457   2.676  12.054  1.0680 -0.5363  0.1780
 2371TIP3    H228605   6.544   2.560  12.096  1.4265  0.1434  1.3743
 2372TIP3   OH228606   5.702   6.239   5.668 -0.3264 -0.2360  0.0545
 2372TIP3    H128607   5.774   6.176   5.667  0.3627  0.1657  4.6185
 2372TIP3    H228608   5.745   6.324   5.678 -1.3585  0.2816  0.1995
 2373TIP3   OH228609   0.981   5.072   5.566  0.1100 -0.3390 -0.0161
 2373TIP3    H128610   0.946   4.996   5.519  0.3452  0.8066 -2.1828
 2373TIP3    H228611   1.052   5.037   5.619  0.7251 -1.5467 -1.5659
 2374TIP3   OH228612   5.259   1.319  17.218 -0.2696  0.0524  0.5630
 2374TIP3    H128613   5.311   1.315  17.138  0.7203 -2.5702  1.2151
 2374TIP3    H228614   5.172   1.287  17.192 -0.9350  2.1933 -0.0391
 2375TIP3   OH228615   1.610   5.835  14.432 -0.5207 -0.0244 -0.2800
 2375TIP3    H128616   1.691   5.843  14.380 -1.3061 -0.4548 -1.6317
 2375TIP3    H228617   1.543   5.877  14.377 -1.1896  0.4729  0.8915
 2376TIP3   OH228618   5.193   5.942  15.355 -0.7404 -0.5182  0.3314
 2376TIP3    H128619   5.188   5.849  15.333 -0.6513 -0.2811 -0.7405
 2376TIP3    H228620   5.232   5.983  15.278  0.2478  0.2676  1.2093
 2377TIP3   OH228621   0.024   3.969  13.395  0.0492 -0.4777  0.1568
 2377TIP3    H128622  -0.017   3.893  13.437  0.2865 -0.3267  0.6789
 2377TIP3    H228623   0.019   3.950  13.301  0.8437 -1.5302  0.3027
 2378TIP3   OH228624   5.232   5.878  16.553  0.0530 -0.0399  0.3892
 2378TIP3    H128625   5.188   5.921  16.479  0.0276  0.2778  0.5872
 2378TIP3    H228626   5.247   5.789  16.523 -1.7512 -0.4926  0.7154
 2379TIP3   OH228627   0.525   6.068   4.560  0.4873 -0.9818  0.3385
 2379TIP3    H128628   0.528   5.981   4.521 -0.2438 -1.5441  1.5096
 2379TIP3    H228629   0.444   6.070   4.610 -0.2105  0.8626 -0.7476
 2380TIP3   OH228630   1.798   1.264  11.573 -0.3902  0.1332  0.3516
 2380TIP3    H128631   1.799   1.341  11.630  0.4380  0.0809  0.4171
 2380TIP3    H228632   1.855   1.287  11.500 -0.7345 -0.1413 -0.0102
 2381TIP3   OH228633   5.151   2.142  13.293 -0.0602  0.6021  0.1764
 2381TIP3    H128634   5.201   2.062  13.274 -0.5504 -0.9529  4.4220
 2381TIP3    H228635   5.062   2.121  13.265 -0.4845 -1.0323  2.4601
 2382TIP3   OH228636   5.622   5.248   6.063 -0.4234 -0.2340 -0.4176
 2382TIP3    H128637   5.614   5.319   6.000  0.9558  1.6552  1.4045
 2382TIP3    H228638   5.577   5.279   6.142 -0.2054 -1.5931  0.2859
 2383TIP3   OH228639   3.885   4.717  15.718  0.5481 -0.1296 -0.1027
 2383TIP3    H128640   3.809   4.698  15.663  1.5796 -0.1629 -1.5772
 2383TIP3    H228641   3.951   4.653  15.692  1.8429  1.2854 -0.4892
 2384TIP3   OH228642   0.141   6.754  17.306  0.1696 -0.2945  0.8110
 2384TIP3    H128643   0.066   6.729  17.252  0.7477 -1.6534  0.5863
 2384TIP3    H228644   0.119   6.840  17.340 -1.5692 -0.7436  0.8902
 2385TIP3   OH228645   5.056   0.223   6.400 -0.6909  0.6610 -0.8445
 2385TIP3    H128646   5.055   0.151   6.462 -0.2609  0.5122 -1.0017
 2385TIP3    H228647   4.977   0.273   6.419 -0.8094  0.3465 -0.5009
 2386TIP3   OH228648   0.736   4.527   2.708  0.3042 -0.1382 -0.3524
 2386TIP3    H128649   0.713   4.513   2.799  1.8045  1.7903  0.4110
 2386TIP3    H228650   0.657   4.505   2.659 -1.4910  1.3674  1.6512
 2387TIP3   OH228651   0.120   4.576   5.474  0.1037 -0.0814 -0.0311
 2387TIP3    H128652   0.110   4.481   5.475  2.0274 -0.3373 -1.0809
 2387TIP3    H228653   0.153   4.597   5.387  2.4563  1.2024  1.0597
 2388TIP3   OH228654   6.560   4.922  15.135  0.1386 -0.4724  0.3188
 2388TIP3    H128655   6.552   4.924  15.039 -2.7849  1.5815  0.4701
 2388TIP3    H228656   6.558   5.014  15.160 -0.6987 -1.0282  2.4454
 2389TIP3   OH228657   2.579   0.111  12.883  0.4668  0.4123  0.4075
 2389TIP3    H128658   2.659   0.153  12.851  2.6968 -2.8158  1.1585
 2389TIP3    H228659   2.604   0.075  12.968 -2.4328  0.8449  1.5556
 2390TIP3   OH228660   5.170   2.862   4.754  0.3426  0.0397 -0.5725
 2390TIP3    H128661   5.206   2.805   4.822 -0.1125 -1.0481 -1.2142
 2390TIP3    H228662   5.187   2.815   4.673  1.1972  1.4820 -1.2765
 2391TIP3   OH228663   5.102   3.945   2.056  0.4564  0.3397  0.2004
 2391TIP3    H128664   5.074   4.037   2.049 -2.6843 -0.2803  2.4450
 2391TIP3    H228665   5.133   3.923   1.968  0.3071  3.2410 -0.6933
 2392TIP3   OH228666   6.754   5.658  10.328  0.0493  0.5864  0.1449
 2392TIP3    H128667   6.692   5.693  10.392 -0.7999  1.0893 -0.9126
 2392TIP3    H228668   6.710   5.581  10.292  0.1324  0.7901 -0.4151
 2393TIP3   OH228669   4.135   1.705  13.323  0.0657 -0.5555 -0.5590
 2393TIP3    H128670   4.070   1.730  13.258 -0.1891 -0.1072 -0.1375
 2393TIP3    H228671   4.101   1.625  13.361 -0.6962  0.1389  0.2720
 2394TIP3   OH228672   2.888   5.907  12.500 -0.0031  0.4795 -0.1318
 2394TIP3    H128673   2.953   5.975  12.480  1.9053 -0.7994  1.3141
 2394TIP3    H228674   2.868   5.868  12.415  1.4880  0.6444 -0.6019
 2395TIP3   OH228675   1.037   2.057   1.409  0.1363  0.4881  0.0537
 2395TIP3    H128676   1.053   2.006   1.329 -1.1519 -1.6088  1.0454
 2395TIP3    H228677   1.112   2.036   1.465 -0.7207 -0.9446  0.7179
 2396TIP3   OH228678   0.524   1.383   0.474  0.1734  0.2195  0.4801
 2396TIP3    H128679   0.483   1.408   0.557  0.0019 -0.8491  0.7302
 2396TIP3    H228680   0.616   1.406   0.485 -0.3619  3.1893 -0.2990
 2397TIP3   OH228681   0.410   3.285   1.118  0.4360  0.1088 -0.1350
 2397TIP3    H128682   0.444   3.257   1.203  2.9895  1.6615 -0.5449
 2397TIP3    H228683   0.463   3.237   1.054 -2.1930 -1.9281 -1.0008
 2398TIP3   OH228684   1.069   3.450  15.715  0.5874  0.3293  0.3530
 2398TIP3    H128685   1.154   3.405  15.712 -0.2966 -1.4259 -1.9757
 2398TIP3    H228686   1.005   3.379  15.708 -1.0153  1.7255  0.4305
 2399TIP3   OH228687   0.171   3.149   1.266 -0.2874  0.1146 -0.3001
 2399TIP3    H128688   0.260   3.175   1.245 -0.6231  1.4461 -0.1349
 2399TIP3    H228689   0.118   3.228   1.252 -2.0580 -1.4361 -3.8576
 2400TIP3   OH228690   0.605   4.650   1.193  0.4642 -0.4099  0.4619
 2400TIP3    H128691   0.602   4.663   1.098  1.3351 -2.2806  0.1180
 2400TIP3    H228692   0.557   4.724   1.229  1.1986  1.0412 -1.3628
 2401TIP3   OH228693   3.278   3.636  13.027 -0.4370 -0.6230 -0.3976
 2401TIP3    H128694   3.343   3.661  13.094  0.0337 -2.4262 -0.1244
 2401TIP3    H228695   3.230   3.563  13.067 -0.9269 -0.9652 -1.5837
 2402TIP3   OH228696   3.718   1.316   0.972  0.0415  0.1270 -0.6277
 2402TIP3    H128697   3.806   1.339   1.000  0.9516  1.8884 -4.2450
 2402TIP3    H228698   3.664   1.391   0.998  0.7382  1.4284 -2.6881
 2403TIP3   OH228699   2.929   2.367   2.625 -0.1655  0.2691  0.6522
 2403TIP3    H128700   2.903   2.418   2.701 -1.7790 -0.1427  0.4137
 2403TIP3    H228701   2.868   2.394   2.556  0.3735 -0.3781 -0.1000
 2404TIP3   OH228702   4.118   5.217   4.344 -0.3466  0.5121 -0.7646
 2404TIP3    H128703   4.107   5.189   4.253 -0.1713  0.7996 -0.8767
 2404TIP3    H228704   4.184   5.158   4.379 -2.2926 -1.3588 -0.0247
 2405TIP3   OH228705   5.882   1.512   0.303 -0.3341  0.1921 -0.1980
 2405TIP3    H128706   5.960   1.502   0.249 -1.0761  0.6510 -1.3888
 2405TIP3    H228707   5.811   1.475   0.250 -0.3139 -5.4006  2.8662
 2406TIP3   OH228708   3.775   3.627  12.840 -0.2012  0.1110 -0.3027
 2406TIP3    H128709   3.706   3.675  12.886  0.7166 -0.7891  2.1605
 2406TIP3    H228710   3.729   3.554  12.798 -0.7049 -1.1602  2.2627
 2407TIP3   OH228711   3.830   3.419  15.009 -0.8336 -0.0375 -0.0532
 2407TIP3    H128712   3.865   3.473  14.939 -3.5463  3.1547  0.8120
 2407TIP3    H228713   3.795   3.342  14.965 -0.6455  0.9203 -1.9668
 2408TIP3   OH228714   1.046   5.689   4.977 -0.6903 -0.5606 -0.2106
 2408TIP3    H128715   0.991   5.611   4.970 -0.3820 -0.7654 -0.3866
 2408TIP3    H228716   1.062   5.698   5.071 -0.5731 -0.8221 -0.2035
 2409TIP3   OH228717   5.358   2.675   4.290  0.2717 -0.2323 -0.2420
 2409TIP3    H128718   5.306   2.644   4.364  0.8362  0.2823  0.3851
 2409TIP3    H228719   5.337   2.614   4.219  0.8503 -1.6576  0.7506
 2410TIP3   OH228720   0.738   2.515   3.322 -0.1480 -0.2585  0.5948
 2410TIP3    H128721   0.795   2.481   3.391 -0.2355  0.5432  1.0834
 2410TIP3    H228722   0.696   2.438   3.284  3.4982 -1.2616 -1.9041
 2411TIP3   OH228723   2.741   2.441   2.393  0.5936 -0.2254 -0.3037
 2411TIP3    H128724   2.665   2.483   2.433  0.7396 -1.2709  1.1127
 2411TIP3    H228725   2.807   2.511   2.388 -0.6605  0.9197 -2.3159
 2412TIP3   OH228726   1.238   5.013  12.168 -0.1405 -0.4781  0.6531
 2412TIP3    H128727   1.289   5.094  12.160 -0.0223 -0.5596  0.5699
 2412TIP3    H228728   1.157   5.032  12.120 -0.2317 -0.3136  0.8692
 2413TIP3   OH228729   5.058   0.851   0.128  0.0406  0.5816  0.8029
 2413TIP3    H128730   5.030   0.886   0.213 -0.7722 -0.9209  1.2024
 2413TIP3    H228731   4.988   0.789   0.104  0.3182  0.8822 -0.9117
 2414TIP3   OH228732   5.488   2.094   0.940  0.2337 -0.5871 -0.7003
 2414TIP3    H128733   5.556   2.134   0.996 -1.0288  2.5696 -1.1816
 2414TIP3    H228734   5.464   2.014   0.985  1.3682  0.3173  1.6978
 2415TIP3   OH228735   0.521   0.674   2.485 -0.2853 -0.1649 -0.7576
 2415TIP3    H128736   0.526   0.596   2.429 -0.8432  0.1174 -1.2083
 2415TIP3    H228737   0.590   0.732   2.453  0.7062 -0.8132  0.1312
 2416TIP3   OH228738   3.089   6.649   6.546  0.3983 -0.1957 -0.2509
 2416TIP3    H128739   3.047   6.563   6.540 -1.3463  0.6890 -1.4998
 2416TIP3    H228740   3.180   6.629   6.567  0.1391 -2.3689 -0.8896
 2417TIP3   OH228741   1.555   2.238  11.812 -0.0661 -0.4590  0.3146
 2417TIP3    H128742   1.532   2.273  11.898  0.1018 -0.9805  0.5817
 2417TIP3    H228743   1.606   2.307  11.771  1.4702 -0.8895  1.3876
 2418TIP3   OH228744   4.374   6.288  15.913  0.0149 -0.2712 -0.0317
 2418TIP3    H128745   4.458   6.334  15.910  0.7976 -1.6979 -1.8875
 2418TIP3    H228746   4.337   6.312  15.998  2.1193  0.6939  0.6890
 2419TIP3   OH228747   4.479   2.555  15.486  0.0124 -0.1834  0.1612
 2419TIP3    H128748   4.460   2.463  15.467  0.7698 -0.7556  1.9937
 2419TIP3    H228749   4.400   2.587  15.529 -0.3643  0.1426 -0.7352
 2420TIP3   OH228750   2.299   1.670   3.786  0.1910 -0.1129  0.1572
 2420TIP3    H128751   2.264   1.652   3.874 -1.6923 -0.3060 -0.5912
 2420TIP3    H228752   2.321   1.763   3.788  1.4856 -0.4003  1.2315
 2421TIP3   OH228753   4.417   5.566  11.271  0.5049  0.2114 -0.2877
 2421TIP3    H128754   4.337   5.590  11.317 -0.9836 -0.9153 -2.1567
 2421TIP3    H228755   4.477   5.538  11.340 -0.4875  1.5843  1.1998
 2422TIP3   OH228756   1.752   5.555   3.041  0.4737 -0.0408  0.2191
 2422TIP3    H128757   1.766   5.635   3.092 -0.1121  0.0974  0.1747
 2422TIP3    H228758   1.660   5.559   3.015 -0.1603 -1.7455  1.9607
 2423TIP3   OH228759   3.398   0.173  11.002 -0.2141  0.6521 -0.1970
 2423TIP3    H128760   3.354   0.113  11.062 -0.7502  2.2616  1.0869
 2423TIP3    H228761   3.426   0.118  10.928 -0.9513 -1.0839  0.7796
 2424TIP3   OH228762   6.445   3.500  17.269 -0.0602 -0.7053 -0.3503
 2424TIP3    H128763   6.530   3.508  17.226  0.3061 -3.1275 -0.2410
 2424TIP3    H228764   6.423   3.407  17.260 -2.0252 -0.4162  0.9011
 2425TIP3   OH228765   5.130   0.229  12.126 -0.3622  0.2146  0.3892
 2425TIP3    H128766   5.061   0.273  12.076 -0.1384  1.7557  1.4031
 2425TIP3    H228767   5.205   0.227  12.067 -0.3926  1.1543  0.3140
 2426TIP3   OH228768   2.393   0.678   4.661  0.2306  1.0212 -0.3271
 2426TIP3    H128769   2.368   0.629   4.583 -1.3436  0.3205  0.5771
 2426TIP3    H228770   2.488   0.692   4.651  0.1972  0.2761 -1.9676
 2427TIP3   OH228771   6.410   3.648  12.258  0.4444  0.1550 -0.8176
 2427TIP3    H128772   6.440   3.662  12.169 -1.2057 -0.6764 -1.5460
 2427TIP3    H228773   6.424   3.555  12.274 -2.8561 -0.5986 -1.6997
 2428TIP3   OH228774   2.861   0.933   2.712 -0.1363 -0.2587 -0.7799
 2428TIP3    H128775   2.895   0.965   2.796  1.3124 -0.1558 -1.3756
 2428TIP3    H228776   2.807   1.005   2.680 -0.7040 -0.2957  0.0435
 2429TIP3   OH228777   4.353   3.247   5.065 -0.3264  0.1513  0.2426
 2429TIP3    H128778   4.270   3.221   5.106  0.7810  0.4884  2.9278
 2429TIP3    H228779   4.375   3.330   5.107  1.9678 -0.5667  0.5766
 2430TIP3   OH228780   6.251   4.132  15.189  0.1753  0.0503 -0.6439
 2430TIP3    H128781   6.300   4.206  15.224  2.9288 -1.9658  0.1369
 2430TIP3    H228782   6.256   4.065  15.258  0.9050 -2.0777 -2.6126
 2431TIP3   OH228783   3.982   4.652  14.915 -0.4160 -0.0258  0.9482
 2431TIP3    H128784   3.947   4.722  14.860  1.0483  1.3110  1.6157
 2431TIP3    H228785   4.013   4.586  14.854  1.1473  1.4180  0.1159
 2432TIP3   OH228786   2.156   6.033   3.675 -0.4254  0.0180 -0.2667
 2432TIP3    H128787   2.071   6.068   3.701 -1.5783 -0.2899 -3.2424
 2432TIP3    H228788   2.157   5.944   3.711 -1.5786 -0.1453 -0.6023
 2433TIP3   OH228789   0.878   3.319  13.650 -0.3363  1.1335  0.4635
 2433TIP3    H128790   0.881   3.266  13.729  0.5271  1.4943  0.6825
 2433TIP3    H228791   0.852   3.406  13.680 -0.5493  1.1328  0.2787
 2434TIP3   OH228792   6.397   2.766   4.642  0.0954 -0.4963 -0.2728
 2434TIP3    H128793   6.372   2.858   4.651 -0.0810 -0.6964  1.6738
 2434TIP3    H228794   6.347   2.735   4.567  0.5386  1.1057 -1.2787
 2435TIP3   OH228795   2.453   5.324   3.754  0.3443 -0.1746 -0.3935
 2435TIP3    H128796   2.365   5.359   3.745  0.1431 -0.2361  1.0915
 2435TIP3    H228797   2.468   5.275   3.673 -0.4614  0.9339 -1.2493
 2436TIP3   OH228798   1.475   5.512   3.020  0.9895 -0.3009 -0.1093
 2436TIP3    H128799   1.455   5.419   3.031 -1.7586  0.1416 -0.6519
 2436TIP3    H228800   1.403   5.558   3.064  1.9221  1.5752 -0.4310
 2437TIP3   OH228801   0.588   6.712   4.747  0.0074 -0.5727 -0.1555
 2437TIP3    H128802   0.531   6.643   4.715 -0.2210 -0.7301  0.5653
 2437TIP3    H228803   0.641   6.670   4.816  0.5572 -0.2755 -0.3899
 2438TIP3   OH228804   2.229   3.018  17.041  0.0140 -0.3325 -0.2337
 2438TIP3    H128805   2.307   3.038  16.989  1.9947 -0.2473  2.5178
 2438TIP3    H228806   2.204   3.102  17.080 -0.4355 -0.6543  0.1858
 2439TIP3   OH228807   4.018   1.301   1.072  0.3513  0.3675  0.4290
 2439TIP3    H128808   4.074   1.366   1.029 -0.0447  0.5922  0.2410
 2439TIP3    H228809   4.017   1.326   1.164  1.7294 -0.4987  0.6939
 2440TIP3   OH228810   0.614   2.108  15.484  0.4337  0.6579  0.9309
 2440TIP3    H128811   0.709   2.124  15.483  0.3884  0.9193  0.8651
 2440TIP3    H228812   0.575   2.194  15.473  0.2058  0.4143 -0.4359
 2441TIP3   OH228813   0.127   3.993  11.167 -0.5654  0.3567 -0.3803
 2441TIP3    H128814   0.183   4.064  11.136 -1.6283  1.4433  0.1137
 2441TIP3    H228815   0.097   4.022  11.253 -0.3205 -1.0999  0.2270
 2442TIP3   OH228816   1.303   3.690   1.230  0.0462  0.0988  0.2118
 2442TIP3    H128817   1.211   3.709   1.245 -0.4710 -0.7923 -1.5837
 2442TIP3    H228818   1.336   3.766   1.182 -0.3182 -0.5212 -1.0450
 2443TIP3   OH228819   5.419   5.584  13.502  0.0394  0.0149 -0.1757
 2443TIP3    H128820   5.434   5.506  13.556 -2.1618 -0.5479 -0.3035
 2443TIP3    H228821   5.369   5.552  13.427  0.0703  1.3708 -0.8069
 2444TIP3   OH228822   4.411   6.064  16.121 -0.5447  0.5773 -0.0076
 2444TIP3    H128823   4.436   6.025  16.205 -1.0446 -0.4530 -0.3121
 2444TIP3    H228824   4.350   6.134  16.144  1.6617  2.3973  0.6713
 2445TIP3   OH228825   0.599   2.523   4.140  0.0939  0.1074  0.1796
 2445TIP3    H128826   0.559   2.543   4.056  2.0548 -0.3717 -0.9413
 2445TIP3    H228827   0.657   2.598   4.157  0.2399 -0.1260  0.7497
 2446TIP3   OH228828   2.517   2.408  13.033 -0.0958 -0.3066 -0.2631
 2446TIP3    H128829   2.428   2.438  13.015  0.5463  0.5788 -2.2573
 2446TIP3    H228830   2.543   2.361  12.954  2.1533  1.8803 -0.9598
 2447TIP3   OH228831   0.115   3.728  12.865 -0.2481  0.0223 -0.2091
 2447TIP3    H128832   0.047   3.688  12.919 -0.4818  1.0510  0.2858
 2447TIP3    H228833   0.176   3.765  12.928  0.0925  0.2255 -0.6561
 2448TIP3   OH228834   3.417   3.602  15.933  0.4722 -0.4393 -0.1663
 2448TIP3    H128835   3.476   3.675  15.914  0.5929 -0.3140  0.6427
 2448TIP3    H228836   3.333   3.644  15.952  0.2418 -0.5877 -0.8349
 2449TIP3   OH228837   1.867   2.858  12.365  0.2413  0.1064 -0.7739
 2449TIP3    H128838   1.961   2.846  12.355  0.4111 -0.0703  0.8384
 2449TIP3    H228839   1.856   2.952  12.383  0.1575  0.0474 -0.5100
 2450TIP3   OH228840   1.952   0.473  13.554  0.5027  0.1606 -0.1594
 2450TIP3    H128841   1.887   0.450  13.621 -0.1673  0.7493 -0.5853
 2450TIP3    H228842   1.905   0.533  13.496  1.2801  0.1781 -0.7784
 2451TIP3   OH228843   2.377   2.167   1.011 -0.5696  0.3911  0.1572
 2451TIP3    H128844   2.386   2.138   0.920  0.0240 -1.0428  0.6478
 2451TIP3    H228845   2.284   2.188   1.020 -1.2422 -2.2244 -0.0167
 2452TIP3   OH228846   3.582   3.361   6.121  0.6875  0.2687 -0.4014
 2452TIP3    H128847   3.601   3.411   6.200  0.4488  0.5054 -0.4926
 2452TIP3    H228848   3.490   3.377   6.103  0.3527 -0.9965  0.1120
 2453TIP3   OH228849   2.675   3.608  11.796  0.2802  0.0167 -0.0395
 2453TIP3    H128850   2.582   3.629  11.780  0.7119 -0.2031 -3.5645
 2453TIP3    H228851   2.717   3.694  11.803  0.2580  0.2032 -1.8693
 2454TIP3   OH228852   1.133   5.762  12.045  0.2815 -0.1787 -0.0313
 2454TIP3    H128853   1.080   5.764  12.124 -1.1464  1.7145 -0.9632
 2454TIP3    H228854   1.074   5.731  11.976  0.9338  0.1234 -0.7482
 2455TIP3   OH228855   3.930   1.013   5.859 -0.0984 -0.5451 -0.9556
 2455TIP3    H128856   3.926   1.091   5.915 -0.8185 -0.5653 -0.9636
 2455TIP3    H228857   4.021   1.008   5.831  0.7369 -1.6146  1.6889
 2456TIP3   OH228858   0.055   4.550  14.418  0.0814 -0.2267 -0.3144
 2456TIP3    H128859   0.002   4.619  14.377 -0.7674 -1.0613 -0.6521
 2456TIP3    H228860   0.145   4.570  14.392 -0.3717 -0.4500 -2.2134
 2457TIP3   OH228861   5.724   5.347  12.944  0.3412  0.1045 -0.3394
 2457TIP3    H128862   5.693   5.297  12.869 -2.0645  0.1293  0.5514
 2457TIP3    H228863   5.677   5.430  12.939  0.6652  0.3797  0.8190
 2458TIP3   OH228864   3.171   0.660  13.076  0.0120  0.5585 -0.2221
 2458TIP3    H128865   3.171   0.635  12.984 -0.3896 -0.0604 -0.0614
 2458TIP3    H228866   3.078   0.669  13.098  0.1280  1.4569 -0.0758
 2459TIP3   OH228867   0.186   4.469  15.912 -0.2867 -0.0485  0.6976
 2459TIP3    H128868   0.237   4.469  15.831 -0.6553 -0.5241  0.4645
 2459TIP3    H228869   0.177   4.561  15.935  1.3016  0.0295  1.1300
 2460TIP3   OH228870   4.207   1.527   3.904 -0.6236  0.1165 -0.1362
 2460TIP3    H128871   4.141   1.503   3.840  0.3399 -1.8080 -0.4876
 2460TIP3    H228872   4.290   1.522   3.857  0.1057 -1.3005  1.1992
 2461TIP3   OH228873   4.282   3.289   2.914  0.9986  0.0139  0.8310
 2461TIP3    H128874   4.242   3.250   2.837  0.4155  0.9893  0.6157
 2461TIP3    H228875   4.306   3.215   2.970 -0.8769 -0.6235  0.8558
 2462TIP3   OH228876   0.778   6.246  12.475  0.2285 -0.3861 -0.7100
 2462TIP3    H128877   0.830   6.240  12.555  0.2459 -0.0326 -0.6948
 2462TIP3    H228878   0.713   6.314  12.494 -0.6201 -1.2206 -0.5106
 2463TIP3   OH228879   5.629   4.744   1.053  0.3511  0.3243 -0.1146
 2463TIP3    H128880   5.620   4.674   1.118  0.7935 -0.0413 -0.4458
 2463TIP3    H228881   5.552   4.734   0.997 -0.1902  0.8252  0.5195
 2464TIP3   OH228882   1.517   1.367   1.848 -0.3381  0.5384  0.7723
 2464TIP3    H128883   1.554   1.318   1.921 -0.3949 -0.4709  0.1362
 2464TIP3    H228884   1.487   1.449   1.887  1.5387  0.9274  1.5180
 2465TIP3   OH228885   4.140   0.007   0.599 -0.0568 -0.5883 -0.0106
 2465TIP3    H128886   4.109  -0.046   0.673  0.1738 -3.1848 -1.6485
 2465TIP3    H228887   4.164  -0.057   0.532  0.1359  1.6321 -2.2078
 2466TIP3   OH228888   1.749   2.681  15.748 -0.4088  0.1848 -0.2351
 2466TIP3    H128889   1.827   2.674  15.803 -0.1551 -0.1017 -0.6207
 2466TIP3    H228890   1.766   2.619  15.676 -0.2621  1.3069 -1.1916
 2467TIP3   OH228891   1.998   2.930   5.533 -0.0376  0.2067 -0.1739
 2467TIP3    H128892   2.070   2.992   5.523  0.0786 -0.0488 -0.9638
 2467TIP3    H228893   2.016   2.861   5.469  0.6384 -1.4394  1.6790
 2468TIP3   OH228894   2.960   6.154  11.426  0.4167  0.2262 -0.1643
 2468TIP3    H128895   3.012   6.231  11.450 -1.8966  2.0065 -0.4886
 2468TIP3    H228896   2.929   6.172  11.337 -0.9851 -0.6021  0.1229
 2469TIP3   OH228897   6.273   1.988   5.579 -0.2745 -0.1888 -0.2600
 2469TIP3    H128898   6.257   1.961   5.670  0.7046  0.3469  0.0813
 2469TIP3    H228899   6.273   1.905   5.530  0.9331 -0.6679  0.5056
 2470TIP3   OH228900   6.680   2.710  11.770 -0.2928 -0.5762 -0.2780
 2470TIP3    H128901   6.661   2.645  11.702 -0.0772 -0.3064 -0.5986
 2470TIP3    H228902   6.714   2.658  11.843 -1.4542 -0.9702  0.0026
 2471TIP3   OH228903   2.567   6.490  15.729  0.4476  0.5330  0.1186
 2471TIP3    H128904   2.577   6.570  15.779  0.7545  0.1215  0.7177
 2471TIP3    H228905   2.480   6.458  15.751  0.6743  0.2268  0.5761
 2472TIP3   OH228906   0.286   3.023   4.373 -0.1872 -0.5927  0.4375
 2472TIP3    H128907   0.223   2.961   4.337  0.4971 -0.5897 -0.8150
 2472TIP3    H228908   0.252   3.109   4.349 -0.3498 -0.5331  0.8647
 2473TIP3   OH228909   6.328   4.766  15.882  0.5482 -0.0311 -0.0408
 2473TIP3    H128910   6.284   4.816  15.812  1.0006  0.1466 -0.2029
 2473TIP3    H228911   6.416   4.803  15.886  0.7748 -0.5750  0.0887
 2474TIP3   OH228912   4.686   1.048   2.391  0.0120 -0.3928  0.1979
 2474TIP3    H128913   4.649   1.017   2.308 -0.2694 -2.5980  1.0774
 2474TIP3    H228914   4.708   1.140   2.375 -2.5654  0.0343 -1.4783
 2475TIP3   OH228915   1.436   0.880  15.835  0.5517  0.0762 -0.3981
 2475TIP3    H128916   1.479   0.965  15.824  3.0188 -1.0366 -0.1015
 2475TIP3    H228917   1.441   0.840  15.748 -0.6893  0.2191 -0.5599
 2476TIP3   OH228918   3.911   4.969   2.903  0.3601 -0.2127 -0.5480
 2476TIP3    H128919   3.824   4.989   2.870  0.4193  2.5703  0.7411
 2476TIP3    H228920   3.899   4.890   2.956 -1.1623 -0.3999 -1.1266
 2477TIP3   OH228921   4.966   5.923   5.086 -0.0505 -0.3722  0.1949
 2477TIP3    H128922   4.946   6.009   5.122 -0.1155 -0.0866 -0.5272
 2477TIP3    H228923   5.052   5.902   5.123  0.1003  0.1315  0.1402
 2478TIP3   OH228924   1.123   5.189   2.940  0.2315  0.4214 -0.0942
 2478TIP3    H128925   1.107   5.096   2.930 -0.6651  0.4635  0.8784
 2478TIP3    H228926   1.194   5.208   2.877  0.8939 -1.0235  0.1848
 2479TIP3   OH228927   2.464   4.435  11.894  0.1385  0.0668  0.6344
 2479TIP3    H128928   2.464   4.372  11.821 -0.7716  0.1568  0.5471
 2479TIP3    H228929   2.412   4.392  11.962 -0.5713  0.7599  0.5401
 2480TIP3   OH228930   3.884   5.616  15.982 -0.1500  0.0330  0.4888
 2480TIP3    H128931   3.969   5.661  15.977 -0.6711  1.0995 -5.0252
 2480TIP3    H228932   3.907   5.523  15.978  0.7824  0.2438  0.5228
 2481TIP3   OH228933   6.722   6.745   5.575 -0.2197  0.7811  0.0177
 2481TIP3    H128934   6.705   6.823   5.629 -0.9656 -0.2839  1.3905
 2481TIP3    H228935   6.818   6.741   5.568 -0.1899  2.1202 -0.5509
 2482TIP3   OH228936   0.182   5.141  12.152 -0.1297 -0.3102 -0.0968
 2482TIP3    H128937   0.189   5.131  12.247  0.1555 -0.5923 -0.1473
 2482TIP3    H228938   0.234   5.069  12.116 -0.6466 -0.4953 -0.4698
 2483TIP3   OH228939   2.023   6.621   3.913  0.3785 -0.0782 -0.0941
 2483TIP3    H128940   2.018   6.693   3.850  0.2950  0.7838  0.8705
 2483TIP3    H228941   1.944   6.570   3.898 -0.5217  1.1119  0.4601
 2484TIP3   OH228942   1.115   0.676   2.577 -0.3283 -0.7880 -0.0821
 2484TIP3    H128943   1.103   0.760   2.532 -0.8504  0.2252  1.8077
 2484TIP3    H228944   1.199   0.644   2.546 -1.1410 -0.7055 -2.5442
 2485TIP3   OH228945   2.739   5.952  16.890  0.0900 -0.0415 -0.6633
 2485TIP3    H128946   2.648   5.923  16.885 -0.0270  0.2752 -0.4156
 2485TIP3    H228947   2.773   5.940  16.801 -0.0439 -0.6343 -0.6368
 2486TIP3   OH228948   4.178   1.669  13.877  0.0073 -0.4131 -0.3094
 2486TIP3    H128949   4.143   1.728  13.811 -0.3744  0.1579  0.3794
 2486TIP3    H228950   4.270   1.693  13.884 -0.1093  0.0011 -0.1526
 2487TIP3   OH228951   1.601   0.398  12.715  0.2905  0.2712 -0.6053
 2487TIP3    H128952   1.512   0.401  12.680  0.7261  0.8350 -1.7269
 2487TIP3    H228953   1.597   0.448  12.796 -0.2886  0.8675 -0.9904
 2488TIP3   OH228954   0.325   3.370  13.160  0.1109  0.0356 -0.3864
 2488TIP3    H128955   0.344   3.448  13.212  2.1238  0.2284 -1.3132
 2488TIP3    H228956   0.381   3.379  13.083  0.6288 -2.4588 -0.3774
 2489TIP3   OH228957   4.534   1.082   1.751 -0.1450  0.2003 -0.1067
 2489TIP3    H128958   4.628   1.076   1.737  0.0511  1.9356  0.2492
 2489TIP3    H228959   4.500   1.122   1.671 -0.7928 -1.6123 -0.7834
 2490TIP3   OH228960   0.774   0.929  11.097 -0.6451  0.5069 -0.1935
 2490TIP3    H128961   0.797   0.867  11.028  1.2271 -0.3656  1.1335
 2490TIP3    H228962   0.836   1.002  11.086 -0.4955  0.4759  0.3815
 2491TIP3   OH228963   1.408   3.879  14.755 -0.8593  0.6524  0.5662
 2491TIP3    H128964   1.448   3.916  14.834 -0.2029  1.4826 -0.1281
 2491TIP3    H228965   1.357   3.951  14.718  0.9928  1.1524 -1.1819
 2492TIP3   OH228966   5.863   1.789  16.862 -0.4672  0.2335  0.3902
 2492TIP3    H128967   5.848   1.875  16.824 -1.3455  1.6520  3.6186
 2492TIP3    H228968   5.849   1.801  16.955 -2.4898 -3.8189  0.8420
 2493TIP3   OH228969   3.612   0.536   1.140 -0.6492  0.0335 -0.0102
 2493TIP3    H128970   3.603   0.504   1.050 -3.2070  0.2310  0.1118
 2493TIP3    H228971   3.650   0.463   1.188 -0.8909 -0.6952 -0.9042
 2494TIP3   OH228972   6.220   1.000  14.436  0.0231 -0.3690  0.6052
 2494TIP3    H128973   6.183   0.912  14.446 -0.8228 -0.1500 -0.4314
 2494TIP3    H228974   6.274   0.995  14.358 -0.5025  0.1833  0.2011
 2495TIP3   OH228975   3.099   4.661  15.318  0.0120  0.5898 -0.2495
 2495TIP3    H128976   3.143   4.702  15.243 -1.6939  2.8472 -0.1373
 2495TIP3    H228977   3.147   4.693  15.394  1.1183 -0.8982 -0.2724
 2496TIP3   OH228978   4.395   0.783  12.626 -0.5503 -0.4108  0.4991
 2496TIP3    H128979   4.379   0.834  12.547 -1.6874 -2.5878 -0.7823
 2496TIP3    H228980   4.308   0.765  12.661 -0.0743  0.2370  2.0846
 2497TIP3   OH228981   0.405   1.892   4.115 -0.3058  0.3239  0.0748
 2497TIP3    H128982   0.395   1.960   4.182 -0.3801  0.0023  0.3956
 2497TIP3    H228983   0.335   1.829   4.134 -2.3642  1.7589 -2.2064
 2498TIP3   OH228984   3.735   4.688   3.399  0.2673 -0.4806  0.2402
 2498TIP3    H128985   3.671   4.620   3.417 -0.7431  0.4768  0.3516
 2498TIP3    H228986   3.752   4.729   3.484 -1.2486  1.2115 -0.2162
 2499TIP3   OH228987   3.399   2.682  12.781  0.4445 -0.1314  0.4094
 2499TIP3    H128988   3.369   2.760  12.828 -1.2365 -0.2409 -0.3970
 2499TIP3    H228989   3.494   2.679  12.796  0.3551  1.3792  1.4447
 2500TIP3   OH228990   3.750   0.345  13.508  0.9013  0.1930  0.4493
 2500TIP3    H128991   3.693   0.386  13.443  1.2001 -0.8257 -0.4866
 2500TIP3    H228992   3.793   0.418  13.552  0.3592  0.9186 -0.1919
 2501TIP3   OH228993   4.694   5.852   2.218  0.5488  0.2928 -0.4762
 2501TIP3    H128994   4.619   5.816   2.171  0.2499  1.0237 -0.5831
 2501TIP3    H228995   4.669   5.943   2.236  1.7057  0.7690 -1.1616
 2502TIP3   OH228996   1.602   1.961   3.562  0.4653  0.4553 -0.5059
 2502TIP3    H128997   1.633   1.934   3.648  0.2814 -0.4432 -0.7158
 2502TIP3    H228998   1.568   1.881   3.522 -1.8185  1.2913 -0.4171
 2503TIP3   OH228999   6.718   1.391   3.715  0.6252  0.5411  0.4125
 2503TIP3    H129000   6.650   1.421   3.655 -0.8091 -0.2371  1.5792
 2503TIP3    H229001   6.788   1.456   3.707  0.5894  0.3659 -2.2058
 2504TIP3   OH229002   2.697   2.520  13.598  0.0663 -0.0089  0.0293
 2504TIP3    H129003   2.623   2.473  13.638 -0.2477 -0.2727 -0.8318
 2504TIP3    H229004   2.729   2.460  13.531 -0.5707  1.1277 -1.3449
 2505TIP3   OH229005   4.039   4.547  14.530 -0.4532  0.0605  0.1698
 2505TIP3    H129006   4.068   4.623  14.479 -0.4967 -0.1782 -0.2221
 2505TIP3    H229007   3.945   4.540  14.510  0.0699 -1.7969 -2.1279
 2506TIP3   OH229008   5.754   1.269   5.890 -0.1328 -0.3603 -0.0078
 2506TIP3    H129009   5.677   1.221   5.922 -0.7360  0.1168 -0.7272
 2506TIP3    H229010   5.810   1.277   5.967 -0.9772 -0.3784  0.6296
 2507TIP3   OH229011   5.795   3.531   1.712 -0.4322  0.3621  0.0115
 2507TIP3    H129012   5.876   3.500   1.752 -1.0675  0.1275  1.1598
 2507TIP3    H229013   5.805   3.626   1.709 -0.7225  0.4638  1.5576
 2508TIP3   OH229014   4.923   1.735   5.673  0.5464 -0.1386 -0.0644
 2508TIP3    H129015   4.890   1.752   5.761  1.9658 -1.1182  0.7078
 2508TIP3    H229016   4.867   1.786   5.615 -1.0380 -0.2411  1.3210
 2509TIP3   OH229017   0.464   0.781   1.565  0.1829 -0.1002 -0.8065
 2509TIP3    H129018   0.503   0.696   1.546 -0.5829 -0.4592 -0.7814
 2509TIP3    H229019   0.478   0.832   1.485 -1.5618 -1.0642 -1.7782
 2510TIP3   OH229020   1.475   5.524  11.478  0.0439  0.6531 -0.0110
 2510TIP3    H129021   1.499   5.435  11.502 -0.1313  1.2408  2.7032
 2510TIP3    H229022   1.380   5.528  11.491  0.0696  1.2638  0.0401
 2511TIP3   OH229023   4.426   4.547  13.767 -0.4415  0.2658 -0.1735
 2511TIP3    H129024   4.432   4.490  13.690  0.6272  0.2648 -0.0968
 2511TIP3    H229025   4.332   4.553  13.784 -0.6090 -1.1127 -0.4496
 2512TIP3   OH229026   1.144   1.087   3.048 -0.7899  0.2617 -0.4850
 2512TIP3    H129027   1.119   1.127   3.131 -0.9790 -0.3173 -0.2532
 2512TIP3    H229028   1.064   1.041   3.019  0.4130 -3.4050  1.3146
 2513TIP3   OH229029   5.935   4.229  11.140 -0.5657 -0.4681 -0.2285
 2513TIP3    H129030   5.945   4.141  11.105 -1.0617 -0.8407  0.5319
 2513TIP3    H229031   5.973   4.225  11.228 -1.7759 -0.2926  0.3226
 2514TIP3   OH229032   2.482   0.987   4.849  0.8990  0.2187  0.1317
 2514TIP3    H129033   2.550   0.957   4.788 -0.3819 -0.4788 -0.9983
 2514TIP3    H229034   2.447   1.067   4.809  0.0134 -0.2740 -0.1065
 2515TIP3   OH229035   3.719   0.079   5.476  0.3836 -0.2191  0.1291
 2515TIP3    H129036   3.812   0.057   5.474  0.3381 -0.3590 -0.5147
 2515TIP3    H229037   3.708   0.127   5.558  1.2093  0.5987 -0.2108
 2516TIP3   OH229038   5.181   2.002   2.857  0.2996  0.1155  0.2422
 2516TIP3    H129039   5.136   1.917   2.854  0.6029 -0.0533  0.4253
 2516TIP3    H229040   5.265   1.983   2.898 -0.4524  0.8566  2.2506
 2517TIP3   OH229041   4.105   1.860   0.305  0.3901 -0.0955 -0.0355
 2517TIP3    H129042   4.075   1.939   0.259  1.5137  1.3266  1.5356
 2517TIP3    H229043   4.028   1.827   0.349  0.4907  2.2110  2.1237
 2518TIP3   OH229044   4.372   5.719  13.810 -0.0824  0.3301  0.7267
 2518TIP3    H129045   4.449   5.721  13.753  0.5330 -0.1493  1.5117
 2518TIP3    H229046   4.352   5.811  13.827  0.8784  0.4564  1.2328
 2519TIP3   OH229047   1.220   2.079  12.765  0.3719  0.1559 -0.1317
 2519TIP3    H129048   1.143   2.037  12.804  0.2395  1.7068  1.3836
 2519TIP3    H229049   1.246   2.020  12.694 -1.8935 -0.6579 -0.3517
 2520TIP3   OH229050   1.205   1.043   1.620 -0.4337 -0.4631  0.2864
 2520TIP3    H129051   1.176   0.973   1.561  0.9571 -1.8012  1.1451
 2520TIP3    H229052   1.126   1.095   1.635 -1.2234 -1.1106 -1.3365
 2521TIP3   OH229053   4.134   0.723   2.524  0.2783 -0.0351  0.1523
 2521TIP3    H129054   4.184   0.695   2.447  1.2342 -1.1407  1.1105
 2521TIP3    H229055   4.177   0.804   2.552  1.5251 -0.8974  0.8806
 2522TIP3   OH229056   1.249   6.752  14.280 -0.5014  0.2846 -0.5120
 2522TIP3    H129057   1.329   6.776  14.327 -0.1509 -0.4256 -0.7242
 2522TIP3    H229058   1.236   6.823  14.218 -0.4978  0.8130  0.0917
 2523TIP3   OH229059   2.489   1.074   4.045  0.5196  0.0858 -0.1043
 2523TIP3    H129060   2.460   1.109   4.129  0.5318 -0.0394 -0.0481
 2523TIP3    H229061   2.580   1.103   4.037  0.2843  0.7550 -0.4297
 2524TIP3   OH229062   0.616   1.164  13.317  0.1427 -0.5997 -0.0756
 2524TIP3    H129063   0.576   1.212  13.389  1.5127 -0.8570  0.9086
 2524TIP3    H229064   0.646   1.231  13.257  0.0605 -0.3233  0.1903
 2525TIP3   OH229065   4.159   1.288   3.534 -0.1524  0.1031  0.2419
 2525TIP3    H129066   4.228   1.352   3.516 -1.0143  0.7088 -1.1761
 2525TIP3    H229067   4.125   1.265   3.447 -3.8243  2.2724  0.8602
 2526TIP3   OH229068   1.778   5.594   1.502  0.0060  0.0806 -0.2770
 2526TIP3    H129069   1.694   5.572   1.541  0.7348 -0.6578  0.9222
 2526TIP3    H229070   1.834   5.518   1.519  0.9219  0.5398 -1.0732
 2527TIP3   OH229071   5.122   5.175   3.102 -0.3164  0.1524 -0.0879
 2527TIP3    H129072   5.212   5.194   3.128 -0.7920  1.1869  0.8490
 2527TIP3    H229073   5.126   5.086   3.065  1.0485  0.1246  0.0902
 2528TIP3   OH229074   0.226   1.696  12.247  0.1384  0.1875  0.6679
 2528TIP3    H129075   0.216   1.603  12.270  2.1942 -0.1891  0.1895
 2528TIP3    H229076   0.268   1.735  12.323  1.4632  0.1987 -0.0423
 2529TIP3   OH229077   1.538   5.583  15.180 -0.0947  0.5993 -0.1988
 2529TIP3    H129078   1.583   5.604  15.098  1.1580 -0.0772  0.2937
 2529TIP3    H229079   1.518   5.490  15.174 -2.8759  1.1481 -1.0527
 2530TIP3   OH229080   0.386   6.737  12.963 -0.3322 -0.0740 -0.0847
 2530TIP3    H129081   0.308   6.766  13.011  0.0685 -0.7457  1.0212
 2530TIP3    H229082   0.357   6.726  12.873 -0.5345  3.7079 -0.6465
 2531TIP3   OH229083   0.279   3.055  16.983 -0.1539  0.7999 -0.3466
 2531TIP3    H129084   0.284   3.077  16.890 -0.4688 -0.4969 -0.6803
 2531TIP3    H229085   0.366   3.022  17.005  0.0455  1.4768 -0.0560
 2532TIP3   OH229086   5.774   0.637  15.390  0.1245 -0.7111  0.1148
 2532TIP3    H129087   5.700   0.623  15.448 -0.9401  2.6520 -0.1818
 2532TIP3    H229088   5.850   0.645  15.449 -0.5189  0.1507  0.8493
 2533TIP3   OH229089   5.133   4.312   0.663  0.2370  0.3433  0.1862
 2533TIP3    H129090   5.115   4.278   0.751 -2.5052  2.4919  0.5825
 2533TIP3    H229091   5.074   4.263   0.606  0.6354  0.2909 -0.1908
 2534TIP3   OH229092   2.033   3.743  14.437  0.7214 -0.1801  0.3949
 2534TIP3    H129093   2.112   3.796  14.451 -0.3405  1.8199 -0.7047
 2534TIP3    H229094   1.961   3.804  14.454 -0.6196 -1.9840  1.4457
 2535TIP3   OH229095   1.605   3.118  10.950 -0.1973 -0.2554  0.2947
 2535TIP3    H129096   1.646   3.083  10.871 -0.7716  0.2574 -0.2551
 2535TIP3    H229097   1.543   3.184  10.916  0.5977  1.0191  1.2546
 2536TIP3   OH229098   0.913   6.466  12.186 -0.1537 -0.0223 -0.0725
 2536TIP3    H129099   0.848   6.447  12.253 -0.4088  0.3497 -0.2138
 2536TIP3    H229100   0.932   6.559  12.195  1.6804 -0.4595  1.1255
 2537TIP3   OH229101   5.094   0.407   5.721 -0.3379 -0.2485  0.2791
 2537TIP3    H129102   5.165   0.398   5.658 -0.9579  1.0998 -0.6599
 2537TIP3    H229103   5.136   0.438   5.802  0.1302  0.7998 -0.3453
 2538TIP3   OH229104   3.057   3.289  16.178  0.4394 -0.4892  1.1517
 2538TIP3    H129105   3.142   3.294  16.222  0.9396  0.5404  0.1392
 2538TIP3    H229106   3.075   3.244  16.096 -0.3129 -1.6340  1.5928
 2539TIP3   OH229107   6.189   0.885   3.408 -0.2256 -0.4805 -0.0853
 2539TIP3    H129108   6.129   0.942   3.361 -0.0207 -0.7538 -0.6878
 2539TIP3    H229109   6.139   0.806   3.425 -0.2010 -0.5020 -0.1142
 2540TIP3   OH229110   4.445   3.368  12.935 -0.3118  0.6770 -0.2615
 2540TIP3    H129111   4.530   3.411  12.929 -0.0877  0.1421 -1.0756
 2540TIP3    H229112   4.399   3.396  12.856 -0.8491  0.8701  0.1162
 2541TIP3   OH229113   5.762   4.441   1.899 -0.1307  0.4889  0.5315
 2541TIP3    H129114   5.810   4.359   1.887 -0.6101  0.1778  0.7317
 2541TIP3    H229115   5.707   4.426   1.976 -0.2919  0.9663  0.5117
 2542TIP3   OH229116   5.628   4.222   2.049 -0.3456  0.3000 -0.6652
 2542TIP3    H129117   5.563   4.231   1.980  0.7794 -2.1359 -2.1756
 2542TIP3    H229118   5.631   4.128   2.068  1.1742  0.6038  0.9112
 2543TIP3   OH229119   0.910   6.032  10.942 -0.0108  0.2840  0.2344
 2543TIP3    H129120   0.908   5.938  10.923 -3.4007 -0.3184  2.6760
 2543TIP3    H229121   0.842   6.069  10.885 -0.4293  0.7933  1.0431
 2544TIP3   OH229122   1.581   1.074   2.718  0.3212 -0.2141 -0.0464
 2544TIP3    H129123   1.667   1.070   2.760  0.0530  0.6551  0.6195
 2544TIP3    H229124   1.597   1.047   2.627  2.1801  4.0612 -1.2283
 2545TIP3   OH229125   6.462   5.148  14.411  0.3058 -0.0230  0.4213
 2545TIP3    H129126   6.550   5.183  14.410  1.0668 -1.7714  1.7327
 2545TIP3    H229127   6.456   5.097  14.330  0.8101 -0.5919  0.7366
 2546TIP3   OH229128   6.805   5.326  12.144  0.0709 -0.1196 -0.5896
 2546TIP3    H129129   6.852   5.245  12.165 -0.4678 -1.1003 -2.8687
 2546TIP3    H229130   6.751   5.303  12.068 -1.6146  1.8599 -0.0713
 2547TIP3   OH229131   0.641   2.445  14.945  0.4607  0.1559 -0.1339
 2547TIP3    H129132   0.698   2.394  15.003  0.2377  0.6655  0.5429
 2547TIP3    H229133   0.594   2.379  14.894 -0.8043 -0.3847  1.6522
 2548TIP3   OH229134   2.565   0.904   2.478 -0.1747 -0.2313 -0.2606
 2548TIP3    H129135   2.565   0.922   2.384 -0.1846  0.0160 -0.2134
 2548TIP3    H229136   2.513   0.975   2.516 -2.9387 -2.0279 -0.4041
 2549TIP3   OH229137   1.269   3.218  13.293  0.0545 -0.0610 -0.3164
 2549TIP3    H129138   1.195   3.244  13.348 -0.4628 -1.7310 -0.1665
 2549TIP3    H229139   1.345   3.223  13.352 -0.4048 -1.2533  0.4136
 2550TIP3   OH229140   4.161   2.765  16.520  0.2332 -0.0332 -0.0904
 2550TIP3    H129141   4.179   2.799  16.432  0.8494  0.6702  0.2887
 2550TIP3    H229142   4.073   2.729  16.515  0.0788  0.4302 -0.8751
 2551TIP3   OH229143   2.716   1.351  11.819  0.2129  0.0707  0.2502
 2551TIP3    H129144   2.631   1.371  11.780 -0.4001 -1.0252  0.9654
 2551TIP3    H229145   2.778   1.354  11.746 -0.5836  0.0273 -0.4390
 2552TIP3   OH229146   5.941   4.759  17.234 -0.5961  0.2086  0.4462
 2552TIP3    H129147   6.032   4.784  17.245 -0.0547 -0.7823 -1.3160
 2552TIP3    H229148   5.910   4.739  17.322  0.5958  1.4386  1.1715
 2553TIP3   OH229149   2.852   0.409  16.416 -0.1457  0.1596 -0.5865
 2553TIP3    H129150   2.800   0.463  16.355 -0.4977  1.0176  0.4410
 2553TIP3    H229151   2.856   0.461  16.496  0.7213 -0.7415 -0.0252
 2554TIP3   OH229152   5.848   3.789   4.513  0.4669  0.1137  0.2608
 2554TIP3    H129153   5.833   3.772   4.420 -2.2331  2.0404  0.2105
 2554TIP3    H229154   5.943   3.783   4.523  0.7118 -1.9610 -2.1867
 2555TIP3   OH229155   5.822   5.393   5.040  0.1760  0.0787 -0.0370
 2555TIP3    H129156   5.906   5.360   5.006  0.2256 -0.7202  0.8010
 2555TIP3    H229157   5.757   5.362   4.978  0.2714 -1.3181  0.5032
 2556TIP3   OH229158   3.769   0.641   1.718 -0.1923 -0.5200  0.3371
 2556TIP3    H129159   3.793   0.571   1.778  1.0381 -0.8573 -0.5073
 2556TIP3    H229160   3.692   0.682   1.758  1.1956 -0.0329  2.7012
 2557TIP3   OH229161   4.924   4.685  13.183 -0.2313  0.2360  0.0335
 2557TIP3    H129162   4.881   4.604  13.155  0.5739 -0.3245  0.3919
 2557TIP3    H229163   4.919   4.741  13.106  1.3622 -1.0521 -1.0801
 2558TIP3   OH229164   0.010   1.334  15.250  0.0747  0.0503  0.7135
 2558TIP3    H129165  -0.084   1.320  15.246 -0.1326  1.5411 -0.7818
 2558TIP3    H229166   0.045   1.251  15.283 -1.6472 -0.9871  0.0709
 2559TIP3   OH229167   5.172   3.456   3.759  0.0870  0.8938 -0.4700
 2559TIP3    H129168   5.262   3.485   3.772  0.3792  0.5123 -1.5647
 2559TIP3    H229169   5.129   3.530   3.715 -0.2138  1.1728  0.2709
 2560TIP3   OH229170   1.321   6.520  12.443  0.0518 -0.3243  0.5505
 2560TIP3    H129171   1.339   6.606  12.481  1.3276 -1.2182  2.1339
 2560TIP3    H229172   1.408   6.485  12.420 -0.1523 -2.1323  2.2365
 2561TIP3   OH229173   3.553   0.337  17.228 -0.3307 -0.2304  0.4370
 2561TIP3    H129174   3.466   0.330  17.268 -1.6973  3.4067 -1.3909
 2561TIP3    H229175   3.601   0.397  17.285 -0.0124 -0.0619 -0.0046
 2562TIP3   OH229176   5.740   4.020   2.324  0.3413  0.2517  0.1450
 2562TIP3    H129177   5.811   4.038   2.263 -0.5852 -1.3699 -1.5279
 2562TIP3    H229178   5.667   4.073   2.293  0.2054  0.3095  0.5543
 2563TIP3   OH229179   1.121   6.332   4.526  0.1180  0.0701 -0.2411
 2563TIP3    H129180   1.047   6.333   4.586 -0.3582 -0.5694 -0.8023
 2563TIP3    H229181   1.161   6.419   4.535  0.5928 -0.3019  1.6227
 2564TIP3   OH229182   2.724   1.660  11.806  0.2222  0.5969  0.1306
 2564TIP3    H129183   2.801   1.694  11.762 -0.9876  1.3026 -1.5829
 2564TIP3    H229184   2.671   1.622  11.735 -1.3848  0.9208  1.1014
 2565TIP3   OH229185   3.350   2.679  16.693 -0.6997  0.6727  0.6954
 2565TIP3    H129186   3.341   2.629  16.775  0.9320  0.0413  0.5262
 2565TIP3    H229187   3.316   2.620  16.626  2.2337 -0.7920  0.3447
 2566TIP3   OH229188   4.784   1.002   2.011 -0.0043  0.2376  0.0399
 2566TIP3    H129189   4.699   0.965   2.035 -0.6130 -0.1047 -2.3833
 2566TIP3    H229190   4.775   1.023   1.918  2.3122  0.9558 -0.0687
 2567TIP3   OH229191   6.444   3.964  12.144  0.4934  0.2660 -0.2512
 2567TIP3    H129192   6.475   3.892  12.090  0.0557  0.4600 -0.7641
 2567TIP3    H229193   6.477   3.943  12.232  1.4267  0.0826 -0.6297
 2568TIP3   OH229194   5.769   3.559  13.905 -0.0550 -0.5159  0.1775
 2568TIP3    H129195   5.744   3.467  13.897  1.1403 -1.0771  2.2212
 2568TIP3    H229196   5.686   3.607  13.908 -0.9950 -2.0282  3.8047
 2569TIP3   OH229197   3.660   1.241   3.665 -0.3733  0.1720 -0.4844
 2569TIP3    H129198   3.685   1.261   3.755  2.0637  0.0006 -1.0290
 2569TIP3    H229199   3.659   1.145   3.660  0.0246  0.1774 -0.7486
 2570TIP3   OH229200   2.030   5.436   6.445 -0.1300 -0.4414  0.3554
 2570TIP3    H129201   1.946   5.390   6.454  1.0065 -2.3130  2.3523
 2570TIP3    H229202   2.007   5.529   6.448 -2.2466 -0.8496 -0.8872
 2571TIP3   OH229203   1.580   2.087  14.516  0.6024  0.5322 -0.6185
 2571TIP3    H129204   1.513   2.077  14.448  0.8266 -0.1221 -0.7574
 2571TIP3    H229205   1.614   2.175  14.504  0.4832  0.5020 -1.2178
 2572TIP3   OH229206   2.010   1.575   4.673 -0.1722  0.7381 -0.0698
 2572TIP3    H129207   2.076   1.643   4.657  1.6643 -0.9914 -0.1695
 2572TIP3    H229208   1.928   1.614   4.640  1.0152  2.4470 -1.2100
 2573TIP3   OH229209   4.363   6.759  16.534 -0.1355 -0.3110  0.1050
 2573TIP3    H129210   4.277   6.802  16.534 -0.1028 -0.2457  0.0283
 2573TIP3    H229211   4.375   6.732  16.625 -0.0189  0.1180  0.2193
 2574TIP3   OH229212   6.604   2.587   5.001  0.2500 -0.0831  0.0175
 2574TIP3    H129213   6.645   2.507   5.035  0.9446  1.0880  2.1053
 2574TIP3    H229214   6.654   2.658   5.041 -2.9038  1.4354  1.6497
 2575TIP3   OH229215   4.352   1.643  14.763 -0.2712  0.5528 -0.5453
 2575TIP3    H129216   4.390   1.609  14.682 -0.9645 -3.4892  0.5754
 2575TIP3    H229217   4.263   1.669  14.740 -0.6913 -1.2077 -1.0176
 2576TIP3   OH229218   0.903   1.616   2.914 -0.0699 -0.0859 -0.1371
 2576TIP3    H129219   0.909   1.569   2.831 -1.3402 -1.2886  0.4115
 2576TIP3    H229220   0.952   1.561   2.976 -1.6709 -0.7947  0.5395
 2577TIP3   OH229221   5.992   4.813   3.850 -0.1536  0.5518  0.1603
 2577TIP3    H129222   6.036   4.898   3.852 -0.6983  0.8454 -0.2953
 2577TIP3    H229223   6.026   4.767   3.927  0.1513  1.1769  0.4039
 2578TIP3   OH229224   4.790   4.711  12.277  0.1873  0.5375 -0.1210
 2578TIP3    H129225   4.742   4.705  12.194 -1.9944 -0.2197  1.1259
 2578TIP3    H229226   4.787   4.804  12.299  1.1837  0.8172 -1.0874
 2579TIP3   OH229227   2.127   5.302   6.217  0.4206 -0.7484 -0.0631
 2579TIP3    H129228   2.126   5.217   6.261  0.3448 -0.6984  0.0344
 2579TIP3    H229229   2.112   5.365   6.288 -0.6448 -0.7270 -0.2868
 2580TIP3   OH229230   2.614   5.805   4.952  0.0484 -0.3287 -0.6695
 2580TIP3    H129231   2.582   5.894   4.961  0.1518 -0.3972  0.5676
 2580TIP3    H229232   2.673   5.793   5.027  0.5224 -1.2268 -1.1678
 2581TIP3   OH229233   6.540   1.197  12.712  0.4294  0.4023  0.5410
 2581TIP3    H129234   6.460   1.217  12.761  0.8518  1.0574  0.9809
 2581TIP3    H229235   6.558   1.277  12.663  0.6246  0.1367  0.1791
 2582TIP3   OH229236   2.662   4.748  12.459  0.5071 -0.5268 -0.7311
 2582TIP3    H129237   2.644   4.745  12.365  0.8545 -2.5603 -0.7888
 2582TIP3    H229238   2.753   4.717  12.467  0.3102 -0.8766  0.2987
 2583TIP3   OH229239   4.449   4.128  11.883 -0.7463  0.0557 -0.3985
 2583TIP3    H129240   4.476   4.072  11.955 -0.6027  1.5568  0.7724
 2583TIP3    H229241   4.522   4.124  11.821  1.0334  1.8283  1.4182
 2584TIP3   OH229242   4.977   6.016   0.046  0.5416  0.3376 -0.5168
 2584TIP3    H129243   5.035   6.092   0.056 -1.2369  1.8603 -1.1126
 2584TIP3    H229244   4.955   6.015  -0.047  0.1350 -0.6221 -0.4194
 2585TIP3   OH229245   4.331   5.184  16.706  0.1448 -0.1247 -0.8262
 2585TIP3    H129246   4.247   5.139  16.699  0.5408 -0.9890 -0.1708
 2585TIP3    H229247   4.383   5.147  16.635  0.4011 -0.5583 -0.4177
 2586TIP3   OH229248   1.008   4.142  16.511 -0.2004  0.5169  0.1052
 2586TIP3    H129249   0.951   4.211  16.476 -1.6428 -0.9562 -0.5901
 2586TIP3    H229250   1.010   4.158  16.605  0.3634  2.1077 -0.1385
 2587TIP3   OH229251   5.137   0.406   2.063 -0.0808 -0.4322 -0.0226
 2587TIP3    H129252   5.227   0.398   2.033  0.5789  0.2211  1.6409
 2587TIP3    H229253   5.099   0.477   2.012  0.7543  0.1497  0.1646
 2588TIP3   OH229254   2.504   4.716   2.673  0.2933  0.0756 -0.4070
 2588TIP3    H129255   2.470   4.786   2.729  0.8516 -1.0385  1.4160
 2588TIP3    H229256   2.489   4.636   2.724  2.6793 -0.7746 -0.9432
 2589TIP3   OH229257   3.584   4.583   5.870 -0.2213  0.4825 -0.0332
 2589TIP3    H129258   3.506   4.582   5.815 -0.3539 -1.4846  0.1108
 2589TIP3    H229259   3.640   4.514   5.834  0.0196 -0.3543  1.7900
 2590TIP3   OH229260   1.939   0.162  16.852  0.4750 -0.3269  0.2703
 2590TIP3    H129261   2.012   0.102  16.866  0.8539  0.2323  0.7693
 2590TIP3    H229262   1.931   0.210  16.935 -0.7419 -0.6727  0.3740
 2591TIP3   OH229263   3.100   2.641   4.599  0.7378  0.1034 -0.1380
 2591TIP3    H129264   3.178   2.611   4.645 -0.3010 -0.9259  1.0279
 2591TIP3    H229265   3.115   2.735   4.586  1.1976  0.4169  2.1514
 2592TIP3   OH229266   3.273   1.226  16.240  0.9648  0.0165  0.0784
 2592TIP3    H129267   3.329   1.174  16.183  0.3360  0.0394 -0.5777
 2592TIP3    H229268   3.187   1.222  16.199  0.3974 -0.2953  1.2369
 2593TIP3   OH229269   0.374   0.887  13.739 -0.0458  0.1439  0.3120
 2593TIP3    H129270   0.395   0.918  13.827 -0.5140  1.4956 -0.0175
 2593TIP3    H229271   0.404   0.958  13.682 -3.1004  1.0515 -0.3383
 2594TIP3   OH229272   6.661   1.601   4.705  0.0059  0.3340  0.2558
 2594TIP3    H129273   6.604   1.634   4.775 -0.6053 -0.3060  0.0821
 2594TIP3    H229274   6.683   1.512   4.733  0.0689  0.2125 -0.1842
 2595TIP3   OH229275   5.034   6.645   5.109  0.0453 -0.6694  0.0947
 2595TIP3    H129276   5.102   6.604   5.163 -0.0011 -0.3859  0.3694
 2595TIP3    H229277   4.960   6.657   5.168 -0.8454 -2.4530 -0.5907
 2596TIP3   OH229278   0.206   4.538   4.220 -0.3610 -0.3290  0.3095
 2596TIP3    H129279   0.236   4.598   4.289 -1.7028  0.3035  0.3861
 2596TIP3    H229280   0.280   4.480   4.205  1.0707  1.4587  0.0940
 2597TIP3   OH229281   3.877   2.070   3.877 -0.3044  0.4554  0.0329
 2597TIP3    H129282   3.850   2.149   3.830  0.3749  0.2840 -0.6505
 2597TIP3    H229283   3.954   2.038   3.830  0.4216  0.3006  1.2899
 2598TIP3   OH229284   1.966   4.994   2.512  0.5568  0.1612 -0.8226
 2598TIP3    H129285   1.971   5.061   2.444  0.1150  2.3248  1.1358
 2598TIP3    H229286   1.875   4.998   2.543  1.4094  1.4151  1.8503
 2599TIP3   OH229287   1.473   5.573   1.753  0.2218 -0.0436  0.3646
 2599TIP3    H129288   1.381   5.576   1.780 -0.0842 -1.7842 -0.3697
 2599TIP3    H229289   1.473   5.522   1.672  1.5755  1.8497 -0.9155
 2600TIP3   OH229290   3.236   2.948   1.182  0.1120  0.3411  0.0386
 2600TIP3    H129291   3.216   2.925   1.091  1.4068  0.2124 -0.2422
 2600TIP3    H229292   3.153   2.975   1.219 -0.5405 -0.1250 -1.0380
 2601TIP3   OH229293   3.438   3.095   2.296  0.0561 -0.6576  0.6013
 2601TIP3    H129294   3.384   3.144   2.358 -0.5983  0.9737 -1.1641
 2601TIP3    H229295   3.385   3.089   2.217  1.2601 -1.7750 -0.1644
 2602TIP3   OH229296   0.050   4.387  12.740  0.4431  0.0516 -0.0019
 2602TIP3    H129297   0.007   4.428  12.664  0.6780 -1.0766 -0.7685
 2602TIP3    H229298   0.139   4.368  12.709 -0.0553 -2.2950 -0.1753
 2603TIP3   OH229299   1.272   1.837   0.286 -0.1844 -0.3708  0.0680
 2603TIP3    H129300   1.249   1.754   0.329  0.5832  0.8687  3.0850
 2603TIP3    H229301   1.365   1.828   0.266 -0.4404 -0.7742 -0.9994
 2604TIP3   OH229302   5.084   0.193  13.186 -0.7942 -0.3862  0.8130
 2604TIP3    H129303   5.139   0.250  13.132  2.7575 -0.8835  3.4809
 2604TIP3    H229304   5.008   0.246  13.207 -0.3351  1.2528 -1.2971
 2605TIP3   OH229305   4.183   4.825   4.225 -0.1360 -0.0824  0.4990
 2605TIP3    H129306   4.178   4.870   4.309  3.0591 -0.6026  1.0720
 2605TIP3    H229307   4.137   4.742   4.240 -0.2676  0.1560  1.4926
 2606TIP3   OH229308   2.465   2.306   4.648 -0.3969 -0.2627 -0.0118
 2606TIP3    H129309   2.530   2.310   4.578  0.2610 -0.0231  0.6093
 2606TIP3    H229310   2.454   2.212   4.665 -0.6172 -0.3256 -0.4826
 2607TIP3   OH229311   0.797   3.159   0.001 -0.9343  0.3225 -0.2952
 2607TIP3    H129312   0.853   3.230   0.034  0.9331 -0.9388 -0.6026
 2607TIP3    H229313   0.741   3.137   0.074  0.1782  0.4606  0.6249
 2608TIP3   OH229314   3.762   3.975  17.034  0.0349  0.8721  0.0631
 2608TIP3    H129315   3.748   3.881  17.046 -1.6004  1.1090  0.1600
 2608TIP3    H229316   3.815   3.981  16.954 -0.2583 -0.1111 -0.2219
 2609TIP3   OH229317   6.398   3.519   3.051  0.3318 -0.2691  0.0435
 2609TIP3    H129318   6.470   3.543   3.109  0.2074  0.2768 -0.0220
 2609TIP3    H229319   6.339   3.594   3.054 -2.2206 -2.1670  3.1180
 2610TIP3   OH229320   0.040   5.256   1.205  0.2781  0.0276 -0.3086
 2610TIP3    H129321   0.059   5.163   1.214 -1.2866 -0.3227 -0.2900
 2610TIP3    H229322  -0.048   5.266   1.241 -0.6661  1.0338 -2.6552
 2611TIP3   OH229323   4.539   4.078  16.258 -0.1855  0.2210 -0.8618
 2611TIP3    H129324   4.533   3.997  16.309 -0.2517  0.5895 -0.2718
 2611TIP3    H229325   4.492   4.059  16.177 -0.4366 -0.2459 -0.6130
 2612TIP3   OH229326   6.685   1.491   4.054 -0.2904  0.6918  0.3278
 2612TIP3    H129327   6.699   1.396   4.051  2.4389  0.9913  1.4371
 2612TIP3    H229328   6.706   1.521   3.966 -0.2179  0.3937  0.2432
 2613TIP3   OH229329   0.839   6.018   0.740 -0.5210 -0.4618 -0.0826
 2613TIP3    H129330   0.914   5.986   0.791  0.5900  1.8221 -0.1510
 2613TIP3    H229331   0.764   6.006   0.798  0.0776 -1.5625  0.5107
 2614TIP3   OH229332   4.814   0.822   0.828 -0.1178 -0.6537 -0.0732
 2614TIP3    H129333   4.787   0.738   0.791 -0.3846 -0.4693 -0.3019
 2614TIP3    H229334   4.866   0.799   0.905 -1.6932 -1.0047  0.9314
 2615TIP3   OH229335   3.395   4.471   3.141  0.0168  0.1752  0.0941
 2615TIP3    H129336   3.362   4.529   3.209  0.8568  1.0475 -0.2093
 2615TIP3    H229337   3.490   4.472   3.153  0.1373 -0.0389 -0.7780
 2616TIP3   OH229338   5.511   0.982   0.532  0.0555  0.2054 -0.5700
 2616TIP3    H129339   5.585   1.023   0.487 -0.2555  0.5181 -0.7994
 2616TIP3    H229340   5.542   0.968   0.621  1.0805 -1.4695 -1.1399
 2617TIP3   OH229341   0.204   2.768  11.491  0.1570  0.2039 -0.4540
 2617TIP3    H129342   0.294   2.772  11.457  1.0862  1.7068  1.9446
 2617TIP3    H229343   0.181   2.676  11.486  1.5718 -0.1299 -1.6818
 2618TIP3   OH229344   2.918   1.576   0.436 -0.0600  0.4592  0.0362
 2618TIP3    H129345   2.996   1.556   0.384  2.1286  1.6426  2.6386
 2618TIP3    H229346   2.897   1.495   0.481  1.8419  0.9102  1.8937
 2619TIP3   OH229347   4.487   2.615  13.370 -0.0408 -0.1830  0.2289
 2619TIP3    H129348   4.483   2.520  13.357  1.1247 -0.1936 -0.2514
 2619TIP3    H229349   4.454   2.629  13.458 -2.1712 -0.8089 -0.4001
 2620TIP3   OH229350   4.541   4.082  11.068  0.2036  0.2579  0.2666
 2620TIP3    H129351   4.605   4.115  11.006  0.1016  0.0341  0.0406
 2620TIP3    H229352   4.472   4.148  11.070 -0.8314 -0.6965 -1.4592
 2621TIP3   OH229353   2.527   6.150  12.943  0.5079  0.0321 -0.9725
 2621TIP3    H129354   2.565   6.111  12.864 -1.0169 -3.1743 -0.2915
 2621TIP3    H229355   2.441   6.180  12.916 -0.0079 -1.0500 -0.5590
 2622TIP3   OH229356   1.827   0.227  13.220  0.4922  0.1362 -0.1961
 2622TIP3    H129357   1.908   0.191  13.257 -0.0783 -0.1039  0.8543
 2622TIP3    H229358   1.760   0.208  13.286 -0.1203  1.7515 -0.3115
 2623TIP3   OH229359   0.343   6.731   6.136 -0.0675 -0.4052 -0.6632
 2623TIP3    H129360   0.405   6.781   6.082 -0.6018  3.0351  1.6229
 2623TIP3    H229361   0.270   6.713   6.076  0.0189  1.9406 -1.6182
 2624TIP3   OH229362   0.748   5.172  11.095  0.5910 -0.5735 -0.4786
 2624TIP3    H129363   0.775   5.236  11.161  2.0382 -2.2846  0.6725
 2624TIP3    H229364   0.737   5.224  11.015  0.8612  1.2337  0.5959
 2625TIP3   OH229365   5.017   1.367   1.120  0.2466 -0.7419 -0.1663
 2625TIP3    H129366   5.096   1.314   1.122  0.7825  0.0535  0.9181
 2625TIP3    H229367   4.945   1.304   1.111  0.8491 -1.6530  1.1717
 2626TIP3   OH229368   1.199   1.141   0.187  0.0818  0.0196 -0.2187
 2626TIP3    H129369   1.169   1.102   0.269  0.0182  2.1444  0.8353
 2626TIP3    H229370   1.286   1.105   0.173 -0.9458 -2.4414 -0.7061
 2627TIP3   OH229371   0.322   4.891   0.442 -0.5799  0.5388 -0.1888
 2627TIP3    H129372   0.269   4.971   0.443  0.4430  1.2460  0.0259
 2627TIP3    H229373   0.410   4.921   0.468 -0.4665 -0.8866  1.2034
 2628TIP3   OH229374   3.529   5.364   5.306 -0.2089 -0.5217 -0.0864
 2628TIP3    H129375   3.507   5.284   5.352 -1.0301  0.3531  1.0869
 2628TIP3    H229376   3.448   5.414   5.304  0.5743  0.8265  0.3204
 2629TIP3   OH229377   2.763   6.624   1.177  0.4428  0.5677 -0.0384
 2629TIP3    H129378   2.692   6.561   1.187  1.9511 -1.3345 -0.6663
 2629TIP3    H229379   2.743   6.670   1.095 -0.3793  0.5139  0.1283
 2630TIP3   OH229380   3.501   1.061  12.993 -0.0504  0.0931  0.3533
 2630TIP3    H129381   3.473   1.022  12.910 -3.1645 -0.5209  1.5593
 2630TIP3    H229382   3.499   1.155  12.977  1.1494 -0.0390 -0.7340
 2631TIP3   OH229383   5.160   6.713   2.610 -0.0095  0.2030  0.5015
 2631TIP3    H129384   5.166   6.712   2.705  1.7231  0.2734  0.4280
 2631TIP3    H229385   5.203   6.632   2.582 -0.9759 -0.0850 -0.2173
 2632TIP3   OH229386   2.963   2.238   0.092 -0.0842 -0.0823 -0.4428
 2632TIP3    H129387   2.895   2.174   0.109  0.8750 -0.9405  0.3481
 2632TIP3    H229388   2.917   2.322   0.087 -1.4701 -0.8867 -2.3872
 2633TIP3   OH229389   3.048   0.097   6.287  0.6802 -0.3667 -0.0996
 2633TIP3    H129390   3.021   0.144   6.367 -0.9448 -0.6629 -0.4341
 2633TIP3    H229391   3.005   0.144   6.216 -1.4959 -2.6152 -0.4086
 2634TIP3   OH229392   6.743   2.194  14.903 -0.0278  0.7908 -0.5345
 2634TIP3    H129393   6.730   2.212  14.810  0.8240 -0.7384 -0.9806
 2634TIP3    H229394   6.731   2.099  14.911  0.8652  0.7671  0.7412
 2635TIP3   OH229395   1.336   3.524   4.592  0.0931  0.2560  0.3708
 2635TIP3    H129396   1.305   3.440   4.625  0.9499  0.0908  0.7837
 2635TIP3    H229397   1.297   3.533   4.505 -0.2262 -0.4362  0.4439
 2636TIP3   OH229398   0.426   5.593  15.840  0.0153  0.1304 -0.3873
 2636TIP3    H129399   0.486   5.613  15.768 -0.4500  1.2602 -0.4918
 2636TIP3    H229400   0.342   5.578  15.798  0.2915 -1.9343 -0.2822
 2637TIP3   OH229401   3.352   0.475   0.915  0.1360  0.0452 -0.1823
 2637TIP3    H129402   3.436   0.458   0.874 -0.3989 -2.9245 -0.2569
 2637TIP3    H229403   3.293   0.495   0.842  0.3596  0.1339 -0.3374
 2638TIP3   OH229404   3.302   1.953   2.046 -0.0398  0.5481  0.7693
 2638TIP3    H129405   3.219   1.967   2.001 -1.3702  0.2699  2.9592
 2638TIP3    H229406   3.312   2.030   2.102  1.7928  1.1226 -0.2939
 2639TIP3   OH229407   1.901   1.801   4.519 -0.1445  0.8392 -0.0676
 2639TIP3    H129408   1.966   1.865   4.488 -2.7914  2.9863 -1.6297
 2639TIP3    H229409   1.877   1.751   4.442  1.3381 -1.7204  0.9975
 2640TIP3   OH229410   6.733   4.006   3.475 -0.5272  0.0237 -0.1446
 2640TIP3    H129411   6.693   4.013   3.562 -1.4409  1.4575 -0.6473
 2640TIP3    H229412   6.826   3.992   3.493 -0.9549 -1.6545  1.0424
 2641TIP3   OH229413   5.734   1.103   2.487 -0.7442 -0.1269  0.2930
 2641TIP3    H129414   5.823   1.073   2.469 -0.5206  1.0897 -0.7071
 2641TIP3    H229415   5.743   1.195   2.510 -1.7168 -0.0552  0.4499
 2642TIP3   OH229416   2.895   2.390   3.798  0.2964 -0.0515  0.6487
 2642TIP3    H129417   2.810   2.388   3.841 -1.0819  0.6241 -1.8385
 2642TIP3    H229418   2.950   2.333   3.852 -1.7523 -0.6463  2.2531
 2643TIP3   OH229419   4.704   6.356   1.814 -0.4467  0.2057 -0.3909
 2643TIP3    H129420   4.667   6.377   1.900 -0.3004 -0.9496 -0.0233
 2643TIP3    H229421   4.676   6.427   1.757 -0.7067  0.8892  0.5737
 2644TIP3   OH229422   5.268   0.285   6.188  0.3833  0.3004  0.0262
 2644TIP3    H129423   5.321   0.345   6.240  0.5457 -0.9268  1.3426
 2644TIP3    H229424   5.184   0.281   6.235  0.4781 -0.7098  0.1259
 2645TIP3   OH229425   2.661   6.761  12.088 -0.3302  0.0963  0.6057
 2645TIP3    H129426   2.634   6.697  12.021  1.4219  1.1888 -1.2762
 2645TIP3    H229427   2.602   6.835  12.075  1.4016  1.2368 -1.4112
 2646TIP3   OH229428   0.771   6.262   6.239  0.4875 -0.6638 -0.2801
 2646TIP3    H129429   0.819   6.205   6.179 -0.9652 -3.1104  0.7098
 2646TIP3    H229430   0.812   6.246   6.324  1.1277  1.1328 -0.1961
 2647TIP3   OH229431   3.091   0.071   0.081  0.0569 -0.1388 -0.1066
 2647TIP3    H129432   3.184   0.085   0.097  0.4355 -0.9429 -1.3899
 2647TIP3    H229433   3.052   0.064   0.168  1.4057 -0.9770  0.4693
 2648TIP3   OH229434   5.506   6.348  15.814 -0.1245 -0.3283  0.2401
 2648TIP3    H129435   5.550   6.431  15.833 -0.4704 -0.1981  0.4749
 2648TIP3    H229436   5.416   6.361  15.844 -1.1925  0.4560 -2.9245
 2649TIP3   OH229437   1.202   0.482  11.549 -0.7637  0.5312  0.4986
 2649TIP3    H129438   1.278   0.535  11.571  0.5651  0.0862 -2.4551
 2649TIP3    H229439   1.234   0.392  11.551 -1.0735  0.3602 -1.0482
 2650TIP3   OH229440   5.622   0.529   1.343 -0.0619 -0.8942  0.3339
 2650TIP3    H129441   5.555   0.502   1.406  0.3277  1.6290  1.9339
 2650TIP3    H229442   5.699   0.476   1.366 -0.5252 -1.4705  0.5980
 2651TIP3   OH229443   4.439   1.445  11.262  0.1573 -0.0388  0.0866
 2651TIP3    H129444   4.420   1.425  11.354 -0.6985 -0.2920 -0.1322
 2651TIP3    H229445   4.498   1.376  11.234  0.8556  0.3421  0.5896
 2652TIP3   OH229446   3.393   1.616  15.834 -0.0473  0.5597  0.3383
 2652TIP3    H129447   3.424   1.528  15.858  0.7238  0.3911 -1.1802
 2652TIP3    H229448   3.333   1.640  15.905  0.1769 -0.9487  1.0800
 2653TIP3   OH229449   1.415   4.499   4.399  0.2498  0.5626  0.4341
 2653TIP3    H129450   1.473   4.459   4.334 -0.4812  1.2640 -0.6896
 2653TIP3    H229451   1.363   4.425   4.433  0.4231  0.2272 -0.0119
 2654TIP3   OH229452   1.371   2.379   1.307 -0.0232 -0.3018  0.5196
 2654TIP3    H129453   1.281   2.397   1.282  0.5530  1.4361 -0.4660
 2654TIP3    H229454   1.394   2.298   1.262 -0.7494 -0.1746 -0.0804
 2655TIP3   OH229455   2.207   6.347   3.944 -0.5679  0.0099 -0.8839
 2655TIP3    H129456   2.241   6.321   3.858 -0.1245 -0.1068 -0.6736
 2655TIP3    H229457   2.172   6.436   3.929  0.3278  0.3526 -0.9747
 2656TIP3   OH229458   6.151   5.637   5.335  0.4424  0.3945  0.2971
 2656TIP3    H129459   6.135   5.632   5.241 -1.3436 -0.3410  0.6001
 2656TIP3    H229460   6.246   5.626   5.344  0.5094 -0.6791 -1.3366
 2657TIP3   OH229461   1.232   3.395   0.627 -0.0090 -0.0724  0.3577
 2657TIP3    H129462   1.219   3.482   0.589  0.8741  0.0175  0.2449
 2657TIP3    H229463   1.163   3.342   0.587  0.4321  0.1970 -0.8272
 2658TIP3   OH229464   1.082   0.078  15.341 -0.0819 -0.1207  0.0230
 2658TIP3    H129465   1.062   0.039  15.256 -0.9159 -0.5657  0.4035
 2658TIP3    H229466   1.042   0.165  15.337  0.6720  0.2166 -0.3630
 2659TIP3   OH229467   5.113   2.173   4.476  0.2532  0.1673  0.7261
 2659TIP3    H129468   5.187   2.113   4.488  0.0963 -0.0513  0.6108
 2659TIP3    H229469   5.120   2.202   4.385 -0.6664 -1.0351  0.2361
 2660TIP3   OH229470   4.572   2.105   5.898  0.2030  0.3338 -0.4941
 2660TIP3    H129471   4.667   2.104   5.912  0.2931 -1.0439 -1.0160
 2660TIP3    H229472   4.535   2.096   5.986  0.4601  3.1049 -0.0195
 2661TIP3   OH229473   6.251   4.495  11.345 -0.3802  0.7376  0.2840
 2661TIP3    H129474   6.173   4.532  11.385 -0.5546  0.4528  0.2034
 2661TIP3    H229475   6.219   4.443  11.271  0.0905  4.6221 -3.0475
 2662TIP3   OH229476   2.772   5.533   5.153 -0.0009 -0.3371 -0.4213
 2662TIP3    H129477   2.782   5.505   5.244 -0.2751  0.7190 -0.0470
 2662TIP3    H229478   2.725   5.462   5.110 -0.8713 -0.3706  0.5428
 2663TIP3   OH229479   3.343   3.887   4.033 -0.5578  0.1198  0.1774
 2663TIP3    H129480   3.297   3.804   4.037 -0.3548 -0.1725 -2.2338
 2663TIP3    H229481   3.356   3.904   3.939  1.7609  1.5471  0.6530
 2664TIP3   OH229482   4.093   4.586  15.309 -0.0620  0.0312  0.4756
 2664TIP3    H129483   4.014   4.557  15.355  0.0348 -1.2465 -0.0858
 2664TIP3    H229484   4.164   4.542  15.354 -0.0327 -1.9655 -1.3087
 2665TIP3   OH229485   4.663   0.298   4.927 -0.3524 -0.7416  0.4269
 2665TIP3    H129486   4.690   0.312   5.017  0.7719  0.1616 -0.0316
 2665TIP3    H229487   4.679   0.381   4.883 -0.9656 -1.1343 -0.5949
 2666TIP3   OH229488   1.843   6.122   2.242  0.0356 -0.1217 -0.1011
 2666TIP3    H129489   1.855   6.206   2.197 -1.3913  0.5440  0.7172
 2666TIP3    H229490   1.802   6.066   2.177  0.4732 -0.0291 -0.4694
 2667TIP3   OH229491   6.272   2.426  13.714  0.3078 -0.2942  0.1598
 2667TIP3    H129492   6.237   2.391  13.796 -0.5018  1.1902  0.5013
 2667TIP3    H229493   6.215   2.390  13.646  0.0137 -0.3168  0.4169
 2668TIP3   OH229494   6.027   4.111   1.268 -0.1988 -0.1268 -0.0352
 2668TIP3    H129495   6.044   4.141   1.179  0.3054 -1.9098 -0.5668
 2668TIP3    H229496   5.967   4.177   1.304  2.7980  3.0200 -0.2155
 2669TIP3   OH229497   1.897   0.176  12.752 -0.3881 -0.1090 -0.8003
 2669TIP3    H129498   1.840   0.099  12.747  2.4672 -2.4224 -0.3157
 2669TIP3    H229499   1.872   0.220  12.834  0.8930 -3.2105  1.4310
 2670TIP3   OH229500   6.675   6.249   4.035 -0.1932  0.0056 -0.0796
 2670TIP3    H129501   6.678   6.171   3.980 -0.7237 -0.0841  0.0210
 2670TIP3    H229502   6.749   6.239   4.096 -0.3723 -0.4989  0.0515
 2671TIP3   OH229503   2.064   6.477  12.444 -0.4224 -0.0360  0.6984
 2671TIP3    H129504   2.136   6.465  12.506  1.2308 -1.3254 -1.3317
 2671TIP3    H229505   2.087   6.557  12.396  0.0091 -0.7591 -0.3366
 2672TIP3   OH229506   0.579   1.028  12.784 -0.2971 -0.9610 -0.4134
 2672TIP3    H129507   0.637   0.954  12.767 -1.7991 -2.5023  0.8482
 2672TIP3    H229508   0.587   1.043  12.879 -1.4908 -0.8054 -0.3266
 2673TIP3   OH229509   5.264   3.269  17.002 -0.1595 -0.3450  0.5573
 2673TIP3    H129510   5.349   3.225  17.009 -0.5635 -1.2675 -0.0760
 2673TIP3    H229511   5.235   3.281  17.092  0.2147 -0.8967  0.7570
 2674TIP3   OH229512   1.552   5.607   5.492 -0.1280 -0.1247  0.1166
 2674TIP3    H129513   1.642   5.575   5.497  0.3693  0.9858 -1.2469
 2674TIP3    H229514   1.499   5.530   5.513  1.1341 -0.3629  2.8892
 2675TIP3   OH229515   5.270   2.756   1.998 -0.4200  0.0075 -0.2564
 2675TIP3    H129516   5.346   2.814   2.005 -0.9970  0.5876  1.9713
 2675TIP3    H229517   5.276   2.698   2.074 -1.1944 -1.2190 -1.0891
 2676TIP3   OH229518   1.731   0.931   2.151 -0.1772 -1.0062  0.5146
 2676TIP3    H129519   1.791   0.942   2.225 -0.6017 -0.5878  0.7962
 2676TIP3    H229520   1.735   0.837   2.132  1.0071 -0.9119  0.1492
 2677TIP3   OH229521   2.119   5.861   0.459  0.3872 -1.0658  0.3463
 2677TIP3    H129522   2.202   5.816   0.470  2.2862  2.3711  1.7639
 2677TIP3    H229523   2.133   5.918   0.383 -2.4968 -3.7006 -2.4759
 2678TIP3   OH229524   2.874   5.512   0.138 -0.3609 -0.2411  0.0835
 2678TIP3    H129525   2.798   5.482   0.087  0.5526 -0.5491 -1.1547
 2678TIP3    H229526   2.933   5.548   0.072  0.9009 -0.7252  0.9214
 2679TIP3   OH229527   0.664   3.415   4.547  0.0923  0.1632  0.1551
 2679TIP3    H129528   0.718   3.449   4.619 -0.9760  1.5640  0.3349
 2679TIP3    H229529   0.604   3.353   4.590  0.0040  0.3740  0.3393
 2680TIP3   OH229530   2.028   4.781  12.268 -0.0844 -0.1377  0.3670
 2680TIP3    H129531   2.110   4.830  12.266  0.7367 -1.4728 -0.4069
 2680TIP3    H229532   2.028   4.731  12.186 -2.9410  1.7756 -0.9483
 2681TIP3   OH229533   6.414   0.411  14.336 -0.3786 -0.2143  0.3571
 2681TIP3    H129534   6.454   0.410  14.423  0.8873 -1.2394 -0.2041
 2681TIP3    H229535   6.335   0.464  14.347 -0.6186 -0.8896  2.2866
 2682TIP3   OH229536   3.196   2.574  12.013 -0.5138  0.3690  0.2317
 2682TIP3    H129537   3.191   2.603  12.105  0.8283  1.2856  0.0495
 2682TIP3    H229538   3.114   2.604  11.975 -1.6444 -1.0965  1.3984
 2683TIP3   OH229539   1.393   5.584   0.640  0.1519 -0.4367  0.4176
 2683TIP3    H129540   1.394   5.491   0.614  1.4282  0.3012 -2.6773
 2683TIP3    H229541   1.475   5.595   0.688  0.1907 -0.8459  0.4542
 2684TIP3   OH229542   4.084   4.772   0.959 -0.2541 -0.4593 -0.6150
 2684TIP3    H129543   4.065   4.679   0.941 -1.5553 -0.4307  0.4615
 2684TIP3    H229544   4.097   4.810   0.872  3.4919 -2.2243 -1.0211
 2685TIP3   OH229545   5.644   3.817  11.613 -0.2451  0.1230  0.1366
 2685TIP3    H129546   5.572   3.786  11.667 -0.6548 -0.4595 -0.7275
 2685TIP3    H229547   5.622   3.788  11.524  1.2209 -0.3944 -0.0911
 2686TIP3   OH229548   1.535   3.629   5.611  0.1595 -0.4934 -0.2324
 2686TIP3    H129549   1.528   3.713   5.567  1.3299 -0.0974  0.3131
 2686TIP3    H229550   1.571   3.570   5.545 -1.3011 -0.7629 -0.8269
 2687TIP3   OH229551   5.557   5.454   1.837  0.0197  0.4297  0.1870
 2687TIP3    H129552   5.494   5.507   1.885 -0.7165  0.1287 -0.4392
 2687TIP3    H229553   5.577   5.505   1.759  0.1231  0.2626  0.1048
 2688TIP3   OH229554   6.056   3.386  13.377 -0.4129  0.5458 -0.0795
 2688TIP3    H129555   6.048   3.292  13.391  0.3907  0.6828  1.6187
 2688TIP3    H229556   5.968   3.416  13.356 -0.9305 -0.4114  0.6655
 2689TIP3   OH229557   4.410   3.923   2.589 -0.2005  0.1980  0.2012
 2689TIP3    H129558   4.405   3.931   2.494  0.3346  2.3190  0.3176
 2689TIP3    H229559   4.335   3.972   2.622 -1.3239 -1.8567  0.8921
 2690TIP3   OH229560   5.396   4.184   1.839  0.5385  0.1331 -0.0586
 2690TIP3    H129561   5.375   4.261   1.891  0.9232 -1.0851  2.0387
 2690TIP3    H229562   5.330   4.183   1.770 -0.9140  1.0826  1.2341
 2691TIP3   OH229563   0.889   3.483  11.330  0.3981 -0.1116  0.8512
 2691TIP3    H129564   0.937   3.415  11.284  1.7250  1.0516  0.4241
 2691TIP3    H229565   0.907   3.563  11.280 -2.3209  0.3545  0.4377
 2692TIP3   OH229566   1.452   4.285  15.517 -0.3968 -0.1284 -0.2743
 2692TIP3    H129567   1.488   4.370  15.492  0.2357  0.0913  1.2322
 2692TIP3    H229568   1.359   4.301  15.533 -0.3275  0.2296 -0.2286
 2693TIP3   OH229569   6.450   2.766  13.209  0.4733  0.2215 -0.0434
 2693TIP3    H129570   6.511   2.709  13.257  3.3191  2.1842 -1.0954
 2693TIP3    H229571   6.472   2.752  13.117 -1.2413  0.4264 -0.5088
 2694TIP3   OH229572   4.956   1.695  10.919 -0.4786  0.3789 -0.5196
 2694TIP3    H129573   4.976   1.604  10.942  0.5923 -0.1403 -3.2284
 2694TIP3    H229574   5.029   1.745  10.953  0.1635 -0.1190 -1.1409
 2695TIP3   OH229575   4.883   1.689  15.827 -0.3800  0.6568 -0.1822
 2695TIP3    H129576   4.932   1.763  15.793  0.0463  0.5402  0.1698
 2695TIP3    H229577   4.894   1.694  15.922  0.1715 -0.2117 -0.1854
 2696TIP3   OH229578   0.562   2.476   3.604 -0.3327  0.4287  0.0410
 2696TIP3    H129579   0.476   2.508   3.576 -0.7232 -2.0034 -1.7979
 2696TIP3    H229580   0.548   2.384   3.624  2.1305 -0.4902 -1.9324
 2697TIP3   OH229581   0.642   3.394  11.275  0.5060  0.1316  0.0031
 2697TIP3    H129582   0.734   3.389  11.247  0.0377 -0.7636 -1.4485
 2697TIP3    H229583   0.602   3.456  11.214 -0.2262 -0.7827 -0.4609
 2698TIP3   OH229584   2.223   5.266   2.882  0.1536 -0.7806 -0.1200
 2698TIP3    H129585   2.180   5.209   2.945 -0.4056 -0.6044 -0.3339
 2698TIP3    H229586   2.164   5.341   2.874  0.3865 -0.6430 -0.5949
 2699TIP3   OH229587   2.139   6.206  12.983  0.4447 -0.0354 -0.1432
 2699TIP3    H129588   2.103   6.270  12.922  0.5799  0.0758 -0.1089
 2699TIP3    H229589   2.118   6.242  13.070  1.4719  0.5269 -0.1086
 2700TIP3   OH229590   1.776   4.094   1.581 -0.1834 -0.1286 -0.3119
 2700TIP3    H129591   1.769   4.034   1.656 -1.4873  0.3215 -0.0434
 2700TIP3    H229592   1.808   4.039   1.510  2.0885 -0.3603  0.7921
 2701TIP3   OH229593   5.354   2.727  16.690  0.1914  0.6193 -0.1151
 2701TIP3    H129594   5.276   2.690  16.730  0.1981 -0.0812 -0.7322
 2701TIP3    H229595   5.358   2.817  16.723 -0.7794  0.6094  0.0496
 2702TIP3   OH229596   1.970   6.015  16.532  0.3773  0.2005 -0.1246
 2702TIP3    H129597   1.902   6.081  16.514 -3.1923 -3.0561  0.1361
 2702TIP3    H229598   1.986   6.022  16.626 -1.6491 -0.5766  0.3464
 2703TIP3   OH229599   6.200   5.129   2.915 -0.2396 -0.3443 -0.1565
 2703TIP3    H129600   6.214   5.133   3.009 -0.0070 -1.2761 -0.1398
 2703TIP3    H229601   6.134   5.060   2.903  0.5865 -1.0549 -0.7434
 2704TIP3   OH229602   5.138   4.541  14.720  0.0653 -0.6641 -0.5354
 2704TIP3    H129603   5.148   4.453  14.685 -0.3677 -0.0046 -2.4349
 2704TIP3    H229604   5.157   4.599  14.646  0.2006  0.8401  0.6267
 2705TIP3   OH229605   2.172   5.835   4.814  0.0193 -0.1445 -0.1490
 2705TIP3    H129606   2.175   5.773   4.887 -1.0645  0.2597  0.2612
 2705TIP3    H229607   2.079   5.845   4.796  0.2781 -1.0949 -2.3542
 2706TIP3   OH229608   3.806   1.964   0.192  0.5163  0.5806 -0.3946
 2706TIP3    H129609   3.882   1.987   0.138 -1.0308  1.5660 -2.3043
 2706TIP3    H229610   3.771   1.885   0.151 -1.6546  2.2745 -2.0448
 2707TIP3   OH229611   0.046   3.948   0.654 -0.2409 -0.1367  0.5057
 2707TIP3    H129612   0.107   4.006   0.609  0.4963 -2.4128 -1.6717
 2707TIP3    H229613   0.092   3.921   0.733  0.1717  0.7625  0.5794
 2708TIP3   OH229614   5.579   5.047   5.217 -0.8686  0.1798  0.7812
 2708TIP3    H129615   5.498   5.016   5.175 -1.0179  0.1787  1.0694
 2708TIP3    H229616   5.572   5.017   5.307  1.0811 -2.9233  0.0077
 2709TIP3   OH229617   6.101   3.709   5.784  0.3882  0.4582  0.1490
 2709TIP3    H129618   6.131   3.662   5.706  0.1072 -0.0505  0.3426
 2709TIP3    H229619   6.119   3.649   5.857 -2.0300 -0.3483  0.1863
 2710TIP3   OH229620   3.206   3.958   4.871 -0.1590 -0.1885 -0.9663
 2710TIP3    H129621   3.115   3.929   4.869 -0.7893  1.6890 -1.3656
 2710TIP3    H229622   3.217   3.999   4.957  0.2610 -0.2363 -0.9915
 2711TIP3   OH229623   3.734   4.310  11.787 -0.2349  0.0511 -0.1645
 2711TIP3    H129624   3.674   4.333  11.717 -0.5594  0.8997  0.3761
 2711TIP3    H229625   3.695   4.348  11.866 -0.0126 -1.1068  0.5249
 2712TIP3   OH229626   4.240   6.814   3.599  0.5048  0.0927  0.4109
 2712TIP3    H129627   4.195   6.744   3.648  0.8561 -0.5084 -0.1140
 2712TIP3    H229628   4.307   6.768   3.549  0.5554  0.7831 -0.1593
 2713TIP3   OH229629   5.012   3.690  10.868 -0.3968  0.0752 -0.3347
 2713TIP3    H129630   4.918   3.673  10.862 -0.4093 -1.0911  1.9335
 2713TIP3    H229631   5.024   3.726  10.956  1.4317 -1.0880 -0.0595
 2714TIP3   OH229632   4.296   0.687  11.039  0.0869 -0.4245 -0.1124
 2714TIP3    H129633   4.302   0.607  10.986  0.0467 -0.1108 -0.5939
 2714TIP3    H229634   4.374   0.738  11.016  0.1922 -0.3933  0.3097
 2715TIP3   OH229635   0.259   2.746   2.640  0.0338 -0.1101  0.2564
 2715TIP3    H129636   0.339   2.697   2.659  1.2027  1.5430 -0.2158
 2715TIP3    H229637   0.194   2.708   2.700  0.5782 -2.8389 -0.7097
 2716TIP3   OH229638   0.567   0.064  16.892  0.1983 -0.1024 -0.2435
 2716TIP3    H129639   0.603   0.152  16.881  1.8218 -0.8985 -1.8158
 2716TIP3    H229640   0.510   0.052  16.816  0.0508 -0.4320 -0.0793
 2717TIP3   OH229641   6.456   2.803   1.811  0.0709 -0.6225 -0.3876
 2717TIP3    H129642   6.394   2.759   1.752 -0.0816  0.6513 -1.2161
 2717TIP3    H229643   6.519   2.844   1.752  0.1284  0.3776  0.3615
 2718TIP3   OH229644   6.394   2.092  14.792  0.0505 -0.5553  0.3326
 2718TIP3    H129645   6.455   2.144  14.741  0.0355 -2.5940 -1.9457
 2718TIP3    H229646   6.313   2.142  14.791  0.8686  0.8275  0.9424
 2719TIP3   OH229647   5.897   1.401   5.698 -0.6429 -0.0712  0.3332
 2719TIP3    H129648   5.858   1.472   5.647  1.0356  1.3363  0.9185
 2719TIP3    H229649   5.837   1.388   5.771 -1.2654  0.3363 -0.0927
 2720TIP3   OH229650   1.207   2.553  14.286  0.5141 -0.3106  0.3208
 2720TIP3    H129651   1.165   2.479  14.329  2.6268 -1.2876  0.8371
 2720TIP3    H229652   1.140   2.622  14.286 -0.7954 -1.5036  1.7559
 2721TIP3   OH229653   0.099   1.469   2.319 -0.4464  0.3225 -0.1739
 2721TIP3    H129654   0.012   1.447   2.351 -0.7213 -0.1844 -1.2054
 2721TIP3    H229655   0.144   1.385   2.312  1.5961  0.7858  4.1322
 2722TIP3   OH229656   4.003   0.977   2.188 -0.9237 -0.1513  0.7709
 2722TIP3    H129657   3.924   0.939   2.228 -0.9262  1.0183  1.9225
 2722TIP3    H229658   3.976   1.064   2.161  0.4584  1.0693  3.0248
 2723TIP3   OH229659   5.323   5.066   5.130 -0.3822  0.3999 -1.1104
 2723TIP3    H129660   5.261   5.093   5.197 -0.3698 -2.0896  0.0106
 2723TIP3    H229661   5.270   5.021   5.064 -0.3755  2.7063 -2.7860
 2724TIP3   OH229662   4.130   2.201  16.994  0.5298 -0.6828 -0.6072
 2724TIP3    H129663   4.179   2.182  17.075 -0.9729  1.4575  0.9094
 2724TIP3    H229664   4.072   2.126  16.983  0.2971 -0.7085  0.6804
 2725TIP3   OH229665   3.578   3.363  15.915  0.7251 -0.4525 -0.4404
 2725TIP3    H129666   3.525   3.442  15.932  2.1518  0.6858 -1.0196
 2725TIP3    H229667   3.563   3.344  15.822 -0.7031 -1.7479  0.0180
 2726TIP3   OH229668   5.585   6.222  13.704 -0.1135  0.0144 -0.3095
 2726TIP3    H129669   5.535   6.302  13.687 -1.0526 -0.1911  1.3494
 2726TIP3    H229670   5.567   6.166  13.628  0.0555  1.0945 -1.1816
 2727TIP3   OH229671   2.052   4.180   2.330 -0.0263  0.8064  0.3806
 2727TIP3    H129672   2.010   4.094   2.326 -0.6308  0.9543  2.4152
 2727TIP3    H229673   1.979   4.242   2.331  0.3797  1.3071 -0.1523
 2728TIP3   OH229674   4.803   5.631  15.539  0.4034  0.4443  0.2187
 2728TIP3    H129675   4.853   5.551  15.527  2.1573  1.5974 -0.5305
 2728TIP3    H229676   4.786   5.662  15.450 -1.0108  0.4767  0.4780
 2729TIP3   OH229677   1.039   2.529   5.656 -0.3076 -0.3725  0.0316
 2729TIP3    H129678   1.133   2.530   5.675 -0.3837 -2.3444  0.6710
 2729TIP3    H229679   1.033   2.499   5.565 -0.3031  0.7116 -0.3409
 2730TIP3   OH229680   3.140   6.209  11.850 -0.2285 -0.7006  0.4627
 2730TIP3    H129681   3.055   6.234  11.815  0.4507 -0.4960 -1.0860
 2730TIP3    H229682   3.146   6.256  11.933 -0.5328  1.3693 -0.6404
 2731TIP3   OH229683   3.730   1.272  12.895 -0.0228  0.7009  0.5228
 2731TIP3    H129684   3.685   1.316  12.823 -1.5955  0.0861  1.0947
 2731TIP3    H229685   3.694   1.313  12.974  0.1347 -0.0736  1.0034
 2732TIP3   OH229686   1.927   1.330   0.761  0.3050  0.3356 -0.2736
 2732TIP3    H129687   1.987   1.260   0.786  1.1338  1.5938  1.5864
 2732TIP3    H229688   1.878   1.348   0.841 -1.3462  0.5211 -1.2906
 2733TIP3   OH229689   3.552   5.763   0.186  0.3529 -0.2571 -0.2921
 2733TIP3    H129690   3.547   5.825   0.113  1.5907  0.7195  0.4041
 2733TIP3    H229691   3.616   5.802   0.246 -1.4458 -0.4384  1.8803
 2734TIP3   OH229692   4.208   1.337   5.800 -0.7529  0.1162 -0.7675
 2734TIP3    H129693   4.153   1.355   5.877 -1.6331 -0.7496 -1.1787
 2734TIP3    H229694   4.297   1.340   5.833 -1.1336 -0.6185  0.3860
 2735TIP3   OH229695   1.697   1.691  13.199 -0.3597  0.0766 -0.2146
 2735TIP3    H129696   1.653   1.775  13.186  0.0713  0.6167  1.5685
 2735TIP3    H229697   1.783   1.703  13.158 -1.5177 -0.7834 -3.1736
 2736TIP3   OH229698   6.393   6.691   0.321 -0.4774 -0.1333 -0.6856
 2736TIP3    H129699   6.461   6.684   0.388 -1.7642  2.6067  1.0385
 2736TIP3    H229700   6.315   6.652   0.361 -1.4085  2.0233 -0.2893
 2737TIP3   OH229701   4.442   1.828  11.698  0.3560 -0.2861  0.5327
 2737TIP3    H129702   4.374   1.762  11.710  1.9382 -1.8963  0.9929
 2737TIP3    H229703   4.461   1.859  11.787 -1.2970  1.8799  0.2411
 2738TIP3   OH229704   0.666   1.473   3.498  0.0108 -0.1900  0.0209
 2738TIP3    H129705   0.581   1.517   3.502 -0.9312 -1.9256  3.3194
 2738TIP3    H229706   0.703   1.484   3.586  2.4965 -0.8323 -0.8530
 2739TIP3   OH229707   6.307   6.524  15.304 -0.1756  0.0220  0.3490
 2739TIP3    H129708   6.356   6.550  15.226  0.8270  0.2634  1.0394
 2739TIP3    H229709   6.222   6.494  15.270 -0.4052  1.6907 -0.6960
 2740TIP3   OH229710   4.426   2.650  12.416  0.2766 -0.2468 -0.0191
 2740TIP3    H129711   4.357   2.584  12.421  0.8438 -0.8439  0.1745
 2740TIP3    H229712   4.404   2.714  12.483 -0.4118 -0.1177 -0.3695
 2741TIP3   OH229713   5.602   3.516   0.547  0.1942  0.3305  0.0276
 2741TIP3    H129714   5.614   3.611   0.553  0.5675  0.2425  0.8134
 2741TIP3    H229715   5.688   3.480   0.566  0.8010 -0.1240 -3.0747
 2742TIP3   OH229716   4.262   2.285  14.022  0.2316 -0.7148 -0.1817
 2742TIP3    H129717   4.197   2.346  14.055  0.4914 -0.2311 -0.5432
 2742TIP3    H229718   4.321   2.339  13.969  2.2464 -0.6923  1.9350
 2743TIP3   OH229719   4.761   3.623   4.200  0.3194 -0.3004 -0.1484
 2743TIP3    H129720   4.779   3.557   4.267  0.9165  0.6027  0.5981
 2743TIP3    H229721   4.807   3.592   4.122 -0.1845 -1.2352 -0.0897
 2744TIP3   OH229722   3.291   1.634   0.232 -0.0066 -0.0297  0.2891
 2744TIP3    H129723   3.225   1.582   0.278 -0.5722 -0.1026 -0.5782
 2744TIP3    H229724   3.250   1.656   0.148  1.4691 -1.0560 -0.7695
 2745TIP3   OH229725   4.087   0.338   2.755  0.7406 -0.0521  0.0616
 2745TIP3    H129726   4.107   0.244   2.750 -0.4188 -0.2957 -0.5078
 2745TIP3    H229727   4.008   0.342   2.809  0.0658  0.4630 -0.9352
 2746TIP3   OH229728   2.181   0.245   0.979  0.3428  1.1882  0.9002
 2746TIP3    H129729   2.171   0.239   0.884  0.1838  1.4834  0.8970
 2746TIP3    H229730   2.109   0.194   1.014  1.3418 -0.3192  0.8635
 2747TIP3   OH229731   4.857   4.623   3.522  0.2342 -0.1814  0.1091
 2747TIP3    H129732   4.826   4.619   3.612 -4.7435  0.8383 -1.2204
 2747TIP3    H229733   4.830   4.540   3.484 -3.5984  1.5868 -1.6643
 2748TIP3   OH229734   0.689   6.528   4.955 -0.4870  0.0189 -0.3014
 2748TIP3    H129735   0.672   6.457   4.893  0.1471 -0.7510  0.3678
 2748TIP3    H229736   0.778   6.510   4.987 -0.4507  0.9288  0.1402
 2749TIP3   OH229737   3.774   6.188  15.015 -0.3424  0.0312  0.1999
 2749TIP3    H129738   3.753   6.215  15.105 -0.8861 -1.9128  0.6946
 2749TIP3    H229739   3.702   6.222  14.963 -0.3194  0.6849  0.5810
 2750TIP3   OH229740   5.355   1.445   2.709 -0.3825  0.2731  0.5305
 2750TIP3    H129741   5.312   1.488   2.783 -1.6353  1.8429 -1.0065
 2750TIP3    H229742   5.348   1.352   2.728 -1.3252  0.6077  2.0341
 2751TIP3   OH229743   3.130   0.259  15.340  0.3336  0.0772 -0.0629
 2751TIP3    H129744   3.035   0.270  15.342  0.5145  1.8197  0.3298
 2751TIP3    H229745   3.157   0.292  15.254  0.2650 -4.2397 -2.0399
 2752TIP3   OH229746   0.092   6.139  12.538  0.5158  0.3732  0.8336
 2752TIP3    H129747   0.068   6.047  12.548 -3.4560  1.2846  1.4178
 2752TIP3    H229748   0.116   6.167  12.626  3.1094 -0.3003  0.4261
 2753TIP3   OH229749   3.595   0.862  14.267  0.6683  0.3785 -0.2871
 2753TIP3    H129750   3.660   0.836  14.332 -0.3752 -0.4867  0.4575
 2753TIP3    H229751   3.511   0.857  14.313 -0.0167  0.6538 -1.4416
 2754TIP3   OH229752   3.177   4.982  13.155  0.1685 -0.2570 -0.7005
 2754TIP3    H129753   3.099   4.946  13.113 -0.4455  0.1570  0.0539
 2754TIP3    H229754   3.249   4.954  13.100 -0.4509 -1.2396 -1.0339
 2755TIP3   OH229755   0.050   1.722  11.381 -0.4722 -0.1175  0.3901
 2755TIP3    H129756   0.061   1.633  11.347  2.5439  0.0361  0.7623
 2755TIP3    H229757   0.012   1.710  11.468  0.5055 -1.1191  0.7006
 2756TIP3   OH229758   6.381   1.745   1.019  0.7680 -0.1592  1.0740
 2756TIP3    H129759   6.305   1.702   0.980  1.0833 -0.7230  1.0744
 2756TIP3    H229760   6.436   1.771   0.945  0.7225 -0.0243  1.0868
 2757TIP3   OH229761   6.308   4.200   1.532 -0.0148 -0.1677  0.4608
 2757TIP3    H129762   6.375   4.258   1.567  0.3565  0.6771 -1.4839
 2757TIP3    H229763   6.225   4.245   1.548  0.0971 -0.0413  0.6817
 2758TIP3   OH229764   5.689   3.451  16.514  0.4608 -0.2092 -0.0264
 2758TIP3    H129765   5.642   3.413  16.588 -0.9429  2.9824  0.9113
 2758TIP3    H229766   5.623   3.501  16.467  1.8281 -0.2831 -2.1339
 2759TIP3   OH229767   6.744   4.584   2.161  0.2956  0.6104  0.1817
 2759TIP3    H129768   6.766   4.669   2.122 -1.6644  1.8783  1.6424
 2759TIP3    H229769   6.649   4.579   2.157  0.2283 -0.5922  1.9487
 2760TIP3   OH229770   5.266   5.461  13.281 -0.3894  0.2217 -0.2749
 2760TIP3    H129771   5.285   5.480  13.189  1.9971  2.7638  0.6030
 2760TIP3    H229772   5.170   5.459  13.286 -0.5709 -0.5619 -2.8680
 2761TIP3   OH229773   5.694   3.102   3.915 -0.2797  0.8711 -0.4187
 2761TIP3    H129774   5.701   3.019   3.961  0.0433  1.6289  0.9776
 2761TIP3    H229775   5.671   3.079   3.825  1.2798 -0.7942 -0.4422
 2762TIP3   OH229776   2.631   3.985   1.941  0.4262  0.2570 -0.0924
 2762TIP3    H129777   2.641   3.972   2.036 -1.7082  1.2307  0.3151
 2762TIP3    H229778   2.662   4.074   1.926 -2.0960  1.2640  0.2707
 2763TIP3   OH229779   0.912   5.131  11.420 -0.0555 -0.5897  0.5629
 2763TIP3    H129780   0.980   5.131  11.487  1.8565 -0.1890 -1.2671
 2763TIP3    H229781   0.943   5.194  11.354 -0.6865 -2.6094 -1.7992
 2764TIP3   OH229782   4.818   0.815  12.936 -0.0819  0.3857 -0.2020
 2764TIP3    H129783   4.817   0.903  12.899  0.1029  0.3085 -0.3899
 2764TIP3    H229784   4.896   0.814  12.992 -0.9278  0.8486  1.0339
 2765TIP3   OH229785   6.401   1.056  12.527  0.1727 -0.0359 -0.9309
 2765TIP3    H129786   6.445   1.116  12.588 -0.9218  0.8546 -0.9830
 2765TIP3    H229787   6.370   0.984  12.582 -0.6994  0.7020 -0.4239
 2766TIP3   OH229788   6.647   2.574  13.305  0.1066 -0.5991  0.1372
 2766TIP3    H129789   6.743   2.581  13.296  0.1760 -1.9548 -0.2898
 2766TIP3    H229790   6.624   2.494  13.259 -1.2816 -0.1679  0.0458
 2767TIP3   OH229791   4.346   3.238  12.179  0.0725 -0.0044  0.1649
 2767TIP3    H129792   4.263   3.197  12.202 -0.2512  0.8082  0.5055
 2767TIP3    H229793   4.405   3.165  12.160 -0.6267 -0.5968  0.2361
 2768TIP3   OH229794   3.227   0.943   5.402  0.3043 -0.3890  0.0752
 2768TIP3    H129795   3.214   0.984   5.316  2.4667  1.5891  0.6011
 2768TIP3    H229796   3.138   0.929   5.435 -0.5644  0.2728 -1.7918
 2769TIP3   OH229797   4.926   6.076   3.914  0.1432 -0.0202  0.1370
 2769TIP3    H129798   4.908   6.157   3.867  0.3240 -0.1500 -0.1580
 2769TIP3    H229799   5.000   6.037   3.867  0.4677 -0.0435  0.6602
 2770TIP3   OH229800   0.884   5.149  16.673 -0.2221  0.3303 -0.6638
 2770TIP3    H129801   0.928   5.065  16.684 -1.4382 -0.1668  0.7443
 2770TIP3    H229802   0.888   5.190  16.759  1.3873  2.3015 -1.5811
 2771TIP3   OH229803   0.451   2.413  15.529  0.3234 -0.0930  0.1240
 2771TIP3    H129804   0.517   2.419  15.460  0.5489  1.7263  0.4571
 2771TIP3    H229805   0.368   2.419  15.483  0.4137 -0.7857 -0.1469
 2772TIP3   OH229806   6.811   6.016   1.983  0.1280  0.1303  0.0751
 2772TIP3    H129807   6.749   5.956   2.025 -1.4959  1.8244  0.2230
 2772TIP3    H229808   6.821   5.982   1.894  1.7254 -2.1065  1.0046
 2773TIP3   OH229809   0.617   6.460   3.686 -0.2732  0.2096 -0.1214
 2773TIP3    H129810   0.578   6.499   3.609 -0.9584  1.0974  0.6529
 2773TIP3    H229811   0.598   6.366   3.678 -1.1292  0.4179 -0.5656
 2774TIP3   OH229812   6.597   5.228  16.633  0.2056 -0.0172  0.1809
 2774TIP3    H129813   6.638   5.141  16.632 -3.2516 -1.8814 -1.4611
 2774TIP3    H229814   6.623   5.267  16.550 -0.3624 -0.7011 -0.3369
 2775TIP3   OH229815   1.206   6.557   1.548 -0.3095 -0.0253  0.4458
 2775TIP3    H129816   1.159   6.482   1.583  0.3044 -0.8588 -0.4364
 2775TIP3    H229817   1.271   6.518   1.489 -0.2792  1.2298 -0.3772
 2776TIP3   OH229818   1.235   6.084   2.200  0.2015 -0.4437  0.2727
 2776TIP3    H129819   1.216   6.118   2.287 -1.5111 -1.1309  0.2123
 2776TIP3    H229820   1.179   6.007   2.192 -0.2381  0.0291 -1.7191
 2777TIP3   OH229821   6.163   6.314  14.736 -0.2293 -0.3408  0.0332
 2777TIP3    H129822   6.141   6.358  14.653 -0.0672  1.3735  0.8503
 2777TIP3    H229823   6.110   6.359  14.801 -0.4616 -1.7660  0.8634
 2778TIP3   OH229824   0.578   6.672  12.489 -0.3977 -0.2848  0.2739
 2778TIP3    H129825   0.557   6.578  12.487  0.3795 -0.4593 -1.5813
 2778TIP3    H229826   0.495   6.716  12.473 -0.7064 -0.6494  0.8178
 2779TIP3   OH229827   3.172   5.423   4.322 -0.1475 -0.7142 -0.7467
 2779TIP3    H129828   3.267   5.427   4.330 -0.3366  1.6475  2.4672
 2779TIP3    H229829   3.145   5.514   4.309 -2.0304 -1.0539  0.3718
 2780TIP3   OH229830   6.121   3.440  14.777  0.4839  0.6959  0.3981
 2780TIP3    H129831   6.074   3.454  14.859 -0.3114 -1.1169  0.2935
 2780TIP3    H229832   6.201   3.393  14.802 -0.0616 -0.4269  0.1042
 2781TIP3   OH229833   4.825   2.039  12.227  0.7027 -0.2792 -0.1109
 2781TIP3    H129834   4.734   2.010  12.236  0.3036  0.8199 -0.4205
 2781TIP3    H229835   4.822   2.107  12.159  1.6228  0.3386  0.4422
 2782TIP3   OH229836   0.497   4.841  12.854  0.3453  0.1774  0.4894
 2782TIP3    H129837   0.485   4.846  12.759  0.7882 -1.3552  0.3317
 2782TIP3    H229838   0.580   4.885  12.870 -0.9984  2.9358  0.5484
 2783TIP3   OH229839   6.600   4.111  15.417 -0.2158 -0.0959 -0.5404
 2783TIP3    H129840   6.678   4.117  15.362  0.7671 -0.2002  0.7801
 2783TIP3    H229841   6.545   4.184  15.388  0.4788  0.1355 -1.3255
 2784TIP3   OH229842   2.215   0.960   3.103  0.9664 -0.1519  0.3514
 2784TIP3    H129843   2.310   0.951   3.093  0.9556 -0.0781  0.1809
 2784TIP3    H229844   2.190   0.888   3.161  1.2693  0.4114  1.2044
 2785TIP3   OH229845   2.756   0.757   5.013  0.6452 -0.4960  0.1012
 2785TIP3    H129846   2.790   0.810   4.941  0.4064  0.4727  0.6830
 2785TIP3    H229847   2.666   0.788   5.026  0.6848 -0.6522  0.8091
 2786TIP3   OH229848   1.666   4.180   5.904  0.5363 -0.2741 -0.5510
 2786TIP3    H129849   1.670   4.104   5.962 -2.2773 -1.6616 -1.9762
 2786TIP3    H229850   1.647   4.254   5.962 -0.8352 -1.3778  0.4769
 2787TIP3   OH229851   0.595   3.861   5.669  0.7638 -0.0739  0.1316
 2787TIP3    H129852   0.654   3.796   5.632  0.2641 -1.0864  1.0569
 2787TIP3    H229853   0.652   3.919   5.721  1.3344  0.8050 -1.3936
 2788TIP3   OH229854   4.907   0.137   1.211  0.2494  0.3090 -0.3590
 2788TIP3    H129855   4.933   0.128   1.119  2.5501  1.1259  0.1438
 2788TIP3    H229856   4.947   0.061   1.254 -1.5262 -0.5368 -0.1298
 2789TIP3   OH229857   0.911   5.545  14.488  0.0139 -0.1768 -0.2117
 2789TIP3    H129858   0.909   5.631  14.447  0.1315 -0.3186 -0.5164
 2789TIP3    H229859   0.869   5.558  14.573  0.1726  0.2131 -0.1925
 2790TIP3   OH229860   4.887   1.126  11.951 -0.2506 -0.0315 -0.3311
 2790TIP3    H129861   4.878   1.163  12.038  0.7096 -0.4440 -0.0498
 2790TIP3    H229862   4.853   1.194  11.892  0.9607  1.0716  0.2062
 2791TIP3   OH229863   2.349   6.499  11.588 -0.0310 -0.0135 -0.7598
 2791TIP3    H129864   2.423   6.491  11.527 -0.1165 -1.9800 -0.6767
 2791TIP3    H229865   2.272   6.497  11.532 -0.0926 -1.3448 -0.6721
 2792TIP3   OH229866   2.145   5.327  15.657  0.4536  0.0543  0.0817
 2792TIP3    H129867   2.162   5.416  15.626 -0.0788 -0.7704 -2.9059
 2792TIP3    H229868   2.203   5.272  15.605 -2.2407 -1.6761 -1.3411
 2793TIP3   OH229869   5.590   3.151  16.679  0.6975 -0.8299  0.9530
 2793TIP3    H129870   5.587   3.213  16.752  0.8682  0.5391 -0.1394
 2793TIP3    H229871   5.515   3.176  16.624  1.5238 -0.6945 -0.1686
 2794TIP3   OH229872   3.184   4.348  14.757 -0.2975 -0.4808  0.4082
 2794TIP3    H129873   3.113   4.409  14.739 -0.2901 -0.6888 -0.3573
 2794TIP3    H229874   3.240   4.394  14.820 -0.8779 -0.1483  0.6842
 2795TIP3   OH229875   4.464   2.104  14.048  0.4168 -0.1625 -0.4550
 2795TIP3    H129876   4.542   2.159  14.038  0.6907 -0.3030  0.7059
 2795TIP3    H229877   4.391   2.166  14.051  0.2772 -0.1135 -3.1267
 2796TIP3   OH229878   5.793   4.712  15.248  0.1934 -0.8157  0.6251
 2796TIP3    H129879   5.748   4.713  15.163 -0.6764 -1.2086  1.0714
 2796TIP3    H229880   5.865   4.774  15.237  0.6086 -1.4689 -0.6778
 2797TIP3   OH229881   1.771   0.491   2.047  0.3132  0.0599  0.9332
 2797TIP3    H129882   1.705   0.538   1.996 -1.2019 -2.4575  0.4064
 2797TIP3    H229883   1.754   0.515   2.138 -1.4107 -0.5346  0.8100
 2798TIP3   OH229884   6.737   2.776   2.949  0.0783  0.2735  0.2231
 2798TIP3    H129885   6.684   2.808   2.876  2.0350 -0.6935 -1.7397
 2798TIP3    H229886   6.675   2.764   3.020 -2.4632 -1.2845 -2.0594
 2799TIP3   OH229887   6.156   0.364   3.375  0.4838  0.0705  0.5851
 2799TIP3    H129888   6.209   0.313   3.314  0.5635  1.0231 -0.1508
 2799TIP3    H229889   6.074   0.380   3.328  0.8365  1.4625  0.4151
 2800TIP3   OH229890   5.007   3.630  13.373 -0.0572 -0.0623 -0.2348
 2800TIP3    H129891   4.921   3.663  13.398  0.0601 -1.1335  1.7992
 2800TIP3    H229892   5.065   3.706  13.383 -0.4848  0.2384  0.0198
 2801TIP3   OH229893   0.147   6.650  12.006  0.0398  0.0454  0.1012
 2801TIP3    H129894   0.236   6.618  12.021 -0.2789 -0.7505  0.3872
 2801TIP3    H229895   0.141   6.730  12.058  0.3071 -0.3906  0.8236
 2802TIP3   OH229896   0.555   1.413   2.183 -0.6725 -0.0587  0.0007
 2802TIP3    H129897   0.649   1.396   2.184 -0.7389 -0.4707 -0.4353
 2802TIP3    H229898   0.541   1.477   2.252  0.0971  0.8881 -0.6940
 2803TIP3   OH229899   4.580   3.100   5.637 -0.0223 -0.8570 -0.2132
 2803TIP3    H129900   4.576   3.006   5.620  2.6502 -1.2835  1.0212
 2803TIP3    H229901   4.625   3.137   5.561 -0.5991 -0.6318 -0.4526
 2804TIP3   OH229902   6.821   5.317   3.714  0.4268 -0.4030 -0.5421
 2804TIP3    H129903   6.760   5.381   3.676  0.4765  1.3224  2.0068
 2804TIP3    H229904   6.907   5.356   3.701  0.7206 -1.2847 -1.3083
 2805TIP3   OH229905   3.118   0.445  11.277 -0.4305 -0.4722  0.6296
 2805TIP3    H129906   3.182   0.375  11.294  1.2577  1.1142  1.1928
 2805TIP3    H229907   3.165   0.507  11.222 -2.4734 -0.5617 -1.3305
 2806TIP3   OH229908   2.272   2.932  13.731 -0.6506  0.4681  0.0180
 2806TIP3    H129909   2.197   2.972  13.776 -0.1522  2.3901 -0.7400
 2806TIP3    H229910   2.252   2.941  13.638 -0.1818 -0.4347 -0.1780
 2807TIP3   OH229911   3.395   5.441   0.776  0.3970  0.0993  0.2592
 2807TIP3    H129912   3.447   5.449   0.856  0.2819 -1.4307  0.5213
 2807TIP3    H229913   3.404   5.349   0.751 -1.2116  0.0753 -0.3566
 2808TIP3   OH229914   6.013   6.381  13.090 -0.6323 -0.3415  0.1907
 2808TIP3    H129915   5.921   6.356  13.081 -0.0656 -2.1167 -1.1702
 2808TIP3    H229916   6.048   6.377  13.001  0.7737  0.3497  0.6867
 2809TIP3   OH229917   1.258   6.302  17.089 -0.1040 -0.6870 -0.5239
 2809TIP3    H129918   1.181   6.343  17.050 -0.5871  0.0718  1.1750
 2809TIP3    H229919   1.314   6.374  17.114 -0.2327 -1.0805  1.0177
 2810TIP3   OH229920   3.524   0.989   6.413  0.4911 -0.2022  0.1308
 2810TIP3    H129921   3.502   1.051   6.344  0.2981 -0.6752 -0.2398
 2810TIP3    H229922   3.607   1.022   6.449  1.7702 -1.1074 -1.7832
 2811TIP3   OH229923   3.943   1.458  12.609  0.3335  0.1527  0.0164
 2811TIP3    H129924   3.961   1.370  12.643  0.9278  0.9379  1.8649
 2811TIP3    H229925   4.025   1.486  12.569 -0.1734 -0.5102 -1.5907
 2812TIP3   OH229926   6.505   4.045  16.068  0.0008 -0.1402  0.3612
 2812TIP3    H129927   6.567   4.070  16.000  0.2902  2.2697  1.4064
 2812TIP3    H229928   6.502   3.950  16.063  1.2731 -0.1515 -1.8776
 2813TIP3   OH229929   4.662   2.442  12.758  0.0367 -0.1929  0.0186
 2813TIP3    H129930   4.633   2.393  12.834 -0.1232 -0.3749 -0.1600
 2813TIP3    H229931   4.750   2.410  12.741 -0.3408 -0.9491 -0.5444
 2814TIP3   OH229932   2.791   0.386  14.878 -0.0456 -0.3179  0.1961
 2814TIP3    H129933   2.764   0.371  14.787 -1.0479  2.1735 -0.0158
 2814TIP3    H229934   2.715   0.363  14.930 -0.3317  0.5058  0.1630
 2815TIP3   OH229935   0.905   2.337   1.140  0.6565  0.1337 -0.0661
 2815TIP3    H129936   0.914   2.431   1.157  0.3756  0.0938  0.3288
 2815TIP3    H229937   0.852   2.331   1.061 -0.1465  0.3008  0.4478
 2816TIP3   OH229938   6.663   1.575   0.706 -0.1442  0.0897  0.3099
 2816TIP3    H129939   6.622   1.506   0.757  1.1462 -1.9936 -1.2955
 2816TIP3    H229940   6.741   1.598   0.756  1.0921 -1.9071 -0.5631
 2817TIP3   OH229941   2.123   2.967   6.163 -0.2119 -0.3429 -0.8424
 2817TIP3    H129942   2.071   2.934   6.236  0.3706 -2.1767 -1.2129
 2817TIP3    H229943   2.105   2.908   6.091  1.9156 -0.7071 -1.1539
 2818TIP3   OH229944   1.534   6.086   4.702  0.0820 -0.3862 -0.3529
 2818TIP3    H129945   1.620   6.093   4.660 -0.0099  0.7563 -0.3723
 2818TIP3    H229946   1.475   6.136   4.645 -0.5094 -0.7613 -0.0851
 2819TIP3   OH229947   1.179   0.816   5.811 -0.1165 -0.5914  0.0474
 2819TIP3    H129948   1.110   0.751   5.797 -0.1579 -0.9509  1.7071
 2819TIP3    H229949   1.243   0.797   5.743 -2.4075  0.9047 -2.7344
 2820TIP3   OH229950   1.084   5.774   3.345  0.1566 -0.0497  0.3380
 2820TIP3    H129951   1.111   5.702   3.402 -0.3717  0.7009  1.5827
 2820TIP3    H229952   1.087   5.852   3.401  0.2387  0.8281 -0.8364
 2821TIP3   OH229953   5.094   1.441   0.780  0.5278  0.2286  1.0823
 2821TIP3    H129954   5.111   1.433   0.686  1.0180 -0.6011  1.2306
 2821TIP3    H229955   5.079   1.535   0.794  1.6731  0.5347  0.3817
 2822TIP3   OH229956   5.955   5.492   2.746 -0.2660 -0.1195  0.4015
 2822TIP3    H129957   6.046   5.463   2.734 -0.2003  0.0207  0.5429
 2822TIP3    H229958   5.903   5.432   2.694 -0.1441 -0.5651  0.7904
 2823TIP3   OH229959   4.246   3.913   5.134 -0.6837  0.2878 -0.1882
 2823TIP3    H129960   4.186   3.848   5.171  0.0859 -0.9622 -1.0559
 2823TIP3    H229961   4.289   3.867   5.063 -0.5464  1.9652 -1.2261
 2824TIP3   OH229962   0.044   6.502   5.020  0.1973 -0.0968 -1.1542
 2824TIP3    H129963   0.015   6.588   4.990  1.4015  0.6672 -0.2113
 2824TIP3    H229964   0.091   6.519   5.102  2.8393 -1.2833 -2.3064
 2825TIP3   OH229965   4.905   5.020  13.201 -0.3383  1.0783 -0.4165
 2825TIP3    H129966   4.868   5.104  13.174 -3.0191 -0.6974 -2.8295
 2825TIP3    H229967   4.830   4.961  13.207  1.6055 -1.6020 -0.5813
 2826TIP3   OH229968   3.394   4.705   1.639  0.6852  0.0949 -0.0777
 2826TIP3    H129969   3.422   4.728   1.728  0.9164 -1.9173  0.4337
 2826TIP3    H229970   3.475   4.703   1.588  0.3954  2.6495 -0.7338
 2827TIP3   OH229971   0.535   1.068  14.687 -0.1231 -0.3188  0.0201
 2827TIP3    H129972   0.528   1.017  14.606 -2.3541  1.4693 -1.0316
 2827TIP3    H229973   0.467   1.031  14.744  0.0320 -0.2225  0.2685
 2828TIP3   OH229974   3.258   0.237   2.052  0.1881  0.7193  0.3817
 2828TIP3    H129975   3.185   0.240   1.990 -0.7585  0.2363  1.4156
 2828TIP3    H229976   3.304   0.156   2.031 -0.5745  0.1671  0.7509
 2829TIP3   OH229977   3.999   3.240  12.407 -0.2596 -0.1468  0.5619
 2829TIP3    H129978   3.986   3.312  12.469 -1.0715 -0.7813  1.1638
 2829TIP3    H229979   3.967   3.274  12.324 -0.0730  0.3909  0.7069
 2830TIP3   OH229980   3.568   2.971  16.916  0.3052 -0.3157 -0.0981
 2830TIP3    H129981   3.626   2.924  16.977 -1.4992 -0.0430  1.9592
 2830TIP3    H229982   3.504   3.014  16.973 -2.4868 -1.3153 -2.2633
 2831TIP3   OH229983   6.471   3.631   0.431 -0.6204  0.4072 -0.4443
 2831TIP3    H129984   6.548   3.576   0.419 -0.1984  0.9994 -0.4778
 2831TIP3    H229985   6.440   3.649   0.342 -1.0228 -0.1309 -0.4213
 2832TIP3   OH229986   2.215   2.914   4.630  0.2979  0.3054  0.3649
 2832TIP3    H129987   2.259   2.835   4.598 -1.0924 -0.5102  0.4007
 2832TIP3    H229988   2.123   2.890   4.635 -0.1521  1.9218  0.4332
 2833TIP3   OH229989   4.814   3.964  13.090  0.3133 -0.1920  0.4366
 2833TIP3    H129990   4.800   3.998  13.178 -1.1073 -0.7229  0.4380
 2833TIP3    H229991   4.908   3.977  13.074  0.3269  1.2089  1.4653
 2834TIP3   OH229992   2.509   5.244   0.310  0.3704 -0.2555  0.0465
 2834TIP3    H129993   2.460   5.259   0.229  1.4763  0.8862 -0.4332
 2834TIP3    H229994   2.571   5.174   0.288 -0.7294 -1.4328  0.5454
 2835TIP3   OH229995   3.191   5.582   0.626 -0.5229 -0.1073  0.0220
 2835TIP3    H129996   3.104   5.549   0.649 -0.7836  0.2359 -0.4546
 2835TIP3    H229997   3.250   5.537   0.686 -0.8105 -1.8561 -0.9154
 2836TIP3   OH229998   4.193   2.478  12.388 -0.0501 -0.5868 -0.5908
 2836TIP3    H129999   4.190   2.460  12.482  0.2994  0.3707 -0.3890
 2836TIP3    H230000   4.143   2.406  12.348  1.0280 -1.8297  0.1956
 2837TIP3   OH230001   4.770   1.023   6.046 -0.2971 -0.0539 -0.3135
 2837TIP3    H130002   4.823   1.038   6.124 -1.2344  1.7796  0.0070
 2837TIP3    H230003   4.830   1.041   5.973  0.4799 -1.4390 -0.0717
 2838TIP3   OH230004   4.738   1.048   0.217  0.5950  0.1392 -0.6136
 2838TIP3    H130005   4.801   1.095   0.163  2.6729  1.6497  2.7995
 2838TIP3    H230006   4.701   1.115   0.274 -0.1264 -1.5935  1.0568
 2839TIP3   OH230007   2.649   4.915   0.573 -0.5230  0.5136 -0.1037
 2839TIP3    H130008   2.691   4.994   0.606 -1.4614  0.7718  0.5091
 2839TIP3    H230009   2.693   4.844   0.619  1.3876  0.5222 -1.7729
 2840TIP3   OH230010   5.599   2.673  16.409 -0.0762  0.1725  0.1455
 2840TIP3    H130011   5.626   2.584  16.385 -0.7152 -0.1007  0.4337
 2840TIP3    H230012   5.622   2.680  16.502 -0.8808 -0.0331  0.3730
 2841TIP3   OH230013   1.055   3.816  14.803  0.5601  0.4563 -0.4065
 2841TIP3    H130014   1.080   3.894  14.851  0.9262 -0.5968  1.1832
 2841TIP3    H230015   1.136   3.784  14.764  0.1999  1.5467 -2.2178
 2842TIP3   OH230016   2.898   5.977   5.931 -0.5254  0.1107  0.1931
 2842TIP3    H130017   2.882   5.995   6.024 -0.6860  0.4140  0.1065
 2842TIP3    H230018   2.966   5.909   5.932  1.2823  1.8159  0.5257
 2843TIP3   OH230019   1.730   0.822   2.647 -0.3361 -0.0961  0.1115
 2843TIP3    H130020   1.758   0.733   2.627  0.0350  0.1904 -0.6828
 2843TIP3    H230021   1.702   0.858   2.562 -0.9773  0.3743  0.5075
 2844TIP3   OH230022   2.069   3.716  13.893 -0.1573  0.5494  0.4133
 2844TIP3    H130023   2.160   3.729  13.865  0.2747  0.0140  1.4870
 2844TIP3    H230024   2.053   3.791  13.952  0.0675 -0.0790  1.2989
 2845TIP3   OH230025   2.476   3.447   4.125  0.5029 -0.2202 -0.1271
 2845TIP3    H130026   2.510   3.518   4.070  0.7004 -0.5879 -0.4912
 2845TIP3    H230027   2.468   3.373   4.065  0.1417 -0.4590  0.2141
 2846TIP3   OH230028   6.024   5.592   2.416  0.2742  0.6640 -0.1026
 2846TIP3    H130029   5.933   5.607   2.390  0.5919  1.6075 -0.6920
 2846TIP3    H230030   6.025   5.500   2.444 -0.8878  0.6801  0.0684
 2847TIP3   OH230031   4.321   6.063  13.455  0.2422 -0.0489 -0.1749
 2847TIP3    H130032   4.383   6.062  13.528 -1.5873 -2.2952  1.4678
 2847TIP3    H230033   4.316   6.155  13.429  4.7027  0.2181 -0.8936
 2848TIP3   OH230034   1.079   0.578   3.582  0.7368 -0.0111 -0.2358
 2848TIP3    H130035   1.102   0.528   3.503  2.1298 -0.8478  0.6730
 2848TIP3    H230036   1.125   0.534   3.653 -0.3790  0.8204  1.0447
 2849TIP3   OH230037   0.922   5.691  13.006  0.0813  0.5383  0.2257
 2849TIP3    H130038   0.882   5.649  13.082 -0.4161 -1.0177 -0.8541
 2849TIP3    H230039   0.861   5.761  12.982  0.5407  1.4385  1.5850
 2850TIP3   OH230040   3.625   4.048   5.331  0.2135 -0.1026  0.0707
 2850TIP3    H130041   3.533   4.068   5.314  0.4950 -0.3324 -2.0219
 2850TIP3    H230042   3.673   4.119   5.287  1.0670  1.2444  2.9451
 2851TIP3   OH230043   4.558   3.422  12.228 -0.3102 -0.1717  0.0169
 2851TIP3    H130044   4.488   3.360  12.206 -0.6041  0.3326 -0.5100
 2851TIP3    H230045   4.620   3.415  12.155 -1.5240  1.8573 -1.3276
 2852TIP3   OH230046   0.507   0.782   6.132 -0.1914 -0.0838  0.2603
 2852TIP3    H130047   0.464   0.728   6.066 -2.5272 -0.3103  1.8605
 2852TIP3    H230048   0.550   0.719   6.190 -0.5375 -0.0661  0.5388
 2853TIP3   OH230049   0.672   5.405   0.828 -0.0005 -0.0675 -0.5735
 2853TIP3    H130050   0.721   5.487   0.818  1.8338 -0.9538  0.5097
 2853TIP3    H230051   0.733   5.347   0.874 -2.3309 -1.0535  1.5376
 2854TIP3   OH230052   1.060   4.081  13.669  0.6952 -0.5870  0.5254
 2854TIP3    H130053   1.137   4.026  13.656 -0.1713 -1.8376  0.3796
 2854TIP3    H230054   1.060   4.142  13.595  0.9340 -1.3384 -0.1064
 2855TIP3   OH230055   2.021   3.507  14.104 -0.1092  0.2172 -0.0661
 2855TIP3    H130056   1.935   3.549  14.103 -1.0999 -1.6693 -0.8500
 2855TIP3    H230057   2.077   3.562  14.050 -0.7210  1.6454  0.7185
 2856TIP3   OH230058   0.656   0.671  15.407 -0.1801 -0.0764  0.1259
 2856TIP3    H130059   0.613   0.736  15.351  0.9666 -0.0690 -0.7724
 2856TIP3    H230060   0.596   0.661  15.481 -0.3904  2.0319  0.3166
 2857TIP3   OH230061   0.211   0.747   1.124  0.3083  0.4416 -0.0942
 2857TIP3    H130062   0.131   0.793   1.149 -0.1644  0.3137 -1.2914
 2857TIP3    H230063   0.257   0.808   1.066  2.1789  1.3994  2.2363
 2858TIP3   OH230064   2.334   5.000   2.485  0.3005 -0.4220 -0.1586
 2858TIP3    H130065   2.285   5.039   2.557  1.6972  3.1520 -0.9130
 2858TIP3    H230066   2.426   5.004   2.513  0.7410 -0.3057 -1.5488
 2859TIP3   OH230067   5.209   4.731   0.487  0.3277 -0.4391 -0.0149
 2859TIP3    H130068   5.239   4.661   0.429  1.3233  1.5412 -2.1091
 2859TIP3    H230069   5.156   4.788   0.430  1.1272  1.4799  1.0494
 2860TIP3   OH230070   4.148   4.539  16.978 -0.7077  0.3276  0.5317
 2860TIP3    H130071   4.075   4.573  17.030 -0.4895  1.8692 -0.1405
 2860TIP3    H230072   4.211   4.611  16.975  0.4966 -0.6962  0.4080
 2861TIP3   OH230073   6.106   3.880   5.463  0.0828  0.0302 -0.0827
 2861TIP3    H130074   6.067   3.935   5.394 -3.4394 -0.7339  1.1335
 2861TIP3    H230075   6.165   3.822   5.415 -0.3858  1.1238 -2.1386
 2862TIP3   OH230076   4.196   5.752  15.280  0.2582 -0.3194  0.1849
 2862TIP3    H130077   4.237   5.667  15.296 -0.0344 -0.2963  1.0872
 2862TIP3    H230078   4.229   5.808  15.350 -1.8786 -0.5037  1.4265
 2863TIP3   OH230079   3.560   3.273   0.012 -0.9642 -0.2355  0.1757
 2863TIP3    H130080   3.500   3.345   0.031 -1.5299 -0.7545  0.3526
 2863TIP3    H230081   3.646   3.306   0.040 -1.6457 -0.7513  3.2647
 2864TIP3   OH230082   4.134   2.941   1.270  0.6954  0.2261  0.3675
 2864TIP3    H130083   4.077   2.997   1.322 -0.8517 -1.4075  0.5487
 2864TIP3    H230084   4.074   2.887   1.218  2.1683  0.9348 -2.2356
 2865TIP3   OH230085   6.027   0.518   0.545 -0.3322  0.2464  0.2509
 2865TIP3    H130086   6.101   0.459   0.556  0.5516  1.5176  1.4560
 2865TIP3    H230087   6.064   0.598   0.510 -0.9736  1.1573  1.5443
 2866TIP3   OH230088   6.323   6.510   1.078  0.2478  0.2643  0.4702
 2866TIP3    H130089   6.364   6.519   0.992 -2.8722  1.1981 -1.1076
 2866TIP3    H230090   6.330   6.597   1.117  0.2145  0.3093  0.3794
 2867TIP3   OH230091   2.400   6.473   2.786 -0.1963  0.4886 -0.1419
 2867TIP3    H130092   2.435   6.557   2.756  0.7799  0.6962  1.4948
 2867TIP3    H230093   2.305   6.485   2.783 -0.1027  1.0678 -1.4732
 2868TIP3   OH230094   2.770   6.465   4.186 -0.4266 -0.2761  0.3150
 2868TIP3    H130095   2.795   6.373   4.176  1.7949  0.0125  2.4617
 2868TIP3    H230096   2.675   6.461   4.198 -0.3132 -2.3890  1.0934
 2869TIP3   OH230097   6.064   0.929  10.947 -0.3532 -0.2091  0.0374
 2869TIP3    H130098   5.990   0.949  10.889  0.0455  3.1230  0.4717
 2869TIP3    H230099   6.140   0.966  10.903  0.7150 -1.4679  0.7285
 2870TIP3   OH230100   0.485   1.238   1.474  0.2539 -0.4291  0.8841
 2870TIP3    H130101   0.394   1.213   1.454  0.3680 -0.4459  0.3925
 2870TIP3    H230102   0.533   1.155   1.474  0.5273 -0.2830 -0.2030
 2871TIP3   OH230103   4.458   2.199   3.278  0.1461  0.2752 -0.1941
 2871TIP3    H130104   4.459   2.295   3.267  0.2370  0.4244  0.9590
 2871TIP3    H230105   4.384   2.182   3.335  1.6844 -0.0369  1.8274
 2872TIP3   OH230106   3.143   1.097  12.180 -0.3716  0.1822  0.1221
 2872TIP3    H130107   3.159   1.138  12.095 -0.6447  0.1282  0.0456
 2872TIP3    H230108   3.064   1.139  12.214 -0.7164 -0.3528 -0.0042
 2873TIP3   OH230109   5.000   6.778  11.047 -0.4009 -0.3890 -0.0623
 2873TIP3    H130110   5.092   6.759  11.068  0.5565 -0.0038 -3.2976
 2873TIP3    H230111   4.994   6.873  11.053 -0.8885 -0.4764  1.0479
 2874TIP3   OH230112   0.532   1.196  16.968 -0.1699 -0.3137 -0.6443
 2874TIP3    H130113   0.589   1.269  16.942 -1.3080  0.4180 -1.1813
 2874TIP3    H230114   0.452   1.239  17.000 -0.6233 -1.3254 -0.3843
 2875TIP3   OH230115   5.127   1.360   6.168 -0.0312  0.7534 -0.3805
 2875TIP3    H130116   5.056   1.309   6.207  0.3982  0.7862  0.4601
 2875TIP3    H230117   5.194   1.295   6.147 -0.0648  0.7974 -0.6296
 2876TIP3   OH230118   4.309   4.064   0.029 -0.2186 -0.4740  0.7913
 2876TIP3    H130119   4.343   4.136   0.081 -0.6743  0.2740  0.0643
 2876TIP3    H230120   4.236   4.101  -0.020 -1.1074 -1.6724  1.1582
 2877TIP3   OH230121   2.319   4.330   0.353 -0.3478 -0.3510 -0.3111
 2877TIP3    H130122   2.293   4.412   0.313  0.7094 -0.1240 -0.5753
 2877TIP3    H230123   2.414   4.327   0.341 -0.4612 -2.0295 -1.1232
 2878TIP3   OH230124   2.043   4.312  15.891 -0.0612  0.4371 -0.0705
 2878TIP3    H130125   2.025   4.399  15.926  1.3458  0.7639 -0.1072
 2878TIP3    H230126   2.086   4.327  15.807  0.2400 -0.2955 -0.0600
 2879TIP3   OH230127   2.682   2.807  14.538  0.0408  0.7271 -0.2709
 2879TIP3    H130128   2.596   2.843  14.517 -0.6154 -0.0732  0.9765
 2879TIP3    H230129   2.698   2.741  14.470 -0.2978  0.8928 -0.5143
 2880TIP3   OH230130   1.542   4.317   2.621  0.2401  0.1079  0.4685
 2880TIP3    H130131   1.483   4.299   2.694 -2.8424  0.5819 -1.6953
 2880TIP3    H230132   1.531   4.410   2.603 -0.8392 -0.3963 -1.8860
 2881TIP3   OH230133   4.085   6.054   4.190 -0.1032 -0.4025 -0.0407
 2881TIP3    H130134   4.041   6.064   4.106  0.0265 -0.0273 -0.0669
 2881TIP3    H230135   4.015   6.055   4.255 -0.1662 -0.1798 -0.1103
 2882TIP3   OH230136   5.411   5.051   0.976  0.5726 -0.1822 -0.2623
 2882TIP3    H130137   5.343   4.983   0.973  0.7673 -0.5116  1.5470
 2882TIP3    H230138   5.422   5.078   0.885 -3.4829  1.4327 -0.4640
 2883TIP3   OH230139   3.976   0.503  16.901 -0.1376  0.0789  0.0020
 2883TIP3    H130140   3.909   0.572  16.900  0.1449  0.3550  0.0571
 2883TIP3    H230141   4.035   0.526  16.830 -1.5145 -1.5809 -1.8152
 2884TIP3   OH230142   2.592   4.157  16.419 -0.1625 -0.0549 -0.4382
 2884TIP3    H130143   2.608   4.211  16.341  0.5420 -0.1310 -0.3551
 2884TIP3    H230144   2.582   4.220  16.490  1.3802 -0.0331 -0.2130
 2885TIP3   OH230145   2.160   3.459   3.757  0.0310 -0.2378 -0.0735
 2885TIP3    H130146   2.112   3.488   3.835  0.6357 -1.5910  0.8262
 2885TIP3    H230147   2.203   3.539   3.725 -1.3261  0.6250  0.1443
 2886TIP3   OH230148   5.486   0.293  15.489  0.3323 -0.2426 -0.2091
 2886TIP3    H130149   5.507   0.206  15.454 -0.3944 -1.1960  1.5780
 2886TIP3    H230150   5.439   0.336  15.418  1.2155 -1.0809 -1.3398
 2887TIP3   OH230151   6.346   2.190   3.394 -0.6644 -0.0567 -0.0457
 2887TIP3    H130152   6.409   2.197   3.322  0.2203 -0.2527  0.6850
 2887TIP3    H230153   6.393   2.224   3.470 -1.6389  0.2946  0.4128
 2888TIP3   OH230154   0.851   0.970   5.804  0.3931 -0.1490  0.3829
 2888TIP3    H130155   0.882   0.983   5.715 -0.2338  0.7501  0.2858
 2888TIP3    H230156   0.888   0.886   5.830  1.2558 -0.0362 -0.4296
 2889TIP3   OH230157   4.546   5.853   4.754 -0.5885 -0.4807  0.0049
 2889TIP3    H130158   4.599   5.889   4.683 -0.6588  0.7331  0.5460
 2889TIP3    H230159   4.609   5.815   4.816 -0.2645  1.5324  0.9675
 2890TIP3   OH230160   3.087   4.742  17.099 -0.1337  0.5647  0.1919
 2890TIP3    H130161   3.054   4.732  17.189  0.7462 -2.1473  0.3120
 2890TIP3    H230162   3.182   4.741  17.108 -0.0302 -0.5647 -0.7989
 2891TIP3   OH230163   4.628   6.115   3.302 -0.3116 -0.1339  0.5275
 2891TIP3    H130164   4.557   6.052   3.293  0.0100 -0.5423  0.7940
 2891TIP3    H230165   4.684   6.078   3.370  0.9894 -0.6217 -0.7651
 2892TIP3   OH230166   6.367   2.222   5.101  0.0861 -0.3102  0.0290
 2892TIP3    H130167   6.355   2.298   5.044  0.3626 -0.3511 -0.0849
 2892TIP3    H230168   6.284   2.215   5.149 -0.1670 -0.3085 -0.4037
 2893TIP3   OH230169   2.168   1.419   1.204 -0.2942 -0.1471  0.5501
 2893TIP3    H130170   2.146   1.396   1.294  1.1187 -1.4896  0.5974
 2893TIP3    H230171   2.259   1.389   1.193 -0.3644  0.1833 -1.2480
 2894TIP3   OH230172   0.167   2.620  12.540 -0.2615 -0.1008  0.9657
 2894TIP3    H130173   0.129   2.693  12.588 -1.5325  0.3434 -0.6230
 2894TIP3    H230174   0.219   2.573  12.605  0.2621  1.9536  2.1281
 2895TIP3   OH230175   6.508   2.072  13.668  0.6357  0.0952  0.1073
 2895TIP3    H130176   6.444   2.053  13.599  0.3653 -1.2052  0.6944
 2895TIP3    H230177   6.507   1.995  13.724  0.3391  1.3997  1.9979
 2896TIP3   OH230178   0.027   1.729   1.569  0.4573 -0.3890 -0.0088
 2896TIP3    H130179  -0.052   1.769   1.607 -0.3007 -0.3714 -1.5324
 2896TIP3    H230180   0.095   1.795   1.581  0.7749 -1.1362  3.0291
 2897TIP3   OH230181   0.504   5.155   0.364 -0.0423  0.1598 -0.2340
 2897TIP3    H130182   0.467   5.232   0.321 -0.1854  0.4439  0.3846
 2897TIP3    H230183   0.507   5.088   0.296 -0.5030  0.5250 -0.6167
 2898TIP3   OH230184   5.631   5.357   0.193  0.3570  0.9427 -0.4621
 2898TIP3    H130185   5.596   5.354   0.104 -1.2352 -0.0022  0.1565
 2898TIP3    H230186   5.595   5.437   0.230 -3.4837 -1.2070  0.9847
 2899TIP3   OH230187   1.902   0.658   0.368 -0.1653  0.2081  0.3021
 2899TIP3    H130188   1.985   0.702   0.387 -0.3264  0.5511  0.2254
 2899TIP3    H230189   1.862   0.642   0.454  1.2259 -2.4659  0.5555
 2900TIP3   OH230190   2.247   4.452  13.447  0.3656 -0.0025 -0.5227
 2900TIP3    H130191   2.168   4.504  13.434  0.9185  0.6035 -1.5444
 2900TIP3    H230192   2.246   4.387  13.377 -0.5347 -1.6902  0.9883
 2901TIP3   OH230193   5.188   1.978  15.887  0.0667  0.7893 -0.5919
 2901TIP3    H130194   5.228   1.952  15.970 -0.9766 -1.5167 -0.7474
 2901TIP3    H230195   5.252   2.038  15.849  0.4529  2.1501  1.9578
 2902TIP3   OH230196   3.831   5.367  16.069 -0.0529 -0.6086 -0.2327
 2902TIP3    H130197   3.737   5.357  16.051 -0.4687 -0.0415  1.4105
 2902TIP3    H230198   3.857   5.283  16.108 -0.8486  0.4916  2.9257
 2903TIP3   OH230199   3.897   3.727  13.772  0.1071  0.2348 -0.4618
 2903TIP3    H130200   3.931   3.772  13.849  0.5511  1.7990 -1.5165
 2903TIP3    H230201   3.832   3.666  13.806  0.6310  0.5422  1.1760
 2904TIP3   OH230202   0.906   2.914  16.906  0.2898  0.1844 -0.6565
 2904TIP3    H130203   0.939   2.827  16.927  0.6255  0.5246  0.2493
 2904TIP3    H230204   0.985   2.968  16.898  0.1411  0.2262 -2.1356
 2905TIP3   OH230205   0.754   6.428   4.270  1.0129 -0.3784  0.0843
 2905TIP3    H130206   0.767   6.480   4.191 -0.4687  1.8257  1.1850
 2905TIP3    H230207   0.827   6.366   4.271  1.3912 -0.0826 -2.6677
 2906TIP3   OH230208   1.818   3.433   0.820  0.0242  0.1392 -0.3860
 2906TIP3    H130209   1.723   3.424   0.820 -0.0199 -0.0499 -3.2105
 2906TIP3    H230210   1.850   3.343   0.812  0.4167  0.3024 -0.6390
 2907TIP3   OH230211   3.048   2.329   5.693 -0.3080 -0.0793  0.5207
 2907TIP3    H130212   3.099   2.260   5.735  1.1448  0.4121 -0.3873
 2907TIP3    H230213   3.038   2.396   5.761  1.4125  0.3951  0.3586
 2908TIP3   OH230214   2.509   3.941   5.904 -0.4188 -0.1031  0.1245
 2908TIP3    H130215   2.513   3.953   5.999 -1.5839  1.4932  0.0094
 2908TIP3    H230216   2.422   3.905   5.887 -0.3290 -0.1071 -0.3568
 2909TIP3   OH230217   0.731   0.221  12.727  0.3539  0.1989  0.1484
 2909TIP3    H130218   0.703   0.188  12.642 -0.7952  0.3658  0.4444
 2909TIP3    H230219   0.772   0.306  12.708 -0.4291  0.5138 -0.1925
 2910TIP3   OH230220   4.876   1.555   6.346  0.1989 -0.5704  0.5753
 2910TIP3    H130221   4.965   1.582   6.369  1.0621 -2.3744 -0.4476
 2910TIP3    H230222   4.887   1.473   6.297 -1.9277  0.0576 -1.0989
 2911TIP3   OH230223   2.222   1.342  15.662  0.5502 -0.1319  0.2559
 2911TIP3    H130224   2.173   1.272  15.619 -0.7326  0.5959  0.4924
 2911TIP3    H230225   2.166   1.420  15.653 -0.1709 -0.0878  3.8909
 2912TIP3   OH230226   3.955   5.468   2.815  0.0324  0.3573  0.4260
 2912TIP3    H130227   3.877   5.489   2.763  1.0548  0.1267 -1.2763
 2912TIP3    H230228   4.024   5.454   2.750  0.7693 -2.7004  1.6717
 2913TIP3   OH230229   3.551   3.953  15.389 -0.1181  0.1698  0.7281
 2913TIP3    H130230   3.561   3.917  15.301  3.0293 -0.0583  1.0805
 2913TIP3    H230231   3.553   4.048  15.376 -0.4204  0.1459  0.4922
 2914TIP3   OH230232   0.475   2.737  15.356 -0.4708  0.1229  0.1265
 2914TIP3    H130233   0.434   2.686  15.287 -1.8694  1.2798  0.0556
 2914TIP3    H230234   0.404   2.755  15.418 -0.3852  2.8895 -0.4124
 2915TIP3   OH230235   1.635   6.696  14.637  0.3631  0.3019  0.1627
 2915TIP3    H130236   1.679   6.774  14.604  1.4832 -0.6237 -0.6118
 2915TIP3    H230237   1.694   6.664  14.706 -0.0682  0.1152  0.4422
 2916TIP3   OH230238   5.630   0.479   3.249 -0.0117 -0.8204  0.2030
 2916TIP3    H130239   5.550   0.530   3.258  0.1795 -0.6933  1.2719
 2916TIP3    H230240   5.600   0.390   3.230 -0.3484 -0.3455 -1.7371
 2917TIP3   OH230241   6.394   0.823  16.580 -0.0411  0.5024 -0.2005
 2917TIP3    H130242   6.367   0.889  16.517  0.2075  1.8490  1.0454
 2917TIP3    H230243   6.326   0.824  16.647 -1.5623 -2.5825 -1.4869
 2918TIP3   OH230244   5.804   4.021   5.516 -0.3149 -0.2892  0.0404
 2918TIP3    H130245   5.731   4.070   5.552 -0.1988 -1.1916  1.5840
 2918TIP3    H230246   5.813   3.945   5.574  0.9970 -0.8898 -0.8971
 2919TIP3   OH230247   6.744   1.027  12.793 -0.2016  0.1971 -0.6298
 2919TIP3    H130248   6.673   1.085  12.764  0.0159  0.9901  0.3508
 2919TIP3    H230249   6.809   1.032  12.723  0.2889  2.0121 -0.1115
 2920TIP3   OH230250   5.338   6.256  12.127  0.2353  0.6451  0.0966
 2920TIP3    H130251   5.332   6.287  12.217  2.4255  0.3418  0.3955
 2920TIP3    H230252   5.268   6.303  12.081 -0.5648  1.2128  1.8257
 2921TIP3   OH230253   6.224   1.477  11.777  0.3532  0.3448 -0.2175
 2921TIP3    H130254   6.316   1.501  11.789  0.5380  0.3112 -1.4244
 2921TIP3    H230255   6.176   1.541  11.829  0.9908  1.4714 -0.9557
 2922TIP3   OH230256   0.444   3.237   3.576  0.0722  0.3129  0.1463
 2922TIP3    H130257   0.409   3.219   3.489 -1.6157  1.0555  0.6187
 2922TIP3    H230258   0.426   3.158   3.626  1.9946 -0.5293 -0.3994
 2923TIP3   OH230259   6.685   3.924   0.086 -0.2803 -0.3080 -0.2209
 2923TIP3    H130260   6.637   3.984   0.143  0.9026  1.3429 -0.8787
 2923TIP3    H230261   6.774   3.926   0.120  0.3054  0.2230 -1.7076
 2924TIP3   OH230262   2.782   1.906   3.186  0.2859  0.5458 -0.4432
 2924TIP3    H130263   2.868   1.925   3.149 -0.2107  0.8725 -1.4699
 2924TIP3    H230264   2.767   1.813   3.165  0.6341  0.3184  0.2732
 2925TIP3   OH230265   5.364   4.895   1.930 -0.6099  0.4696 -0.3123
 2925TIP3    H130266   5.358   4.943   2.013  1.5640 -0.7796  0.6595
 2925TIP3    H230267   5.359   4.962   1.862 -0.4095  1.7631  0.9097
 2926TIP3   OH230268   5.174   4.883  12.982 -0.1652 -0.4305  0.5452
 2926TIP3    H130269   5.142   4.862  13.069 -1.8707 -1.3999 -0.2674
 2926TIP3    H230270   5.188   4.798  12.940 -1.4889 -0.0016 -0.8382
 2927TIP3   OH230271   5.464   2.029  16.269  0.0709  0.1916  0.4044
 2927TIP3    H130272   5.428   1.946  16.300 -0.7582  0.3105 -0.2190
 2927TIP3    H230273   5.548   2.037  16.314 -0.1167 -0.6944  0.9267
 2928TIP3   OH230274   5.254   3.732  17.242 -0.0653  0.4023  0.4370
 2928TIP3    H130275   5.266   3.638  17.226  0.9265  0.4506  0.8097
 2928TIP3    H230276   5.291   3.747  17.329  1.3339  1.4169 -0.2914
 2929TIP3   OH230277   1.028   3.961   2.772  0.4905  0.0111  0.5792
 2929TIP3    H130278   1.047   3.976   2.864  1.9601  0.9685  0.1633
 2929TIP3    H230279   1.104   3.996   2.726  0.5268 -1.8843 -0.9307
 2930TIP3   OH230280   5.554   4.462  15.911 -0.2843 -0.6694 -0.1360
 2930TIP3    H130281   5.499   4.531  15.874  0.0543 -0.6509 -0.6283
 2930TIP3    H230282   5.596   4.502  15.987 -0.3650 -0.4442 -0.2086
 2931TIP3   OH230283   6.630   1.485  16.788 -0.1101 -0.8917 -0.2330
 2931TIP3    H130284   6.692   1.525  16.727  1.1179 -2.7359 -0.2723
 2931TIP3    H230285   6.572   1.557  16.814  0.8288  0.4570 -1.7066
 2932TIP3   OH230286   5.364   4.545  14.378  0.5085  0.1872  0.6889
 2932TIP3    H130287   5.408   4.613  14.429  0.2574  1.0222 -0.1670
 2932TIP3    H230288   5.426   4.523  14.309  0.5430 -0.3891  0.8959
 2933TIP3   OH230289   6.119   5.004  10.698 -0.3413 -0.2094 -0.1402
 2933TIP3    H130290   6.130   5.039  10.786 -0.0989 -0.9333  0.1224
 2933TIP3    H230291   6.100   5.081  10.644 -0.1050  0.2885  0.4724
 2934TIP3   OH230292   5.742   4.876   0.823  0.1808  0.8483 -0.0622
 2934TIP3    H130293   5.808   4.944   0.836 -0.8083  1.6862  0.8235
 2934TIP3    H230294   5.698   4.868   0.909 -0.8271  0.2981 -0.6040
 2935TIP3   OH230295   4.256   5.544  14.541 -0.9220  0.3731 -0.2458
 2935TIP3    H130296   4.217   5.525  14.626 -0.6518 -1.3752 -0.4639
 2935TIP3    H230297   4.196   5.506  14.477  1.2463 -3.0021 -0.5643
 2936TIP3   OH230298   1.158   1.104  15.791  0.3779 -0.1203  0.6969
 2936TIP3    H130299   1.211   1.129  15.866  0.5485  0.2353  0.4584
 2936TIP3    H230300   1.072   1.143  15.808  0.3652 -0.1924  0.7957
 2937TIP3   OH230301   6.655   0.902   3.981 -0.0303  0.3350 -0.0195
 2937TIP3    H130302   6.572   0.942   3.954 -0.7837  0.8658  2.7954
 2937TIP3    H230303   6.716   0.975   3.987  0.2940  0.1357 -0.7881
 2938TIP3   OH230304   2.591   4.007   4.700 -0.3427 -0.0915  0.5073
 2938TIP3    H130305   2.568   3.929   4.751  0.6369 -2.3218 -2.1981
 2938TIP3    H230306   2.518   4.019   4.640 -0.3417  0.9136  0.6923
 2939TIP3   OH230307   4.786   4.928   6.000  0.3802 -0.9291 -0.3279
 2939TIP3    H130308   4.870   4.941   6.045  0.7120 -0.1970 -1.1408
 2939TIP3    H230309   4.796   4.845   5.954  0.5257 -1.0256 -0.1234
 2940TIP3   OH230310   6.279   3.360   0.489  0.1014 -0.3225 -0.2318
 2940TIP3    H130311   6.315   3.389   0.405 -0.4100  0.9553 -0.0315
 2940TIP3    H230312   6.318   3.420   0.553  0.8495 -1.5701  0.5281
 2941TIP3   OH230313   6.226   3.007  12.159 -0.1935  0.2595  0.3484
 2941TIP3    H130314   6.299   3.056  12.120  0.4466 -0.6648  0.3700
 2941TIP3    H230315   6.152   3.067  12.152  0.7051  1.5024  0.9442
 2942TIP3   OH230316   1.043   4.690   2.522  0.7522 -0.0613 -0.8478
 2942TIP3    H130317   0.998   4.659   2.443  1.4746 -0.6428 -1.0348
 2942TIP3    H230318   0.998   4.645   2.594 -0.1343  0.7307 -0.8810
 2943TIP3   OH230319   2.653   2.787  13.708  0.3953  0.1253  0.4746
 2943TIP3    H130320   2.744   2.808  13.729  0.3412 -0.6666  1.6096
 2943TIP3    H230321   2.656   2.695  13.682 -0.4201 -0.8490  3.3704
 2944TIP3   OH230322   5.516   2.132   2.060 -0.1252  0.3098 -0.2768
 2944TIP3    H130323   5.454   2.059   2.055 -1.0737  1.1475 -0.9331
 2944TIP3    H230324   5.461   2.210   2.067  0.8753  1.0078  0.0328
 2945TIP3   OH230325   5.841   2.934  16.124 -0.5963  0.3272 -0.5448
 2945TIP3    H130326   5.825   3.028  16.120 -3.7506 -0.1516 -1.8050
 2945TIP3    H230327   5.859   2.917  16.217 -2.4700  1.8662  0.1611
 2946TIP3   OH230328   1.319   6.084   5.049 -0.1933 -0.5746  0.4393
 2946TIP3    H130329   1.363   6.002   5.026 -0.3395 -0.7024  0.6096
 2946TIP3    H230330   1.288   6.070   5.138 -0.4887 -0.4496  0.3570
 2947TIP3   OH230331   2.051   1.758  14.256  0.2412  0.7383 -1.0081
 2947TIP3    H130332   1.972   1.811  14.245  0.1510  1.3161  1.7472
 2947TIP3    H230333   2.025   1.689  14.318  1.5480  0.1299 -1.1098
 2948TIP3   OH230334   1.506   3.525   2.807  0.0123 -0.1404 -0.0184
 2948TIP3    H130335   1.527   3.438   2.840  1.2508 -0.1229 -0.7084
 2948TIP3    H230336   1.466   3.510   2.721 -1.7970 -0.1031  0.7552
 2949TIP3   OH230337   1.734   2.519  13.055  0.1186  0.2210  0.1463
 2949TIP3    H130338   1.810   2.461  13.055  0.1527  0.2621  0.6627
 2949TIP3    H230339   1.659   2.460  13.043 -0.0250 -0.1974  2.5709
 2950TIP3   OH230340   4.193   0.980   3.638  0.3121 -0.0417  0.0246
 2950TIP3    H130341   4.104   0.996   3.608  0.3880 -0.4306 -0.4212
 2950TIP3    H230342   4.223   0.905   3.586  0.3971 -0.8166  1.1609
 2951TIP3   OH230343   6.746   5.847   3.007  0.1464  0.2305  0.3465
 2951TIP3    H130344   6.755   5.785   3.079  1.7983  0.0306  0.0045
 2951TIP3    H230345   6.671   5.815   2.956 -0.2535 -0.3271  1.2631
 2952TIP3   OH230346   3.822   0.717  13.850  0.0157 -0.7356 -0.2055
 2952TIP3    H130347   3.832   0.808  13.822  1.6371 -0.9435 -0.4111
 2952TIP3    H230348   3.912   0.683  13.853 -0.6574 -2.7923 -1.6535
 2953TIP3   OH230349   6.044   4.544  12.589  0.3835  0.4556  0.2054
 2953TIP3    H130350   6.079   4.537  12.678  2.9830 -0.8155 -0.8065
 2953TIP3    H230351   5.983   4.470  12.582  0.5106  0.2867  0.7696
 2954TIP3   OH230352   3.245   3.376   3.625  0.3098  0.2264  0.2219
 2954TIP3    H130353   3.251   3.282   3.643  2.0978  0.6759  2.4532
 2954TIP3    H230354   3.163   3.404   3.666  0.8691 -0.0348  1.5932
 2955TIP3   OH230355   1.040   0.698   3.202 -0.0482 -0.0668  0.6259
 2955TIP3    H130356   0.988   0.708   3.122  0.4039 -2.5114 -0.0559
 2955TIP3    H230357   1.016   0.773   3.256 -0.3326  1.7018 -1.7996
 2956TIP3   OH230358   6.365   3.150   6.511  0.0912  0.3756  0.1152
 2956TIP3    H130359   6.447   3.199   6.505  0.6101 -0.4150  0.6071
 2956TIP3    H230360   6.301   3.213   6.543  0.9753  0.5051  1.7186
 2957TIP3   OH230361   6.372   2.853  11.964  0.2274 -0.0759  0.8772
 2957TIP3    H130362   6.315   2.862  11.887 -0.3661  0.4023  1.3652
 2957TIP3    H230363   6.335   2.912  12.029  0.7591 -0.4291  1.5189
 2958TIP3   OH230364   4.905   5.283   0.220  0.0222  0.0219 -0.4200
 2958TIP3    H130365   4.855   5.246   0.292 -1.8754  0.7657 -1.2614
 2958TIP3    H230366   4.992   5.245   0.228 -0.6640 -1.3348  1.1435
 2959TIP3   OH230367   5.837   4.473  14.292  0.3888  0.7770 -0.6527
 2959TIP3    H130368   5.880   4.388  14.280 -1.2086 -0.0504 -0.7407
 2959TIP3    H230369   5.907   4.537  14.279  1.1024 -0.4045 -3.4290
 2960TIP3   OH230370   1.396   5.973  11.762 -0.3076 -0.4426 -0.5807
 2960TIP3    H130371   1.408   6.039  11.694  0.8215 -0.4057 -0.3662
 2960TIP3    H230372   1.305   5.983  11.790 -0.2934  0.6784 -0.9032
 2961TIP3   OH230373   1.178   2.022   0.477 -0.3387  0.2646  0.1872
 2961TIP3    H130374   1.224   1.988   0.400  1.3548  0.5687  1.0218
 2961TIP3    H230375   1.146   1.943   0.521  0.0989 -0.0220  0.0110
 2962TIP3   OH230376   4.823   1.068   0.590  0.1267  0.5533  0.1882
 2962TIP3    H130377   4.831   1.130   0.517  1.2006 -1.1568 -1.2400
 2962TIP3    H230378   4.729   1.066   0.609 -0.2303  0.8695 -1.3564
 2963TIP3   OH230379   5.501   0.398  12.373 -0.2203 -0.5653  0.4487
 2963TIP3    H130380   5.469   0.388  12.463  3.2834 -2.8697  1.6717
 2963TIP3    H230381   5.458   0.328  12.324  0.1029 -1.2453  1.1186
 2964TIP3   OH230382   0.525   1.256   3.386  0.3021  0.4575  0.1198
 2964TIP3    H130383   0.609   1.299   3.407  0.7537 -0.7777  0.9687
 2964TIP3    H230384   0.543   1.163   3.397 -1.1261  0.1558  0.0428
 2965TIP3   OH230385   4.386   1.505   2.869  0.1659 -0.0414 -0.2039
 2965TIP3    H130386   4.338   1.528   2.789  0.1734  0.9606  0.0662
 2965TIP3    H230387   4.472   1.477   2.838  0.2555  0.5850 -0.5398
 2966TIP3   OH230388   4.612   1.074   3.108 -0.3180  0.6383  0.0421
 2966TIP3    H130389   4.687   1.105   3.159  1.6799 -1.6497 -1.2221
 2966TIP3    H230390   4.613   1.129   3.029  0.2521  0.4533 -0.0904
 2967TIP3   OH230391   4.708   3.764  15.967 -0.5556  0.2327  0.6330
 2967TIP3    H130392   4.639   3.713  16.009 -0.2104  0.5968  1.6760
 2967TIP3    H230393   4.771   3.698  15.936 -0.3075 -0.0152  1.6182
 2968TIP3   OH230394   6.422   2.330   4.258 -0.0043 -0.3404  0.2190
 2968TIP3    H130395   6.451   2.409   4.304 -1.0177  1.4371 -1.9797
 2968TIP3    H230396   6.340   2.306   4.301  0.7091 -0.6905  1.4100
 2969TIP3   OH230397   6.054   6.611   5.052  0.2225 -0.8758 -0.3439
 2969TIP3    H130398   6.001   6.662   4.991 -1.9127 -0.0308  2.0393
 2969TIP3    H230399   5.990   6.562   5.104  1.4762  1.3705  3.7372
 2970TIP3   OH230400   3.839   4.183   0.190 -0.3539 -0.6786 -0.2220
 2970TIP3    H130401   3.884   4.171   0.274 -1.9097 -1.9062  0.4892
 2970TIP3    H230402   3.766   4.121   0.193 -1.8453  0.9051 -1.5041
 2971TIP3   OH230403   1.389   6.760  11.478  0.5606 -0.4476 -0.6346
 2971TIP3    H130404   1.449   6.772  11.404  0.8686  0.3418 -0.2669
 2971TIP3    H230405   1.445   6.763  11.555  0.1889 -0.8547 -0.3503
 2972TIP3   OH230406   1.004   2.107  14.992 -0.0240 -0.0686 -0.5600
 2972TIP3    H130407   0.965   2.028  15.031  0.4029  0.2294  0.5097
 2972TIP3    H230408   0.952   2.123  14.914  0.2840 -1.7921 -1.1773
 2973TIP3   OH230409   3.837   1.314  12.203  0.1898 -0.6068 -0.4109
 2973TIP3    H130410   3.908   1.250  12.211  0.5907 -0.0975  0.2983
 2973TIP3    H230411   3.817   1.338  12.294  0.8566  1.1282 -0.6767
 2974TIP3   OH230412   1.937   2.246  16.097  0.6314 -0.0275  0.3702
 2974TIP3    H130413   1.844   2.238  16.118  0.1029 -0.0151 -1.7574
 2974TIP3    H230414   1.946   2.207  16.010  2.4481  0.7781  0.1423
 2975TIP3   OH230415   1.934   3.946   2.335 -0.2622 -0.4949  0.5626
 2975TIP3    H130416   1.858   3.913   2.382 -1.5646  0.6363 -0.6746
 2975TIP3    H230417   1.941   3.889   2.258  0.4559 -0.8833  0.8986
 2976TIP3   OH230418   5.091   2.064  14.505 -0.1214 -0.0640  0.1547
 2976TIP3    H130419   5.024   2.132  14.506 -0.4913 -0.4247  1.2269
 2976TIP3    H230420   5.106   2.045  14.412 -0.5505  0.9408 -0.1298
 2977TIP3   OH230421   1.585   4.747  15.802 -0.3062  0.7524  0.0748
 2977TIP3    H130422   1.524   4.796  15.856 -0.0258  0.3670  0.7642
 2977TIP3    H230423   1.560   4.767  15.712 -0.1874  2.1558  0.3298
 2978TIP3   OH230424   3.384   6.526  14.226  0.5139  0.2780 -0.0974
 2978TIP3    H130425   3.352   6.616  14.235  0.9259  0.4733 -0.5445
 2978TIP3    H230426   3.368   6.487  14.312  0.2517  0.7512  0.0767
 2979TIP3   OH230427   4.762   6.563  15.802 -0.1705  0.3854  0.0670
 2979TIP3    H130428   4.792   6.550  15.892  2.4395  0.9242 -0.6578
 2979TIP3    H230429   4.688   6.503  15.793 -0.0283 -0.2236  2.3293
 2980TIP3   OH230430   4.958   2.013   5.577  0.3391  0.0298 -0.7957
 2980TIP3    H130431   4.950   2.062   5.495 -1.1245  0.4688 -0.4224
 2980TIP3    H230432   4.920   2.071   5.643 -1.4167 -1.5504 -0.3300
 2981TIP3   OH230433   6.221   1.283   0.526  0.0311  0.5476 -1.0029
 2981TIP3    H130434   6.266   1.358   0.566  0.1317 -0.4907  0.9449
 2981TIP3    H230435   6.139   1.276   0.575 -0.4459  0.0137 -1.8721
 2982TIP3   OH230436   1.804   6.157  16.328  0.2975 -0.3400 -0.0924
 2982TIP3    H130437   1.733   6.117  16.278  0.0957  0.0107 -0.0906
 2982TIP3    H230438   1.880   6.152  16.270 -0.0642  0.5611 -0.6678
 2983TIP3   OH230439   3.689   1.428  14.622 -0.2183 -0.3513 -0.3102
 2983TIP3    H130440   3.642   1.411  14.540 -0.2287 -0.7173 -0.2274
 2983TIP3    H230441   3.739   1.348  14.639 -1.3854 -0.8776  0.8200
 2984TIP3   OH230442   3.469   5.863  12.567  0.0463 -0.1570  0.1642
 2984TIP3    H130443   3.490   5.876  12.660 -1.2141 -0.1882  0.4688
 2984TIP3    H230444   3.471   5.950  12.529  0.7541 -0.1639  0.1658
 2985TIP3   OH230445   6.748   5.167   3.920  0.5287  0.5462  0.5391
 2985TIP3    H130446   6.768   5.213   3.839 -0.5491 -1.4900 -0.9767
 2985TIP3    H230447   6.832   5.158   3.965  2.0529 -1.9825 -2.4330
 2986TIP3   OH230448   5.415   2.086   5.176  0.0792 -0.0586  0.4707
 2986TIP3    H130449   5.482   2.065   5.111  0.1393 -2.2566  1.1833
 2986TIP3    H230450   5.462   2.134   5.244 -0.0100  2.3773 -1.0675
 2987TIP3   OH230451   3.847   3.980  13.165  0.0784 -0.9077  0.4265
 2987TIP3    H130452   3.870   4.054  13.223 -0.3980 -0.8284  0.5136
 2987TIP3    H230453   3.896   3.998  13.084 -0.4111 -0.2400  0.2700
 2988TIP3   OH230454   0.789   4.370   5.084  0.0307 -0.6452  0.0395
 2988TIP3    H130455   0.789   4.400   5.175  0.1871 -2.1109  0.5503
 2988TIP3    H230456   0.726   4.297   5.083  0.7291 -1.2505 -0.8131
 2989TIP3   OH230457   6.057   3.192  12.289 -0.4390 -0.0899 -0.2419
 2989TIP3    H130458   5.973   3.233  12.271 -0.0407  1.6195  1.5012
 2989TIP3    H230459   6.060   3.182  12.384  0.6356 -1.7492 -0.3970
 2990TIP3   OH230460   0.948   0.856  15.144  0.5268 -0.2216 -0.1000
 2990TIP3    H130461   0.984   0.820  15.063 -0.9320 -1.8669 -0.0576
 2990TIP3    H230462   0.880   0.916  15.114  1.1815  0.5400 -0.1032
 2991TIP3   OH230463   4.520   5.771   4.029  0.3803 -0.3670  0.1973
 2991TIP3    H130464   4.430   5.803   4.036  0.8307  0.8132  0.6998
 2991TIP3    H230465   4.566   5.839   3.980  1.0410 -0.9161  0.0380
 2992TIP3   OH230466   3.572   2.180  12.672  0.3744  0.1773  0.0897
 2992TIP3    H130467   3.493   2.156  12.623  0.2120 -0.1238  0.4937
 2992TIP3    H230468   3.540   2.237  12.742  0.2143 -1.5459  1.4883
 2993TIP3   OH230469   5.952   0.465   6.182 -0.4432  0.1961 -0.0863
 2993TIP3    H130470   5.898   0.495   6.255 -0.5589 -0.8604  0.2826
 2993TIP3    H230471   5.894   0.469   6.106 -0.0683  2.1383 -0.3194
 2994TIP3   OH230472   3.531   5.636   3.207 -0.5598  0.3174  0.0855
 2994TIP3    H130473   3.506   5.708   3.266  1.0556 -0.0749  1.3301
 2994TIP3    H230474   3.467   5.567   3.225 -1.5465  1.0720 -0.4262
 2995TIP3   OH230475   6.726   4.489   1.914 -0.1705  0.0395  0.5888
 2995TIP3    H130476   6.743   4.531   1.999 -0.3010  1.2951  0.0238
 2995TIP3    H230477   6.737   4.560   1.850 -0.7015 -0.7335 -0.3852
 2996TIP3   OH230478   4.775   0.977  14.679 -0.0836 -0.0239 -0.0088
 2996TIP3    H130479   4.758   0.909  14.745  1.1720  0.0067  0.3701
 2996TIP3    H230480   4.792   1.056  14.730  2.5026 -0.3466 -0.2447
 2997TIP3   OH230481   0.203   1.951   0.620 -0.0382 -0.0044 -0.5933
 2997TIP3    H130482   0.144   1.934   0.694  1.1984  1.0159  0.7116
 2997TIP3    H230483   0.145   1.975   0.548 -1.2420  2.6274  1.0905
 2998TIP3   OH230484   5.311   4.875   2.603  0.2577 -0.1843 -0.3607
 2998TIP3    H130485   5.341   4.965   2.604  1.6520 -0.5998 -1.6231
 2998TIP3    H230486   5.383   4.825   2.642 -1.4084 -0.5718  2.4960
 2999TIP3   OH230487   0.348   0.867   0.250  0.3950 -0.1021 -0.2682
 2999TIP3    H130488   0.331   0.934   0.185  1.7028  0.4788 -0.0624
 2999TIP3    H230489   0.317   0.786   0.211 -2.7227  0.7849  0.1192
 3000TIP3   OH230490   3.765   1.195  14.719  0.2121  0.0193 -0.3532
 3000TIP3    H130491   3.731   1.226  14.803  0.8209  0.1372 -0.1457
 3000TIP3    H230492   3.703   1.127  14.692  1.1412 -1.5272  1.2086
 3001TIP3   OH230493   2.441   5.669   0.274  0.6626 -0.4248  0.5442
 3001TIP3    H130494   2.348   5.661   0.295  0.9133 -0.5529  1.6751
 3001TIP3    H230495   2.470   5.747   0.322  1.2201 -0.6070  0.5178
 3002TIP3   OH230496   0.997   4.154   1.116 -0.4016  0.7959 -0.0293
 3002TIP3    H130497   0.907   4.148   1.146 -0.7993  1.1201 -1.1225
 3002TIP3    H230498   1.001   4.094   1.041  0.8110 -0.7268  1.1824
 3003TIP3   OH230499   2.189   2.621   1.685 -0.0647 -0.8321 -0.2473
 3003TIP3    H130500   2.177   2.591   1.595  1.7305 -0.1406 -0.7722
 3003TIP3    H230501   2.242   2.552   1.726 -0.2447 -0.7939  0.0467
 3004TIP3   OH230502   3.806   6.632   3.571  0.4430  0.3898 -0.3846
 3004TIP3    H130503   3.843   6.551   3.607  1.7728 -0.0488 -2.5015
 3004TIP3    H230504   3.808   6.694   3.643  2.0025 -0.7043  0.5776
 3005TIP3   OH230505   4.782   3.162   5.450 -0.2111  0.0983  0.4894
 3005TIP3    H130506   4.823   3.152   5.364  1.9397 -0.2851  1.4708
 3005TIP3    H230507   4.820   3.091   5.502 -0.8126  0.8315  1.9792
 3006TIP3   OH230508   5.424   5.370  16.055 -0.4021  0.2195 -0.6496
 3006TIP3    H130509   5.393   5.288  16.094  0.3695  0.2004 -0.0558
 3006TIP3    H230510   5.518   5.357  16.042  0.1998  1.8058  1.6021
 3007TIP3   OH230511   1.193   6.057   6.001 -0.3600 -0.4524 -0.2311
 3007TIP3    H130512   1.242   6.021   5.927 -0.6149 -0.6846 -0.2913
 3007TIP3    H230513   1.198   6.152   5.990  0.6415 -0.4503  0.1339
 3008TIP3   OH230514   5.855   6.778   2.386 -0.2284 -0.6154  0.0572
 3008TIP3    H130515   5.821   6.804   2.300  1.6672 -0.1610 -0.5921
 3008TIP3    H230516   5.784   6.800   2.446 -0.3564  2.2244 -0.9742
 3009TIP3   OH230517   1.179   4.556  13.589 -0.0764 -0.7307 -0.3645
 3009TIP3    H130518   1.265   4.596  13.575 -0.2177  1.0810  2.9255
 3009TIP3    H230519   1.198   4.473  13.632  0.1102  0.2830  1.6293
 3010TIP3   OH230520   3.440   4.311  12.465  0.6617  0.3781  0.8311
 3010TIP3    H130521   3.432   4.327  12.371  2.3399 -0.2281  0.5424
 3010TIP3    H230522   3.501   4.378  12.496  1.1155 -0.2116  1.2373
 3011TIP3   OH230523   2.811   5.528   4.230 -0.2185  0.2826 -0.1662
 3011TIP3    H130524   2.764   5.516   4.312  0.1978 -2.4043 -0.2316
 3011TIP3    H230525   2.900   5.498   4.248  0.1807  0.7309 -1.2890
 3012TIP3   OH230526   6.682   4.482   0.937  0.5063  0.2793  0.6516
 3012TIP3    H130527   6.627   4.480   0.859  1.1280 -1.7254  0.2173
 3012TIP3    H230528   6.652   4.559   0.985  0.0669  1.5584 -1.5188
 3013TIP3   OH230529   6.033   0.893  13.248  0.4095  0.3809  0.3057
 3013TIP3    H130530   5.966   0.942  13.297  0.7742  0.6110  0.5743
 3013TIP3    H230531   6.045   0.942  13.167 -1.5748 -1.0020 -0.9237
 3014TIP3   OH230532   3.453   4.024   0.970  0.5406  0.2138  0.3781
 3014TIP3    H130533   3.513   4.053   1.038  1.2402 -1.3958  0.4903
 3014TIP3    H230534   3.504   4.030   0.889  0.8428 -1.0238  0.4565
 3015TIP3   OH230535   4.633   2.653  15.259  0.2310 -0.1380 -0.6619
 3015TIP3    H130536   4.600   2.609  15.338  1.6676 -3.3631 -1.6707
 3015TIP3    H230537   4.568   2.633  15.192  0.6146 -0.2686 -1.0017
 3016TIP3   OH230538   0.344   1.540  16.758  0.2538 -0.1275  0.5349
 3016TIP3    H130539   0.268   1.597  16.763 -0.4610 -0.8302 -1.2018
 3016TIP3    H230540   0.414   1.588  16.803 -1.0614  0.7557  1.7150
 3017TIP3   OH230541   1.276   1.103  13.450 -0.4720  0.2171  0.2737
 3017TIP3    H130542   1.361   1.095  13.493 -1.6356  2.4394  3.3531
 3017TIP3    H230543   1.290   1.167  13.380  0.6526 -0.6077 -0.2992
 3018TIP3   OH230544   2.452   4.200  14.815 -0.3689 -0.4493 -0.3958
 3018TIP3    H130545   2.479   4.108  14.817 -0.5074 -0.4849  0.1180
 3018TIP3    H230546   2.491   4.235  14.736  2.6376 -0.0575  1.1171
 3019TIP3   OH230547   3.194   5.555  12.352  0.2228 -0.5542  0.1614
 3019TIP3    H130548   3.203   5.601  12.436 -0.5992 -2.0143  1.1004
 3019TIP3    H230549   3.278   5.567  12.309  0.2943  1.1367  0.7014
 3020TIP3   OH230550   3.702   5.278  14.919  0.3100  0.4631  0.3631
 3020TIP3    H130551   3.748   5.214  14.864 -1.5936 -1.2203  0.6092
 3020TIP3    H230552   3.697   5.236  15.005  1.5012  2.2112  1.3264
 3021TIP3   OH230553   3.658   5.670  15.036  0.9992  0.6233  0.4202
 3021TIP3    H130554   3.588   5.613  15.066  1.9015 -0.5899  0.2873
 3021TIP3    H230555   3.673   5.730  15.110 -0.4461  1.1960  0.2765
 3022TIP3   OH230556   1.832   1.144  12.236 -0.1094  0.2327  0.4827
 3022TIP3    H130557   1.754   1.154  12.183 -0.8944  0.6056  1.6537
 3022TIP3    H230558   1.804   1.094  12.312  1.0568 -0.5837  0.4056
 3023TIP3   OH230559   6.398   2.287  16.393 -0.0472 -0.2314 -0.0001
 3023TIP3    H130560   6.435   2.204  16.423  0.3246 -0.1197 -0.1482
 3023TIP3    H230561   6.379   2.272  16.300 -1.2659 -0.6015  0.2897
 3024TIP3   OH230562   2.129   3.113  10.391 -0.2130  0.0805 -0.0402
 3024TIP3    H130563   2.220   3.137  10.373 -0.1121 -1.1198 -1.3703
 3024TIP3    H230564   2.135   3.022  10.422 -1.1076 -1.0978 -2.9762
 3025TIP3   OH230565   2.596   6.640   4.938 -0.4828 -0.2202  0.0969
 3025TIP3    H130566   2.627   6.570   4.880 -0.8147  1.3747 -2.1356
 3025TIP3    H230567   2.672   6.697   4.949 -0.2875 -0.7341  1.6982
 3026TIP3   OH230568   0.353   1.160   0.433 -0.1344 -0.7693 -0.1359
 3026TIP3    H130569   0.407   1.110   0.372 -0.4011 -2.0670  0.6503
 3026TIP3    H230570   0.401   1.242   0.447  1.1424 -1.4796 -0.2165
 3027TIP3   OH230571   5.927   5.573   3.802  0.0148  0.6267 -0.3242
 3027TIP3    H130572   5.938   5.504   3.867 -1.7614  0.1355 -0.4794
 3027TIP3    H230573   5.979   5.647   3.835  1.4868 -0.5756  0.1295
 3028TIP3   OH230574   1.570   6.399  11.600 -0.1222 -0.0319 -0.6240
 3028TIP3    H130575   1.612   6.448  11.529 -0.5740 -0.3350 -1.1101
 3028TIP3    H230576   1.628   6.324  11.615  0.2558  0.3233 -0.2967
 3029TIP3   OH230577   0.961   4.938  14.186 -0.3981  0.5854 -0.4173
 3029TIP3    H130578   0.943   4.873  14.254 -1.2722 -0.5295 -1.6567
 3029TIP3    H230579   0.999   5.013  14.233 -1.1771 -0.0556  1.3013
 3030TIP3   OH230580   4.958   0.925   3.324 -0.3974 -0.0618  0.7830
 3030TIP3    H130581   5.044   0.890   3.301  0.3231  2.2241 -0.3040
 3030TIP3    H230582   4.901   0.902   3.250  0.2565  1.5165 -0.2847
 3031TIP3   OH230583   2.892   0.085  15.859 -0.0252 -0.0400  0.3519
 3031TIP3    H130584   2.954   0.123  15.798 -0.1375  0.8302  0.7729
 3031TIP3    H230585   2.946   0.031  15.917  0.3191  0.5332  0.5745
 3032TIP3   OH230586   4.478   0.857  13.562  0.3639  0.2865  0.1570
 3032TIP3    H130587   4.528   0.904  13.495 -0.6763 -0.7739 -1.4253
 3032TIP3    H230588   4.406   0.915  13.584  1.2791  1.0816  1.1723
 3033TIP3   OH230589   6.276   3.334  15.333 -0.3081  0.1395 -0.2687
 3033TIP3    H130590   6.345   3.293  15.385 -1.4444 -0.7675  0.5773
 3033TIP3    H230591   6.194   3.304  15.373 -1.2198  0.1585 -2.0092
 3034TIP3   OH230592   5.881   4.145   5.773  0.1456  0.7010 -0.1118
 3034TIP3    H130593   5.957   4.093   5.799  0.6247  1.7410  0.6243
 3034TIP3    H230594   5.879   4.138   5.677  0.9323  0.3529 -0.1074
 3035TIP3   OH230595   1.305   3.486   2.167 -0.0498 -0.2435  0.0176
 3035TIP3    H130596   1.368   3.421   2.201  0.5970 -1.1126 -2.6184
 3035TIP3    H230597   1.230   3.433   2.139 -1.3517  0.6389  1.6683
 3036TIP3   OH230598   5.530   4.962  12.738  0.0235  0.2557  0.3065
 3036TIP3    H130599   5.478   5.016  12.798 -0.4823  1.5794 -1.2439
 3036TIP3    H230600   5.614   5.007  12.732  0.1626 -0.0161  0.2207
 3037TIP3   OH230601   3.928   3.082   4.629  0.3111  0.2775 -0.8816
 3037TIP3    H130602   4.021   3.066   4.610  0.5133  0.2622  0.0569
 3037TIP3    H230603   3.925   3.092   4.725 -0.4783  1.4139 -1.0038
 3038TIP3   OH230604   3.771   5.786  13.347 -0.5261  0.7585 -0.0788
 3038TIP3    H130605   3.806   5.710  13.300 -0.9886  1.0171 -0.8703
 3038TIP3    H230606   3.836   5.806  13.413  0.4738  0.7739 -1.0423
 3039TIP3   OH230607   0.264   1.707  13.597  0.2360  0.3233  0.1748
 3039TIP3    H130608   0.339   1.732  13.652  0.1114  1.4195 -0.1405
 3039TIP3    H230609   0.303   1.687  13.512  0.5256 -2.0824  0.7725
 3040TIP3   OH230610   2.786   0.685   3.455  0.7358 -0.1248 -0.3578
 3040TIP3    H130611   2.875   0.657   3.477  0.3454 -0.9018  0.3176
 3040TIP3    H230612   2.771   0.649   3.367  0.9550 -0.3293 -0.3133
 3041TIP3   OH230613   5.140   2.992   2.144  0.0843 -0.2869  0.3317
 3041TIP3    H130614   5.070   2.991   2.209 -0.1357 -0.0072  0.1006
 3041TIP3    H230615   5.211   2.942   2.184 -0.5605 -1.3137  0.2184
 3042TIP3   OH230616   4.142   6.124   2.407 -0.3167 -0.2944  0.0391
 3042TIP3    H130617   4.188   6.155   2.486 -0.1909 -1.7594  0.5697
 3042TIP3    H230618   4.183   6.039   2.388 -1.2679 -0.5724 -0.8212
 3043TIP3   OH230619   3.456   0.469  14.746  0.2534  0.0025 -0.2347
 3043TIP3    H130620   3.532   0.425  14.708 -0.4528  0.6754 -2.6178
 3043TIP3    H230621   3.393   0.398  14.761  0.7018 -0.3386  0.0479
 3044TIP3   OH230622   1.399   1.965   4.111  0.1135  0.5497 -0.0508
 3044TIP3    H130623   1.486   1.971   4.070  0.2793  1.0447  0.3615
 3044TIP3    H230624   1.411   1.900   4.181  0.1373  0.5878 -0.0197
 3045TIP3   OH230625   3.724   1.124   5.022 -0.1315  0.1918 -0.0525
 3045TIP3    H130626   3.757   1.112   5.111  0.1382  0.1899 -0.1524
 3045TIP3    H230627   3.647   1.067   5.018  0.2386 -0.3155 -0.0305
 3046TIP3   OH230628   2.927   1.254   2.207  0.2739 -0.1628  0.3269
 3046TIP3    H130629   2.920   1.200   2.286  0.3099 -0.0507  0.4081
 3046TIP3    H230630   2.864   1.324   2.221 -1.6873 -1.5842 -0.9381
 3047TIP3   OH230631   0.836   5.222  14.638 -0.0341 -0.5735 -0.0456
 3047TIP3    H130632   0.758   5.263  14.676  0.1484 -0.1987 -0.0731
 3047TIP3    H230633   0.909   5.272  14.673  0.2669 -1.5218  0.7524
 3048TIP3   OH230634   6.380   6.036   6.259  0.2623 -0.0993  0.3181
 3048TIP3    H130635   6.476   6.030   6.262  0.1903 -1.5979  0.2704
 3048TIP3    H230636   6.361   6.125   6.288  1.6753  0.2883  0.1470
 3049TIP3   OH230637   6.160   0.097  15.045  0.1168  0.0076  0.2625
 3049TIP3    H130638   6.110   0.021  15.077  0.4395 -0.7684 -0.9922
 3049TIP3    H230639   6.096   0.167  15.039  0.2241  0.5190  3.5024
 3050TIP3   OH230640   4.681   4.826   6.285 -0.6675  0.2808 -0.1942
 3050TIP3    H130641   4.726   4.743   6.269 -2.7178 -1.2571  1.3238
 3050TIP3    H230642   4.643   4.850   6.200  0.5641  0.0891 -0.8170
 3051TIP3   OH230643   6.180   1.552  16.294 -0.0121 -0.5130 -0.2547
 3051TIP3    H130644   6.180   1.646  16.308 -0.0423 -0.1434 -2.4299
 3051TIP3    H230645   6.117   1.518  16.358  1.2322  0.6992  1.7149
 3052TIP3   OH230646   4.454   5.557   0.085  0.2279 -0.1597  0.5339
 3052TIP3    H130647   4.402   5.637   0.087  1.6154  0.7697  1.4292
 3052TIP3    H230648   4.444   5.523  -0.004  0.6357  1.7087 -0.2563
 3053TIP3   OH230649   0.299   0.331  16.789  0.4992 -0.1022  0.0475
 3053TIP3    H130650   0.257   0.405  16.832 -1.6504 -1.4015  0.2990
 3053TIP3    H230651   0.298   0.261  16.854  1.4382 -0.7243 -0.5703
 3054TIP3   OH230652   2.705   2.811  15.951 -0.4814 -0.4735  0.0965
 3054TIP3    H130653   2.780   2.850  15.997 -0.8028  0.3567 -0.0593
 3054TIP3    H230654   2.672   2.882  15.896 -0.9673 -1.0404 -0.3509
 3055TIP3   OH230655   0.843   4.481   4.853  0.2054  0.4692 -0.7481
 3055TIP3    H130656   0.790   4.446   4.923  1.8002  0.4474  0.5078
 3055TIP3    H230657   0.832   4.576   4.859  2.8830  0.7787  1.8284
 3056TIP3   OH230658   2.287   4.148   5.979 -0.5533  0.4419  0.0892
 3056TIP3    H130659   2.214   4.208   5.965 -2.5393 -1.6423  0.8429
 3056TIP3    H230660   2.265   4.101   6.060  0.5368 -1.7218 -0.7758
 3057TIP3   OH230661   1.412   2.669   5.322 -0.0238  0.5423  0.6571
 3057TIP3    H130662   1.326   2.707   5.305  1.2014  3.9591  1.4790
 3057TIP3    H230663   1.445   2.715   5.398  1.6250 -2.4164  1.9161
 3058TIP3   OH230664   4.911   0.849   3.593  0.5056 -0.1104  0.2982
 3058TIP3    H130665   4.917   0.908   3.518  1.0568 -0.3508  0.1478
 3058TIP3    H230666   4.885   0.765   3.555  1.3683 -0.3872  0.2879
 3059TIP3   OH230667   6.223   2.054  12.524  0.1177 -1.0254 -0.4582
 3059TIP3    H130668   6.284   2.123  12.498  1.1424 -1.6478  0.2279
 3059TIP3    H230669   6.158   2.099  12.579 -0.1953 -0.3151 -1.3765
 3060TIP3   OH230670   3.624   4.351   2.604 -0.0529  0.0817  0.0338
 3060TIP3    H130671   3.572   4.297   2.544  1.0791 -1.0169 -0.0030
 3060TIP3    H230672   3.609   4.441   2.575  0.9839 -0.4463 -2.3504
 3061TIP3   OH230673   1.712   3.387   5.009 -0.0157 -0.0259  0.2909
 3061TIP3    H130674   1.703   3.415   4.918  0.2778  0.8379  0.5199
 3061TIP3    H230675   1.806   3.394   5.027  0.1122 -1.3877  0.2992
 3062TIP3   OH230676   3.590   0.338  16.321  0.1782 -0.0422 -0.1222
 3062TIP3    H130677   3.519   0.283  16.290  0.9552 -0.0014 -2.1403
 3062TIP3    H230678   3.666   0.280  16.328 -0.1899 -0.3591  3.1614
 3063TIP3   OH230679   0.226   2.414   5.765 -0.1344 -0.3655  0.4571
 3063TIP3    H130680   0.154   2.378   5.818 -0.4986  1.0455  0.9562
 3063TIP3    H230681   0.284   2.456   5.829 -0.4812  1.2058 -0.2150
 3064TIP3   OH230682   2.521   6.626   1.962  0.6227 -0.2873  0.7814
 3064TIP3    H130683   2.447   6.602   2.018 -0.6319 -0.5317 -0.8946
 3064TIP3    H230684   2.547   6.544   1.920  0.2853  0.1852 -0.3985
 3065TIP3   OH230685   0.487   4.675  17.255  0.4985 -0.4946  0.1923
 3065TIP3    H130686   0.553   4.731  17.297  0.4010 -1.0221  1.0499
 3065TIP3    H230687   0.407   4.728  17.255  0.7812 -0.0498 -0.3903
 3066TIP3   OH230688   4.746   5.159   1.850  0.2121 -0.3065  0.0740
 3066TIP3    H130689   4.665   5.143   1.899  0.0085  2.1000  0.6800
 3066TIP3    H230690   4.805   5.088   1.875 -1.1027 -1.1086  0.9985
 3067TIP3   OH230691   1.669   2.544  14.177  0.4889 -0.1988  0.3287
 3067TIP3    H130692   1.584   2.502  14.181  0.4743 -0.2513 -0.3709
 3067TIP3    H230693   1.668   2.608  14.249 -1.1998  1.7312 -1.2800
 3068TIP3   OH230694   0.456   0.410   2.910  0.0928  0.3345  0.0881
 3068TIP3    H130695   0.502   0.472   2.853 -0.9541  0.6105 -0.4753
 3068TIP3    H230696   0.453   0.453   2.995  0.9963  0.2419  0.1838
 3069TIP3   OH230697   2.853   2.692  13.409 -0.0709 -0.5785 -0.0323
 3069TIP3    H130698   2.799   2.615  13.393 -1.0933  0.0267  0.3998
 3069TIP3    H230699   2.794   2.766  13.397  1.1255  0.2037 -1.3851
 3070TIP3   OH230700   3.206   3.881  11.191  0.8673  0.2293 -0.2480
 3070TIP3    H130701   3.290   3.840  11.213  0.4509 -1.2444 -1.2581
 3070TIP3    H230702   3.180   3.840  11.108 -0.1825  1.6821 -0.6739
 3071TIP3   OH230703   4.533   0.139   0.465 -0.2296 -0.0535  0.2294
 3071TIP3    H130704   4.475   0.206   0.428  0.8932  0.2243 -1.0788
 3071TIP3    H230705   4.611   0.187   0.491  0.5991 -0.8355 -0.7365
 3072TIP3   OH230706   1.208   0.010   0.078  0.0859 -0.1476  0.0190
 3072TIP3    H130707   1.162   0.036  -0.002 -0.4756 -0.5347  0.2046
 3072TIP3    H230708   1.216  -0.085   0.070 -0.6744 -0.2886  0.7754
 3073TIP3   OH230709   1.069   5.083  12.409 -0.7323  0.3313 -0.0697
 3073TIP3    H130710   1.130   5.076  12.482 -3.5216 -2.2503  2.2577
 3073TIP3    H230711   1.114   5.040  12.336  0.7255 -0.3397  1.1774
 3074TIP3   OH230712   4.792   4.561  11.331  0.0855 -0.1640 -0.0391
 3074TIP3    H130713   4.739   4.485  11.356 -0.1758 -0.5491 -1.6563
 3074TIP3    H230714   4.878   4.526  11.311  0.4041  0.1895  0.6870
 3075TIP3   OH230715   2.234   5.284  12.613  0.1344  0.1348  0.6598
 3075TIP3    H130716   2.206   5.236  12.534 -0.4783 -0.5299  1.2656
 3075TIP3    H230717   2.294   5.350  12.580 -0.7886  0.4432 -0.4846
 3076TIP3   OH230718   6.213   1.799  16.370 -0.6689 -0.2825 -0.5711
 3076TIP3    H130719   6.279   1.848  16.419 -1.6552 -0.9794  1.6148
 3076TIP3    H230720   6.175   1.863  16.310 -0.9702  1.3030  1.2212
 3077TIP3   OH230721   1.106   3.109  11.391 -0.0933  0.7297 -0.0677
 3077TIP3    H130722   1.074   3.170  11.325  0.5823 -0.9383 -2.0648
 3077TIP3    H230723   1.148   3.039  11.341 -0.3126 -1.0905  2.1019
 3078TIP3   OH230724   3.868   0.763   0.160 -0.0736 -0.8731 -0.2650
 3078TIP3    H130725   3.942   0.707   0.185 -0.3518 -1.7109 -1.2341
 3078TIP3    H230726   3.909   0.840   0.120  0.2856 -0.9857 -0.1260
 3079TIP3   OH230727   0.310   4.895  13.012  0.0653 -0.4065  0.4347
 3079TIP3    H130728   0.363   4.874  12.935  1.6167  1.8603  0.8029
 3079TIP3    H230729   0.253   4.967  12.983  0.0784 -0.0923  1.1725
 3080TIP3   OH230730   3.888   0.041   0.819 -0.3387 -0.5974  0.3666
 3080TIP3    H130731   3.950  -0.017   0.864  1.0607  0.0711 -0.6400
 3080TIP3    H230732   3.861  -0.008   0.741 -1.4492 -1.0531  0.9997
 3081TIP3   OH230733   3.653   0.293   4.557 -0.6673  0.0727 -1.0483
 3081TIP3    H130734   3.577   0.322   4.507  0.5475  2.7882 -1.4513
 3081TIP3    H230735   3.715   0.263   4.491  0.5108  2.6353 -1.2005
 3082TIP3   OH230736   6.337   1.218   2.262 -0.0497 -0.0419 -0.2448
 3082TIP3    H130737   6.374   1.164   2.193  0.6081 -0.4871  0.4428
 3082TIP3    H230738   6.412   1.255   2.309 -0.4174 -1.1736  1.3361
 3083TIP3   OH230739   1.815   0.081  11.019  0.2743 -0.6345  0.3894
 3083TIP3    H130740   1.785  -0.007  10.999 -0.8320 -0.2948  0.4635
 3083TIP3    H230741   1.810   0.087  11.114  0.9938 -0.7090  0.4345
 3084TIP3   OH230742   6.313   6.657   4.819  0.1495 -0.4705  0.7019
 3084TIP3    H130743   6.392   6.647   4.766 -0.2531  0.4784 -0.1305
 3084TIP3    H230744   6.285   6.568   4.838 -0.1917 -0.9107 -1.4941
 3085TIP3   OH230745   6.281   1.502   4.344 -0.1684 -0.0174 -0.6055
 3085TIP3    H130746   6.261   1.578   4.398 -3.8053 -0.2724 -1.3690
 3085TIP3    H230747   6.341   1.536   4.277 -2.9839  2.7724 -1.9716
 3086TIP3   OH230748   6.166   4.743  11.711 -0.5711  0.0069 -0.4205
 3086TIP3    H130749   6.215   4.686  11.653 -0.7889 -0.6277  0.0066
 3086TIP3    H230750   6.104   4.788  11.654  1.1549  1.6142 -1.1510
 3087TIP3   OH230751   0.586   6.060   5.963 -0.0176  0.3067 -0.1270
 3087TIP3    H130752   0.516   6.114   5.925  1.3699  3.0213  0.8667
 3087TIP3    H230753   0.664   6.115   5.955  1.9460 -2.3815 -0.7046
 3088TIP3   OH230754   4.991   3.763  16.103  0.0536 -0.3977  0.4248
 3088TIP3    H130755   4.903   3.798  16.092 -0.6319 -1.3787  2.3993
 3088TIP3    H230756   5.022   3.746  16.014 -1.2864  1.0304 -0.3466
 3089TIP3   OH230757   3.342   5.917   2.935  0.1047  0.4400 -0.5323
 3089TIP3    H130758   3.333   5.944   2.844  1.3621 -1.1153 -1.1649
 3089TIP3    H230759   3.433   5.937   2.957  0.0568 -0.0143  0.0940
 3090TIP3   OH230760   2.693   5.969  13.701  0.1154 -0.8311 -0.5091
 3090TIP3    H130761   2.637   5.898  13.734 -2.5749  0.9628 -0.8472
 3090TIP3    H230762   2.656   6.049  13.740  0.3570  0.8135 -3.3315
 3091TIP3   OH230763   2.578   0.012  11.153 -0.0729 -0.1312  0.0219
 3091TIP3    H130764   2.605  -0.039  11.076  1.1351 -0.8621  0.8899
 3091TIP3    H230765   2.507  -0.039  11.192 -0.2376 -0.1015 -0.2399
 3092TIP3   OH230766   3.301   5.077  14.764  0.0612  0.3951  0.3276
 3092TIP3    H130767   3.360   5.078  14.689 -0.4277  0.1894 -0.0693
 3092TIP3    H230768   3.233   5.013  14.740 -0.9169  1.4188  0.3081
 3093TIP3   OH230769   6.148   1.053  15.767 -0.0067 -0.0424  0.0149
 3093TIP3    H130770   6.219   1.096  15.718  0.1250 -0.1355  0.1225
 3093TIP3    H230771   6.168   1.071  15.859  0.5090 -1.0217  0.1110
 3094TIP3   OH230772   2.537   2.506  12.403  0.2398 -0.2673  0.5098
 3094TIP3    H130773   2.617   2.558  12.415 -0.6994  1.0609  1.3603
 3094TIP3    H230774   2.498   2.502  12.490 -1.4910  0.6412 -0.1619
 3095TIP3   OH230775   2.450   0.886   2.798 -0.2893 -0.4536 -0.1548
 3095TIP3    H130776   2.404   0.806   2.774 -1.9215  0.3822  0.0247
 3095TIP3    H230777   2.428   0.948   2.728 -1.1522  0.5627  0.9616
 3096TIP3   OH230778   3.027   5.769  15.046  0.3990 -0.2741  0.0009
 3096TIP3    H130779   3.016   5.675  15.062 -1.4213 -0.0312  0.5019
 3096TIP3    H230780   3.012   5.779  14.952 -1.0898 -0.3409  0.1946
 3097TIP3   OH230781   5.631   2.541   5.929 -0.2931  0.0450 -0.0709
 3097TIP3    H130782   5.585   2.625   5.927 -0.1116  0.1391 -0.7670
 3097TIP3    H230783   5.669   2.536   6.016 -0.2280  0.7363 -0.0555
 3098TIP3   OH230784   2.000   0.602   4.045 -0.2518  0.1128  0.2042
 3098TIP3    H130785   2.014   0.603   3.951  0.0111  0.0056  0.2429
 3098TIP3    H230786   1.905   0.603   4.055 -0.2817 -0.1175 -0.0624
 3099TIP3   OH230787   3.335   6.531  10.928 -0.4895  0.3611  0.1434
 3099TIP3    H130788   3.312   6.439  10.919  0.2755  0.1409  0.4085
 3099TIP3    H230789   3.366   6.557  10.841 -1.9772  0.7397 -0.2982
 3100TIP3   OH230790   0.121   3.334   4.184 -0.4372 -0.2171 -0.0784
 3100TIP3    H130791   0.204   3.378   4.167 -0.9699  0.6281 -0.5930
 3100TIP3    H230792   0.119   3.262   4.121  0.7558 -1.4528  1.2392
 3101TIP3   OH230793   3.704   4.377  15.874 -0.2741 -0.3517 -0.1255
 3101TIP3    H130794   3.682   4.290  15.841 -1.7307  0.8202 -2.5010
 3101TIP3    H230795   3.629   4.432  15.850  1.2976  1.9150 -0.2279
 3102TIP3   OH230796   6.762   4.344  13.952 -0.6485  0.4570 -0.6135
 3102TIP3    H130797   6.757   4.278  14.021  0.2373  1.2581  0.2463
 3102TIP3    H230798   6.844   4.324  13.907 -0.9117  0.3252 -1.0389
 3103TIP3   OH230799   0.485   5.119   3.848  0.1224 -0.0500  0.6746
 3103TIP3    H130800   0.507   5.086   3.935  1.0571 -0.9205  0.1389
 3103TIP3    H230801   0.555   5.182   3.828 -0.2920  0.4215  0.6959
 3104TIP3   OH230802   6.508   0.807  11.495  0.3678 -0.5342 -0.1718
 3104TIP3    H130803   6.526   0.758  11.414  0.7421 -1.9761  0.7523
 3104TIP3    H230804   6.568   0.882  11.490  1.1769 -1.1880 -0.7391
 3105TIP3   OH230805   2.066   1.503   2.403 -0.1925  0.2637 -0.6307
 3105TIP3    H130806   2.152   1.469   2.424 -0.1607 -0.7229 -2.1728
 3105TIP3    H230807   2.051   1.475   2.312 -2.6854 -0.7602  0.0171
 3106TIP3   OH230808   4.567   5.381   5.568 -0.2244 -0.2910 -0.2589
 3106TIP3    H130809   4.654   5.419   5.557 -0.2853 -0.7359 -2.8012
 3106TIP3    H230810   4.512   5.455   5.594  1.0745 -0.2659  2.8586
 3107TIP3   OH230811   6.528   4.154   4.620 -0.1736  0.0030  0.1731
 3107TIP3    H130812   6.557   4.128   4.532 -1.6214 -0.2427 -0.2517
 3107TIP3    H230813   6.605   4.140   4.675  1.5446  2.3814 -1.4142
 3108TIP3   OH230814   0.419   2.533   3.876 -0.1570 -0.4680 -0.5528
 3108TIP3    H130815   0.392   2.621   3.853 -2.4045 -0.8898  0.2199
 3108TIP3    H230816   0.440   2.491   3.793 -0.8416  0.2466 -1.0953
 3109TIP3   OH230817   5.544   4.184  17.120 -0.5125  0.0186  0.5455
 3109TIP3    H130818   5.526   4.235  17.199 -0.7632  0.2270  0.3531
 3109TIP3    H230819   5.634   4.207  17.097 -0.3036 -0.3248  0.9777
 3110TIP3   OH230820   4.089   5.208   0.959  0.6071 -0.1009 -0.3591
 3110TIP3    H130821   4.145   5.274   0.919  1.2231  0.0184  0.6659
 3110TIP3    H230822   4.150   5.139   0.987 -0.0010 -1.0149 -1.2231
 3111TIP3   OH230823   2.496   4.730  15.275 -0.8261 -0.0195 -0.3546
 3111TIP3    H130824   2.479   4.741  15.182  1.1343  0.9865 -0.6508
 3111TIP3    H230825   2.502   4.635  15.287  1.2466 -0.1336 -1.7796
 3112TIP3   OH230826   4.423   1.527   5.396 -0.9011 -0.2862 -0.0590
 3112TIP3    H130827   4.430   1.477   5.477 -1.9706  1.2477  1.0381
 3112TIP3    H230828   4.329   1.536   5.381 -0.7415 -1.1876 -1.9316
 3113TIP3   OH230829   0.343   6.508   6.894  0.3340  0.0162 -0.1597
 3113TIP3    H130830   0.358   6.436   6.833  0.8044  1.0279 -1.2918
 3113TIP3    H230831   0.252   6.499   6.921  0.5239 -1.2702  0.0887
 3114TIP3   OH230832   3.180   5.845   5.905 -0.0860  0.4899  0.1632
 3114TIP3    H130833   3.202   5.919   5.848  0.5078  0.8034  0.7771
 3114TIP3    H230834   3.235   5.858   5.983 -0.0700 -0.5278  0.3364
 3115TIP3   OH230835   0.760   4.246   0.075  0.4694 -0.5291  0.0184
 3115TIP3    H130836   0.769   4.186   0.001  1.7289 -0.4060  0.0398
 3115TIP3    H230837   0.696   4.310   0.047  0.4627 -0.8492 -0.7184
 3116TIP3   OH230838   6.373   4.241   3.122 -0.1792  0.3215  0.9834
 3116TIP3    H130839   6.344   4.199   3.203 -0.7259 -1.1030  0.0827
 3116TIP3    H230840   6.316   4.204   3.054  0.6360  1.0678 -0.1434
 3117TIP3   OH230841   3.731   4.027   2.951  0.3380  0.0440  0.1515
 3117TIP3    H130842   3.690   3.941   2.959  0.5907 -0.1308 -0.3686
 3117TIP3    H230843   3.738   4.059   3.041 -0.5924 -0.0789  0.2838
 3118TIP3   OH230844   5.752   0.715   2.192  0.6892  0.5225  0.0983
 3118TIP3    H130845   5.792   0.656   2.127 -0.3431 -1.0629  0.8327
 3118TIP3    H230846   5.675   0.750   2.147  1.4159  1.5165 -0.4112
 3119TIP3   OH230847   1.820   5.093  12.945 -0.2761 -0.0059  0.5935
 3119TIP3    H130848   1.733   5.067  12.976 -0.1228  1.0026  1.9517
 3119TIP3    H230849   1.815   5.187  12.934  0.0887 -0.1685 -1.2631
 3120TIP3   OH230850   0.946   6.418   4.989  0.0398 -0.0866  0.1701
 3120TIP3    H130851   1.018   6.368   5.029  1.1550 -0.8624 -2.5715
 3120TIP3    H230852   0.988   6.493   4.949 -1.1870  1.2284  1.2402
 3121TIP3   OH230853   0.212   4.270   2.459 -0.1249 -0.0114  0.1384
 3121TIP3    H130854   0.256   4.194   2.420 -0.8076 -0.4781  0.2576
 3121TIP3    H230855   0.191   4.326   2.385 -2.3221 -1.3648 -0.3338
 3122TIP3   OH230856   5.012   0.146  15.218 -0.2982  0.3831  0.5852
 3122TIP3    H130857   5.089   0.160  15.273  0.5264  2.7208 -0.9850
 3122TIP3    H230858   4.938   0.170  15.274  0.2895  0.1981  1.4631
 3123TIP3   OH230859   4.217   2.885   2.044  0.0281 -0.1386 -0.7192
 3123TIP3    H130860   4.173   2.805   2.016 -1.8404  0.3695  0.5397
 3123TIP3    H230861   4.158   2.923   2.109  2.4276  0.5345  1.2480
 3124TIP3   OH230862   5.111   2.240  10.488 -0.1050 -0.4608 -0.3513
 3124TIP3    H130863   5.038   2.281  10.534 -0.4869 -0.5287 -0.8836
 3124TIP3    H230864   5.135   2.302  10.420  1.9364  0.6683  1.2854
 3125TIP3   OH230865   6.368   0.539  15.328  0.0965 -0.1416  0.1481
 3125TIP3    H130866   6.276   0.516  15.331  0.0961 -0.0829  1.1900
 3125TIP3    H230867   6.375   0.602  15.256 -0.6625 -0.1817  0.0318
 3126TIP3   OH230868   2.419   5.825   1.217 -0.1884  0.2626 -0.9147
 3126TIP3    H130869   2.384   5.844   1.129  0.0322 -1.9153 -1.5439
 3126TIP3    H230870   2.341   5.816   1.272 -0.3135  2.2135 -0.6999
 3127TIP3   OH230871   4.321   4.234   4.028 -0.4013  0.5929  0.2114
 3127TIP3    H130872   4.346   4.260   3.939 -1.0043 -0.1416 -0.1762
 3127TIP3    H230873   4.353   4.145   4.038 -2.2873 -0.1549 -0.0800
 3128TIP3   OH230874   1.588   1.418  15.816  0.6137  0.4562 -0.0045
 3128TIP3    H130875   1.496   1.418  15.792  0.5568 -1.0235  0.1196
 3128TIP3    H230876   1.635   1.410  15.733  0.5353 -1.1625  0.0896
 3129TIP3   OH230877   6.629   3.919   1.113 -0.0876  0.0096 -0.3843
 3129TIP3    H130878   6.535   3.902   1.107 -0.1229  0.5111 -1.7197
 3129TIP3    H230879   6.669   3.854   1.055  0.5974 -1.4814  1.6543
 3130TIP3   OH230880   4.366   1.974  14.597  0.3189 -0.0878 -0.7316
 3130TIP3    H130881   4.360   2.044  14.663  0.3186 -0.0586 -0.7628
 3130TIP3    H230882   4.277   1.940  14.590  0.3088 -0.0572 -0.7531
 3131TIP3   OH230883   0.310   0.165   5.708 -0.2059 -0.2596 -0.3090
 3131TIP3    H130884   0.263   0.160   5.791 -0.4119  1.9526 -0.2194
 3131TIP3    H230885   0.362   0.085   5.704 -0.1972 -0.4313  1.9513
 3132TIP3   OH230886   1.982   3.237  16.858 -0.3723  0.0502  0.1525
 3132TIP3    H130887   2.072   3.214  16.881 -0.7200  0.1565  1.8020
 3132TIP3    H230888   1.989   3.316  16.804  0.5500 -0.4799 -0.5181
 3133TIP3   OH230889   6.207   3.688  14.682 -0.9854 -0.1467 -0.3404
 3133TIP3    H130890   6.174   3.608  14.725  0.4847 -0.7297 -0.2475
 3133TIP3    H230891   6.248   3.737  14.753 -1.1309  0.2964 -0.5603
 3134TIP3   OH230892   6.677   1.627  15.346  0.0757  0.2158  0.1286
 3134TIP3    H130893   6.651   1.671  15.265  1.4135  0.5533 -0.1340
 3134TIP3    H230894   6.648   1.536  15.333 -0.4883  0.4540 -0.3533
 3135TIP3   OH230895   2.290   5.192   1.760 -0.0106  0.1833 -0.4121
 3135TIP3    H130896   2.324   5.182   1.848  0.9919  1.1863 -0.6618
 3135TIP3    H230897   2.364   5.224   1.709 -0.4201 -0.8853 -1.7386
 3136TIP3   OH230898   2.009   3.220  14.093  0.8579  0.0938  0.2215
 3136TIP3    H130899   2.010   3.316  14.090  3.1962  0.1166  0.1019
 3136TIP3    H230900   2.045   3.199  14.179 -1.5765 -0.7297  1.1139
 3137TIP3   OH230901   4.047   0.257  15.125 -0.2276  0.6152 -0.4566
 3137TIP3    H130902   3.957   0.258  15.093  0.2456  1.2384 -1.8028
 3137TIP3    H230903   4.058   0.341  15.169 -1.4960 -0.9740  3.3226
 3138TIP3   OH230904   1.886   6.634   1.909 -0.1285  0.1652 -0.4290
 3138TIP3    H130905   1.946   6.694   1.865 -2.5942  1.8345 -1.7367
 3138TIP3    H230906   1.827   6.691   1.959 -0.6135 -1.3961  0.8632
 3139TIP3   OH230907   5.171   5.217   0.191 -0.4830  0.3411  0.0958
 3139TIP3    H130908   5.114   5.178   0.124  0.9325 -0.4994 -0.6920
 3139TIP3    H230909   5.231   5.146   0.214 -0.2890  0.9437  1.5193
 3140TIP3   OH230910   3.433   0.687  15.696 -0.2242 -0.0627  0.0771
 3140TIP3    H130911   3.521   0.691  15.659 -0.5720  0.5788 -0.7047
 3140TIP3    H230912   3.441   0.727  15.783  0.1820  0.3515 -0.1486
 3141TIP3   OH230913   1.566   3.951  12.523  0.5855 -0.6634 -0.1129
 3141TIP3    H130914   1.489   3.941  12.468  0.2778 -1.2527  0.4145
 3141TIP3    H230915   1.603   4.036  12.498  0.5743 -1.0103 -1.3669
 3142TIP3   OH230916   1.650   6.304   0.981 -0.1130 -0.8996 -0.2319
 3142TIP3    H130917   1.582   6.362   0.946 -0.6733 -3.1007 -3.2653
 3142TIP3    H230918   1.731   6.353   0.971 -0.8528  0.5350  0.3974
 3143TIP3   OH230919   0.727   4.141  12.745  0.4501 -0.3669  0.2398
 3143TIP3    H130920   0.719   4.058  12.699  0.5466 -0.5129  0.4887
 3143TIP3    H230921   0.701   4.123  12.835 -0.4077  0.0740  0.0879
 3144TIP3   OH230922   0.422   3.061  14.057 -0.7399 -0.1158  0.7162
 3144TIP3    H130923   0.441   3.152  14.078  0.6794 -0.2596  0.1460
 3144TIP3    H230924   0.420   3.058  13.961  0.7846 -0.9531  0.6718
 3145TIP3   OH230925   0.902   0.177   5.793  0.2435  0.3641  0.0175
 3145TIP3    H130926   0.977   0.147   5.741  0.5945 -0.8075  1.1565
 3145TIP3    H230927   0.879   0.261   5.754  0.0365 -0.7577 -2.5261
 3146TIP3   OH230928   4.151   6.170  10.617 -0.2111 -0.6894  0.6501
 3146TIP3    H130929   4.066   6.154  10.659  0.1343 -1.7517  0.9828
 3146TIP3    H230930   4.161   6.097  10.556 -0.4229  0.5051 -0.8616
 3147TIP3   OH230931   3.407   1.907   3.404 -0.1135  0.8593  0.1797
 3147TIP3    H130932   3.358   1.849   3.345  0.6901 -0.3709  0.6730
 3147TIP3    H230933   3.347   1.921   3.477 -0.1958  0.3505  0.2169
 3148TIP3   OH230934   4.859   3.137   1.874 -0.1826  0.0758 -0.2771
 3148TIP3    H130935   4.842   3.225   1.842  0.8032  0.3401 -0.1215
 3148TIP3    H230936   4.852   3.081   1.797 -0.8029  0.2891 -0.3766
 3149TIP3   OH230937   2.575   2.181  13.188  0.0838 -0.1353  0.3294
 3149TIP3    H130938   2.499   2.140  13.148  1.4699 -0.7182 -1.8600
 3149TIP3    H230939   2.568   2.273  13.165 -0.2512 -0.0764  0.6532
 3150TIP3   OH230940   2.036   4.455  16.262  0.4111  0.1944 -0.0777
 3150TIP3    H130941   1.969   4.499  16.209 -1.0833 -0.5792  1.1009
 3150TIP3    H230942   2.020   4.362  16.248 -0.7696 -0.0684  2.5419
 3151TIP3   OH230943   2.342   0.121   2.009  0.6811  0.0404 -0.2337
 3151TIP3    H130944   2.412   0.120   2.075 -0.2753 -0.6879  0.8019
 3151TIP3    H230945   2.388   0.128   1.926  2.0016 -0.5638  0.4168
 3152TIP3   OH230946   3.247   2.293   2.894 -0.3443  1.0144 -0.0247
 3152TIP3    H130947   3.160   2.321   2.920  0.0706  1.7636  0.5911
 3152TIP3    H230948   3.305   2.326   2.963  0.3081 -0.3590  0.1221
 3153TIP3   OH230949   2.918   1.764  15.896  0.8312  0.6792  0.7113
 3153TIP3    H130950   2.966   1.831  15.946  2.7202  0.8518 -1.1970
 3153TIP3    H230951   2.857   1.814  15.842 -0.5555  0.5461  2.0777
 3154TIP3   OH230952   6.297   6.203  14.176  0.3587 -0.1671  0.2820
 3154TIP3    H130953   6.379   6.174  14.136  0.1620  0.2102 -0.3989
 3154TIP3    H230954   6.234   6.133  14.156  0.7865 -1.0446  1.8319
 3155TIP3   OH230955   1.568   1.042   2.427 -0.0199  0.1671  0.7304
 3155TIP3    H130956   1.550   1.056   2.333 -1.4890 -0.8062  0.8376
 3155TIP3    H230957   1.530   1.119   2.469  1.4721  1.0754  0.4808
 3156TIP3   OH230958   0.457   0.902  14.228 -0.1783  0.1358 -0.0709
 3156TIP3    H130959   0.388   0.928  14.288 -0.3335 -2.1356  0.8472
 3156TIP3    H230960   0.426   0.820  14.189  0.4951  0.8771 -2.2913
 3157TIP3   OH230961   3.361   3.116   0.424  0.3425  0.5088  0.9425
 3157TIP3    H130962   3.436   3.112   0.365 -1.1498 -1.3216 -0.9943
 3157TIP3    H230963   3.323   3.202   0.408  0.6194  0.4830  0.0689
 3158TIP3   OH230964   4.344   2.025   1.996  0.5548 -0.3609  0.3228
 3158TIP3    H130965   4.310   2.042   2.083 -0.5990 -0.4104 -0.1097
 3158TIP3    H230966   4.342   2.110   1.952  0.3436 -0.4973  0.0678
 3159TIP3   OH230967   4.323   6.514   4.474  0.2694  0.1453  0.7220
 3159TIP3    H130968   4.394   6.578   4.482  0.7884 -0.2021 -0.8573
 3159TIP3    H230969   4.256   6.544   4.536  0.6509  2.0041  0.2801
 3160TIP3   OH230970   0.859   4.371   0.889  0.0481 -0.5826 -0.1890
 3160TIP3    H130971   0.837   4.465   0.888 -2.7631 -1.1508  0.4472
 3160TIP3    H230972   0.928   4.364   0.955 -0.1277  0.9839  0.2111
 3161TIP3   OH230973   1.112   1.506  14.818 -0.2036  0.2901 -0.0414
 3161TIP3    H130974   1.122   1.585  14.764 -0.2777  1.1318  1.1360
 3161TIP3    H230975   1.201   1.474  14.830  0.2313  2.0601  2.1127
 3162TIP3   OH230976   6.717   5.264  14.399  0.0362 -0.4251 -0.2790
 3162TIP3    H130977   6.810   5.250  14.419  0.6113 -0.6140 -2.6655
 3162TIP3    H230978   6.704   5.358  14.409 -0.0988 -0.6410  2.0402
 3163TIP3   OH230979   1.827   3.662   5.100 -0.6260  0.2648  0.2669
 3163TIP3    H130980   1.859   3.652   5.010 -2.0858 -0.4986 -0.2046
 3163TIP3    H230981   1.859   3.748   5.127 -0.2614  0.5636 -1.0239
 3164TIP3   OH230982   3.189   3.512  11.647 -0.0819  0.8581  0.3574
 3164TIP3    H130983   3.123   3.460  11.692 -0.0269  1.7678  1.5270
 3164TIP3    H230984   3.143   3.592  11.620  0.1337  0.7598 -0.3441
 3165TIP3   OH230985   3.785   0.361  16.709  0.3187  0.1967  0.0726
 3165TIP3    H130986   3.689   0.351  16.708  0.3289  0.0158  0.4380
 3165TIP3    H230987   3.800   0.437  16.764  0.3964  0.0302  0.2854
 3166TIP3   OH230988   4.470   6.387   1.350  0.3419  0.4301 -0.1841
 3166TIP3    H130989   4.551   6.381   1.299  1.4875  1.3824  1.4354
 3166TIP3    H230990   4.449   6.296   1.372  0.9302  0.1690 -0.6624
 3167TIP3   OH230991   3.845   3.969  11.076  0.1059 -0.7522  0.5633
 3167TIP3    H130992   3.871   3.931  10.992 -0.9693  1.3269 -0.7932
 3167TIP3    H230993   3.927   3.993  11.118  0.7553 -3.3337  0.9310
 3168TIP3   OH230994   2.718   3.070  12.592  0.1624 -0.0010 -0.2882
 3168TIP3    H130995   2.788   3.023  12.638  0.2827  0.3830 -0.0707
 3168TIP3    H230996   2.638   3.048  12.641  0.2860  0.3829  0.0957
 3169TIP3   OH230997   1.584   1.793   3.066 -0.0364 -0.4351 -0.1879
 3169TIP3    H130998   1.570   1.708   3.024 -0.4421 -0.5652  0.2044
 3169TIP3    H230999   1.677   1.811   3.052  0.5073 -1.8163  1.3037
 3170TIP3   OH231000   4.034   6.131  13.140 -0.1420  0.4003  0.5103
 3170TIP3    H131001   3.957   6.081  13.166 -0.7934 -0.8386 -3.1267
 3170TIP3    H231002   4.106   6.068  13.146 -0.4914 -0.2718 -1.4077
 3171TIP3   OH231003   2.833   5.384  14.879 -0.4455 -0.0938  0.1727
 3171TIP3    H131004   2.800   5.457  14.931 -0.3073  0.3537 -0.3724
 3171TIP3    H231005   2.824   5.308  14.938  0.9734  0.6129  1.3684
 3172TIP3   OH231006   0.047   1.774   3.547  0.0973 -0.3385  0.0731
 3172TIP3    H131007  -0.032   1.828   3.540  1.5192  2.1616  1.5998
 3172TIP3    H231008   0.115   1.827   3.506  1.3391 -1.5800  0.4735
 3173TIP3   OH231009   0.952   5.214  17.227 -0.5528  0.0449  0.0720
 3173TIP3    H131010   0.991   5.288  17.273  1.0320 -0.1906 -0.8244
 3173TIP3    H231011   0.862   5.211  17.258 -0.9065  2.8382 -0.4582
 3174TIP3   OH231012   2.434   2.861  12.815 -0.0846  0.1641  0.5386
 3174TIP3    H131013   2.400   2.943  12.850 -1.0008 -0.6644  1.6903
 3174TIP3    H231014   2.363   2.798  12.830  1.5339 -1.4095  2.0014
 3175TIP3   OH231015   4.705   5.506   4.625 -0.1634  0.5573 -0.1905
 3175TIP3    H131016   4.624   5.540   4.589 -0.3042 -0.1066 -0.5252
 3175TIP3    H231017   4.689   5.412   4.636  0.2878  0.5511  0.4815
 3176TIP3   OH231018   4.399   0.724   1.279 -0.6957 -0.0820  0.4192
 3176TIP3    H131019   4.326   0.683   1.325 -0.5960  0.8826  1.4827
 3176TIP3    H231020   4.477   0.694   1.325 -0.6216  1.2227  1.1884
 3177TIP3   OH231021   1.749   5.512   4.667 -0.2313 -0.1421  0.0569
 3177TIP3    H131022   1.679   5.577   4.665  0.8074  1.0129 -0.9125
 3177TIP3    H231023   1.826   5.560   4.636  0.9335 -1.4347  0.8330
 3178TIP3   OH231024   4.346   4.770  12.731  0.4963 -0.2008  0.0799
 3178TIP3    H131025   4.319   4.732  12.647  1.0965  0.2235 -0.3162
 3178TIP3    H231026   4.294   4.724  12.796  0.9704 -1.4731 -0.4065
 3179TIP3   OH231027   2.475   2.032  14.884  0.1176 -0.4557  0.2138
 3179TIP3    H131028   2.467   2.049  14.978 -0.4472 -0.2431  0.1284
 3179TIP3    H231029   2.409   2.088  14.844 -0.8783 -1.8918 -0.1819
 3180TIP3   OH231030   1.653   5.919   1.613  0.3463  0.2683  0.0650
 3180TIP3    H131031   1.678   6.007   1.585  0.3115 -0.1420 -1.3550
 3180TIP3    H231032   1.735   5.878   1.642  0.6138  0.3295 -0.5770
 3181TIP3   OH231033   0.025   3.091   1.503 -0.4076 -0.5486 -0.4681
 3181TIP3    H131034   0.083   3.132   1.438  0.9710 -0.9088  0.4839
 3181TIP3    H231035   0.050   2.998   1.502 -0.6166 -0.6158  0.3302
 3182TIP3   OH231036   3.348   5.828   3.645  0.1547  0.5937  0.1078
 3182TIP3    H131037   3.282   5.868   3.588 -1.2843  0.5665  1.6749
 3182TIP3    H231038   3.395   5.902   3.683 -0.0628  0.6777  0.2160
 3183TIP3   OH231039   3.430   0.972  11.865 -0.1108 -0.3108 -0.5132
 3183TIP3    H131040   3.366   1.004  11.930  1.0323 -1.7896  1.4617
 3183TIP3    H231041   3.422   1.034  11.792 -1.8769  1.1266  0.7796
 3184TIP3   OH231042   2.047   3.997  16.478  0.2207  0.7243 -0.4897
 3184TIP3    H131043   2.064   3.947  16.398  0.2910 -0.3937  0.2014
 3184TIP3    H231044   2.003   3.935  16.536  2.1220  0.8253  1.1580
 3185TIP3   OH231045   4.987   3.595  14.087 -0.0386 -0.2759  0.1194
 3185TIP3    H131046   5.033   3.529  14.139 -1.5109 -0.5810  1.1113
 3185TIP3    H231047   4.894   3.573  14.097 -0.4177 -0.5175 -2.9075
 3186TIP3   OH231048   0.299   1.211   3.637 -0.3062 -0.1908  0.1695
 3186TIP3    H131049   0.205   1.209   3.655 -0.7859 -1.0455 -2.0471
 3186TIP3    H231050   0.307   1.175   3.549  2.2956 -1.9257  0.9913
 3187TIP3   OH231051   1.527   2.467   3.640  0.2386  0.6638  0.3943
 3187TIP3    H131052   1.450   2.509   3.601 -0.0331  1.3530  1.6443
 3187TIP3    H231053   1.541   2.389   3.586 -1.4653  0.4070  0.2751
 3188TIP3   OH231054   2.740   0.799  11.306  0.0075  0.0734  0.2294
 3188TIP3    H131055   2.678   0.827  11.239 -1.0842  1.0166  1.5644
 3188TIP3    H231056   2.754   0.706  11.288  0.1976  0.4185 -1.6221
 3189TIP3   OH231057   3.035   3.332  13.515 -0.0080 -0.5052  0.2020
 3189TIP3    H131058   3.007   3.395  13.449  0.3131 -1.1943 -0.6149
 3189TIP3    H231059   2.963   3.268  13.518  0.1362 -0.6645  0.2576
 3190TIP3   OH231060   4.822   4.744   0.998 -1.0248  0.3254  0.9753
 3190TIP3    H131061   4.835   4.794   0.917 -1.4113  0.2337  0.8525
 3190TIP3    H231062   4.728   4.749   1.014 -1.2965 -1.5204  0.2098
 3191TIP3   OH231063   5.686   3.075   4.405  0.2133  0.2527  0.2742
 3191TIP3    H131064   5.636   2.994   4.401 -1.3160  1.1548  0.5840
 3191TIP3    H231065   5.723   3.077   4.493  1.6858 -0.8876 -0.2660
 3192TIP3   OH231066   3.951   3.163  16.555 -0.8982 -0.5824  0.3136
 3192TIP3    H131067   3.992   3.243  16.586 -1.1079  0.3935 -1.7468
 3192TIP3    H231068   3.901   3.130  16.630  2.5799 -1.2130  2.5821
 3193TIP3   OH231069   4.963   0.940   0.368 -0.1314  0.4389  0.8649
 3193TIP3    H131070   4.977   0.874   0.435  0.1676 -0.3273  0.0676
 3193TIP3    H231071   4.873   0.968   0.381 -1.5897 -2.7817 -1.0110
 3194TIP3   OH231072   2.091   3.651   6.534  0.1621 -0.2679  0.6783
 3194TIP3    H131073   2.153   3.686   6.599 -0.4989 -0.0643  1.2039
 3194TIP3    H231074   2.119   3.560   6.522  2.9611  0.7692 -1.9708
 3195TIP3   OH231075   4.755   0.157   5.672  0.1846  0.4400 -0.4306
 3195TIP3    H131076   4.800   0.241   5.677  1.1291 -0.0134 -1.0027
 3195TIP3    H231077   4.672   0.177   5.629 -0.9004  1.5535  2.0018
 3196TIP3   OH231078   2.711   5.618  13.357  0.0535 -0.4319  0.2308
 3196TIP3    H131079   2.690   5.662  13.274 -0.5828 -0.8002  0.1889
 3196TIP3    H231080   2.629   5.575  13.382  0.3718 -0.6980  0.8214
 3197TIP3   OH231081   1.682   2.470   4.315  0.4371 -0.1223  0.1657
 3197TIP3    H131082   1.692   2.381   4.280  0.5637 -0.1958  0.3879
 3197TIP3    H231083   1.635   2.517   4.246 -1.8165 -0.9996  1.0257
 3198TIP3   OH231084   6.210   6.230  16.602 -0.2280  0.0015 -0.3548
 3198TIP3    H131085   6.279   6.180  16.558  0.2133 -0.1695  0.5058
 3198TIP3    H231086   6.253   6.310  16.632 -0.0436 -0.7011  1.3660
 3199TIP3   OH231087   3.853   6.294   3.270 -0.2390 -0.4407  0.1707
 3199TIP3    H131088   3.884   6.258   3.353  2.0690 -0.0351 -0.4500
 3199TIP3    H231089   3.828   6.217   3.219 -2.4811 -0.6619  1.4536
 3200TIP3   OH231090   0.416   4.094   0.228 -0.0908  0.1676 -0.3527
 3200TIP3    H131091   0.341   4.123   0.281 -1.1295 -0.9925 -1.1297
 3200TIP3    H231092   0.484   4.159   0.245 -1.1902  1.1223  0.5694
 3201TIP3   OH231093   0.943   2.824   3.901 -0.1724 -0.2855  0.0517
 3201TIP3    H131094   0.977   2.781   3.822 -2.3103 -0.8683 -0.6271
 3201TIP3    H231095   0.869   2.876   3.870  0.7290  1.8579  1.2842
 3202TIP3   OH231096   4.477   6.673  14.043 -0.0120 -0.1371  0.0158
 3202TIP3    H131097   4.420   6.746  14.019 -1.3162 -0.6535  1.3725
 3202TIP3    H231098   4.564   6.712  14.052 -0.1855  0.7376 -1.7467
 3203TIP3   OH231099   3.146   5.706   3.371 -0.4104 -0.0421 -0.5033
 3203TIP3    H131100   3.190   5.623   3.355  1.7478  0.7488  0.8371
 3203TIP3    H231101   3.215   5.772   3.362 -1.4922  1.3632  0.8638
 3204TIP3   OH231102   4.603   5.954  14.291 -0.2303  0.1433  0.7425
 3204TIP3    H131103   4.630   5.980  14.379  0.8727  0.7227  0.2557
 3204TIP3    H231104   4.680   5.971  14.236 -1.8505  2.7957 -0.9330
 3205TIP3   OH231105   3.408   2.672   0.719 -0.0685 -0.7011  0.3334
 3205TIP3    H131106   3.464   2.639   0.789  0.5746  0.5845  0.4485
 3205TIP3    H231107   3.436   2.623   0.642  1.0264 -0.3101  0.4557
 3206TIP3   OH231108   5.058   4.427   0.304 -0.0745  0.3741  0.3545
 3206TIP3    H131109   5.049   4.338   0.336 -0.3699  0.6588  1.0668
 3206TIP3    H231110   5.149   4.450   0.322  0.9964 -0.9104 -2.7800
 3207TIP3   OH231111   2.055   3.065  10.944  0.1476  0.0825 -0.0484
 3207TIP3    H131112   2.147   3.043  10.932 -0.0765 -0.9036 -0.0156
 3207TIP3    H231113   2.016   3.054  10.858  0.0893  0.6754 -0.1012
 3208TIP3   OH231114   1.056   0.508  14.295 -0.0586 -0.3231  0.4437
 3208TIP3    H131115   1.093   0.480  14.379 -0.5461 -4.9970 -0.6397
 3208TIP3    H231116   0.961   0.501  14.307 -0.1060 -2.2759 -0.7651
 3209TIP3   OH231117   4.248   3.698   3.338  0.0892 -0.1835  0.1646
 3209TIP3    H131118   4.217   3.677   3.250 -1.0875 -1.0716  0.7626
 3209TIP3    H231119   4.337   3.664   3.341 -0.9121 -3.0887  0.3004
 3210TIP3   OH231120   3.426   4.769   3.792  0.1651  0.0218 -0.4919
 3210TIP3    H131121   3.404   4.833   3.725  0.1168 -0.1101 -0.6022
 3210TIP3    H231122   3.465   4.821   3.863 -0.5715  0.2695 -0.2562
 3211TIP3   OH231123   2.601   5.204   4.874  0.2477 -0.0452 -0.5853
 3211TIP3    H131124   2.533   5.265   4.901 -0.0472 -0.8503  0.5785
 3211TIP3    H231125   2.665   5.258   4.828 -0.2170  1.0544  0.0230
 3212TIP3   OH231126   5.409   3.279   0.600 -0.2259 -0.0141  0.0260
 3212TIP3    H131127   5.491   3.329   0.603  0.6065 -1.3492  0.0474
 3212TIP3    H231128   5.411   3.224   0.678 -1.0779 -0.1769 -0.0516
 3213TIP3   OH231129   6.298   2.718   3.656 -0.0848 -0.1780  0.2984
 3213TIP3    H131130   6.232   2.666   3.701 -0.0088  0.2079  0.8634
 3213TIP3    H231131   6.317   2.790   3.716  0.6601 -0.1438  0.0330
 3214TIP3   OH231132   0.064   0.302   4.425  1.0596  0.2152  0.3916
 3214TIP3    H131133   0.101   0.371   4.371  0.9529 -0.1312 -0.1343
 3214TIP3    H231134  -0.018   0.338   4.458  0.8194  0.2077 -0.1877
 3215TIP3   OH231135   6.530   0.366  16.118  0.0771 -0.9601  0.2410
 3215TIP3    H131136   6.560   0.456  16.134  0.8325 -1.1083 -0.2594
 3215TIP3    H231137   6.510   0.364  16.025  0.9443 -1.5484  0.0605
 3216TIP3   OH231138   4.262   6.476   3.534  0.1039 -0.1702  0.5161
 3216TIP3    H131139   4.299   6.536   3.469  1.1113 -0.5636  0.7036
 3216TIP3    H231140   4.245   6.395   3.486 -1.2602  0.2484  0.2628
 3217TIP3   OH231141   4.070   2.981  16.984  0.1815 -0.1632  0.1184
 3217TIP3    H131142   4.054   2.979  17.078  0.9434 -1.2953  0.2296
 3217TIP3    H231143   4.154   3.027  16.975 -1.4351  3.0234 -0.2714
 3218TIP3   OH231144   0.826   1.477  13.422  0.4998  0.6461  0.3420
 3218TIP3    H131145   0.756   1.455  13.483  2.1507 -0.3409  1.9592
 3218TIP3    H231146   0.831   1.573  13.425  0.9189  0.5970  2.2440
 3219TIP3   OH231147   4.229   6.417  14.047 -0.4894  0.4976  0.1337
 3219TIP3    H131148   4.174   6.430  13.970 -0.7955  1.6984  0.5327
 3219TIP3    H231149   4.319   6.418  14.012 -0.6716 -0.4548 -0.3869
 3220TIP3   OH231150   2.757   0.856  14.157 -0.1347  0.6283 -0.3429
 3220TIP3    H131151   2.840   0.896  14.183  0.9925 -1.1308 -1.0195
 3220TIP3    H231152   2.780   0.765  14.136 -2.0709  0.3511 -1.5021
 3221TIP3   OH231153   4.058   2.234   1.900  0.0112  0.9445  0.5902
 3221TIP3    H131154   3.968   2.227   1.929 -0.2351 -0.6253 -0.4168
 3221TIP3    H231155   4.110   2.229   1.980 -0.7529  0.6082  1.0693
 3222TIP3   OH231156   2.503   4.470   2.815  0.2344  0.4279  0.3986
 3222TIP3    H131157   2.543   4.439   2.897 -0.7171  0.1705  0.7841
 3222TIP3    H231158   2.568   4.451   2.748  1.7888  2.2144  1.2902
 3223TIP3   OH231159   4.568   6.431   2.080  0.6238 -0.3309 -0.0073
 3223TIP3    H131160   4.588   6.524   2.070 -0.2218 -0.0296  0.9464
 3223TIP3    H231161   4.609   6.406   2.162 -1.3051 -0.1292  1.0820
 3224TIP3   OH231162   1.757   5.651  11.750  0.5599 -0.0868  0.1492
 3224TIP3    H131163   1.833   5.682  11.799 -0.5257 -0.1595  2.0064
 3224TIP3    H231164   1.771   5.682  11.661  2.7594 -0.1327  0.4254
 3225TIP3   OH231165   6.482   3.985  14.614  0.3059 -0.1881 -0.9900
 3225TIP3    H131166   6.398   4.029  14.611  0.8111  0.8502 -0.5118
 3225TIP3    H231167   6.464   3.900  14.653 -0.5137  0.0217 -0.9045
 3226TIP3   OH231168   2.164   2.750  12.160  0.3959  0.2417 -0.5036
 3226TIP3    H131169   2.225   2.682  12.130  0.3819 -1.0349  2.1120
 3226TIP3    H231170   2.218   2.828  12.169  0.9205 -0.0075 -1.3357
 3227TIP3   OH231171   2.355   2.805  11.851 -0.1352  0.3845  0.1748
 3227TIP3    H131172   2.321   2.731  11.902  0.9623 -0.2716  0.0030
 3227TIP3    H231173   2.448   2.808  11.875  0.1484  0.7672 -0.9523
 3228TIP3   OH231174   3.287   4.668  11.426  0.1779 -0.4389 -0.0124
 3228TIP3    H131175   3.313   4.592  11.374  1.3112  0.7327 -1.2157
 3228TIP3    H231176   3.244   4.630  11.503  1.0423 -2.3007 -0.3858
 3229TIP3   OH231177   0.449   5.293   2.760  0.0723  0.0977  0.1771
 3229TIP3    H131178   0.379   5.307   2.696  0.1146 -0.5535 -0.0264
 3229TIP3    H231179   0.469   5.380   2.794 -0.7224  0.3097  0.1184
 3230TIP3   OH231180   0.487   2.094  16.781  0.1512 -0.7254 -0.1022
 3230TIP3    H131181   0.579   2.114  16.765  0.2232 -1.5136 -0.7582
 3230TIP3    H231182   0.452   2.069  16.695 -0.8645  0.2470 -0.0023
 3231TIP3   OH231183   4.100   6.707   3.850 -0.2376  0.3364  0.4303
 3231TIP3    H131184   4.066   6.796   3.853 -1.5579 -0.1012 -0.3754
 3231TIP3    H231185   4.107   6.680   3.941 -3.3111  0.0547  0.6853
 3232TIP3   OH231186   0.551   2.275   2.020  0.0358  0.0330  0.1205
 3232TIP3    H131187   0.547   2.324   1.939 -0.1196 -1.8863 -1.1122
 3232TIP3    H231188   0.627   2.310   2.067 -0.8748  2.3273 -0.0044
 3233TIP3   OH231189   2.530   1.625   1.186 -0.5640 -0.6493  0.1381
 3233TIP3    H131190   2.521   1.561   1.116 -3.2155 -1.7208  1.3014
 3233TIP3    H231191   2.497   1.707   1.149 -0.1513 -0.7250 -0.4076
 3234TIP3   OH231192   2.287   3.259   3.636 -0.2160  0.2303 -0.0121
 3234TIP3    H131193   2.245   3.339   3.667  0.1306  0.3203  0.2444
 3234TIP3    H231194   2.309   3.211   3.716 -0.0586  0.0708 -0.1484
 3235TIP3   OH231195   3.393   0.852   4.834  0.0358 -0.3511 -0.1073
 3235TIP3    H131196   3.455   0.921   4.810  0.5171 -0.1440  1.5883
 3235TIP3    H231197   3.430   0.813   4.913 -1.2657 -1.2047  0.1080
 3236TIP3   OH231198   6.220   2.290  15.658 -0.0311 -0.0221  0.7418
 3236TIP3    H131199   6.271   2.217  15.692  0.3687  0.3376  0.9283
 3236TIP3    H231200   6.282   2.340  15.604  0.2594  1.2638  2.1749
 3237TIP3   OH231201   2.291   0.796   1.044 -0.6119 -0.1442  0.2342
 3237TIP3    H131202   2.384   0.780   1.060 -0.0536 -0.4754 -2.7710
 3237TIP3    H231203   2.249   0.713   1.066 -0.0477 -0.3680  0.4943
 3238TIP3   OH231204   2.269   3.379   0.400  0.1830 -0.0731 -0.6719
 3238TIP3    H131205   2.221   3.353   0.479  0.8467 -0.9182 -0.5447
 3238TIP3    H231206   2.224   3.334   0.329  1.5398 -1.9423 -0.4178
 3239TIP3   OH231207   3.829   6.258   2.895  0.7873 -0.2967 -0.3485
 3239TIP3    H131208   3.762   6.240   2.829  0.3663  0.1446 -0.0477
 3239TIP3    H231209   3.910   6.270   2.845  0.9307 -2.1226 -0.6309
 3240TIP3   OH231210   4.069   2.976   0.077 -0.0016  0.1072  0.2454
 3240TIP3    H131211   4.072   2.930   0.161  1.7058  2.4114  1.5520
 3240TIP3    H231212   3.990   2.943   0.035 -1.3815 -0.5453  3.1023
 3241TIP3   OH231213   0.576   0.811   1.132  0.0127  0.3037 -0.4723
 3241TIP3    H131214   0.556   0.804   1.039 -0.2760  0.8965 -0.4617
 3241TIP3    H231215   0.525   0.886   1.162 -0.0789 -0.0264  0.2171
 3242TIP3   OH231216   1.182   0.458   4.690 -0.3019 -0.1273 -0.0145
 3242TIP3    H131217   1.250   0.400   4.656 -1.5096 -0.0933 -2.6907
 3242TIP3    H231218   1.220   0.545   4.686 -0.2490 -0.1823 -0.9027
 3243TIP3   OH231219   2.303   4.712   1.606  0.1661  0.0558  0.2900
 3243TIP3    H131220   2.279   4.766   1.681 -0.8824  1.7786 -1.2104
 3243TIP3    H231221   2.230   4.651   1.595  1.3778 -1.8307  2.0218
 3244TIP3   OH231222   3.452   5.828  16.429  0.6391  0.4653 -0.2432
 3244TIP3    H131223   3.387   5.898  16.426 -0.1375 -0.2554 -0.8925
 3244TIP3    H231224   3.413   5.758  16.376  1.1540 -0.6556  0.8335
 3245TIP3   OH231225   6.577   6.254  16.007  0.4766 -0.6002  0.5350
 3245TIP3    H131226   6.667   6.230  16.028  0.3008 -1.4702  0.2963
 3245TIP3    H231227   6.525   6.221  16.081  0.0109 -2.5880 -0.6119
 3246TIP3   OH231228   6.219   3.215   1.962  0.3298  0.1465 -1.1072
 3246TIP3    H131229   6.201   3.194   2.054  0.4902  2.4458 -0.5028
 3246TIP3    H231230   6.313   3.204   1.953  0.2684 -0.4171 -1.1073
 3247TIP3   OH231231   2.496   4.458  11.360 -0.4081  0.3202  0.0712
 3247TIP3    H131232   2.430   4.402  11.401  0.3325  0.4599  1.4909
 3247TIP3    H231233   2.562   4.471  11.427  0.6045  0.9764 -1.0153
 3248TIP3   OH231234   3.423   4.155  10.997 -0.0337 -0.0379  0.0247
 3248TIP3    H131235   3.475   4.213  11.052 -0.8856  0.0310  0.7773
 3248TIP3    H231236   3.398   4.208  10.922 -0.3036  0.3941  0.4157
 3249TIP3   OH231237   1.600   5.564  13.544 -0.3203  0.3441  0.0400
 3249TIP3    H131238   1.660   5.490  13.538  0.3342  0.9730 -1.8547
 3249TIP3    H231239   1.527   5.541  13.487 -1.1376  0.2931  1.0681
 3250TIP3   OH231240   4.947   3.291  13.932  0.5856  0.1608  0.0971
 3250TIP3    H131241   4.953   3.248  13.847  0.1937  0.6411 -0.1766
 3250TIP3    H231242   5.032   3.274  13.973  0.5382 -0.6399 -0.1085
 3251TIP3   OH231243   3.092   0.801  16.028 -0.0629 -0.0799  0.5126
 3251TIP3    H131244   3.046   0.866  16.082 -1.2027  0.1309 -0.6426
 3251TIP3    H231245   3.068   0.717  16.067 -1.4544  0.0281 -0.0437
 3252TIP3   OH231246   6.168   4.838   2.346  0.0279 -0.0080  0.2919
 3252TIP3    H131247   6.124   4.850   2.429 -0.9482  1.3621 -0.3787
 3252TIP3    H231248   6.131   4.906   2.289 -0.4025 -1.7928 -1.6998
 3253TIP3   OH231249   3.506   6.015   0.779  0.4612 -0.9688 -0.4153
 3253TIP3    H131250   3.439   5.950   0.760 -1.3099  0.0087  1.8910
 3253TIP3    H231251   3.572   5.968   0.831 -0.1363 -1.2362  0.1125
 3254TIP3   OH231252   3.353   5.646  14.670  0.3258  0.1206 -0.2441
 3254TIP3    H131253   3.322   5.582  14.606 -2.2473 -0.8838  1.8082
 3254TIP3    H231254   3.414   5.598  14.725  0.1507  0.0817 -0.0822
 3255TIP3   OH231255   2.107   1.413  12.043 -0.3065  0.8394  0.2737
 3255TIP3    H131256   2.112   1.336  12.100 -2.8606 -0.3212 -0.8890
 3255TIP3    H231257   2.197   1.429  12.015  0.6318 -0.1585  2.4970
 3256TIP3   OH231258   1.309   6.156   0.170 -0.0586  0.0295  0.8411
 3256TIP3    H131259   1.259   6.115   0.099  0.9046 -0.0973  0.2211
 3256TIP3    H231260   1.277   6.113   0.250 -0.7723 -0.2046  0.4432
 3257TIP3   OH231261   6.124   4.829   2.940 -0.3296  0.7357  0.3233
 3257TIP3    H131262   6.100   4.871   3.022  0.5941  2.4748 -0.2362
 3257TIP3    H231263   6.220   4.829   2.940 -0.2676 -1.9473  0.5284
 3258TIP3   OH231264   6.450   5.255  11.348  0.4529 -0.3173 -0.1963
 3258TIP3    H131265   6.483   5.192  11.412  0.0564  1.6025  2.0770
 3258TIP3    H231266   6.521   5.319  11.339 -0.9138  1.5796  1.5104
 3259TIP3   OH231267   1.552   1.378  14.875  0.0213  0.1645 -0.0447
 3259TIP3    H131268   1.644   1.385  14.902  0.9636 -1.2436 -2.6082
 3259TIP3    H231269   1.537   1.284  14.868 -0.7640  0.4215 -2.3020
 3260TIP3   OH231270   0.667   4.296   5.698 -0.6261  0.2017 -0.1619
 3260TIP3    H131271   0.676   4.382   5.739 -0.9650 -1.1467  3.0381
 3260TIP3    H231272   0.575   4.291   5.672 -1.5375 -0.2987  2.7363
 3261TIP3   OH231273   3.667   0.740   3.121 -0.1145 -0.4305 -0.3013
 3261TIP3    H131274   3.679   0.822   3.168 -0.2518  0.2941 -1.4917
 3261TIP3    H231275   3.576   0.716   3.138 -0.1716 -0.1648 -0.2304
 3262TIP3   OH231276   1.595   4.147  14.245  0.6812 -0.2526  0.0853
 3262TIP3    H131277   1.586   4.227  14.298  1.0723 -1.1695  1.6131
 3262TIP3    H231278   1.512   4.102  14.257 -0.2713  0.7119 -2.2567
 3263TIP3   OH231279   2.525   6.174   0.231 -0.2066 -0.1301  0.1494
 3263TIP3    H131280   2.546   6.229   0.306  3.8491 -1.4586  0.2447
 3263TIP3    H231281   2.497   6.235   0.163  2.1641  1.9274  0.8614
 3264TIP3   OH231282   6.062   4.639  15.380  0.5587  0.7265  0.3972
 3264TIP3    H131283   5.993   4.652  15.445  0.3373 -0.5605  0.4537
 3264TIP3    H231284   6.099   4.726  15.366 -2.6174  1.9386 -1.4046
 3265TIP3   OH231285   2.973   1.896  11.370 -0.3416  0.0797 -1.1725
 3265TIP3    H131286   2.966   1.974  11.315 -0.5018  0.3806 -0.7305
 3265TIP3    H231287   2.901   1.840  11.341 -0.8276  0.5189 -0.8372
 3266TIP3   OH231288   2.902   2.262   3.278  0.0384 -0.2615  0.0391
 3266TIP3    H131289   2.977   2.319   3.261  1.5592 -2.2539 -0.2879
 3266TIP3    H231290   2.925   2.179   3.236 -1.5368 -1.5176  1.5151
 3267TIP3   OH231291   3.094   1.761  12.115  0.1630 -0.6857 -0.4042
 3267TIP3    H131292   3.057   1.836  12.068  0.2888 -0.4751 -0.1728
 3267TIP3    H231293   3.059   1.769  12.204  3.8780  1.9244  1.1203
 3268TIP3   OH231294   6.550   4.293   5.750 -0.1609  0.3793  0.4024
 3268TIP3    H131295   6.611   4.225   5.724 -0.6543 -0.7235  1.9911
 3268TIP3    H231296   6.605   4.367   5.775  0.3855  0.5283 -1.1869
 3269TIP3   OH231297   1.784   5.647   1.220  0.1458  0.6105  0.3223
 3269TIP3    H131298   1.782   5.627   1.314  2.0529  0.3034  0.3484
 3269TIP3    H231299   1.799   5.742   1.216  2.4755  0.3235  0.4424
 3270TIP3   OH231300   6.018   4.014  12.317 -0.1444  0.1570  0.3952
 3270TIP3    H131301   5.996   4.092  12.368  1.1595  0.2747  0.8324
 3270TIP3    H231302   6.111   4.000  12.335 -0.1323 -0.9453 -0.4347
 3271TIP3   OH231303   1.750   6.691   3.380  0.2197 -0.4142 -0.8458
 3271TIP3    H131304   1.722   6.782   3.365  0.2244 -0.7764 -3.5452
 3271TIP3    H231305   1.669   6.642   3.387  0.2206 -0.4444 -1.0651
 3272TIP3   OH231306   6.654   6.454   0.593 -0.5962 -0.0847 -0.2161
 3272TIP3    H131307   6.688   6.424   0.677  0.1402 -0.5187 -0.6557
 3272TIP3    H231308   6.671   6.381   0.533  0.7068  0.9522 -1.1789
 3273TIP3   OH231309   5.452   4.906  16.864  0.1321 -0.9438  0.4600
 3273TIP3    H131310   5.489   4.993  16.854 -2.3519 -0.0427 -2.3426
 3273TIP3    H231311   5.466   4.884  16.956  3.1325  1.2318  0.6664
 3274TIP3   OH231312   0.726   4.263  15.644 -0.1343 -0.2028  0.2051
 3274TIP3    H131313   0.750   4.307  15.563  1.1786  1.1989  1.3086
 3274TIP3    H231314   0.798   4.281  15.704 -1.1730 -1.0176  1.7654
 3275TIP3   OH231315   6.818   1.817   4.602 -0.1460  0.3058 -0.4411
 3275TIP3    H131316   6.908   1.820   4.635 -1.1561  2.4089  2.6425
 3275TIP3    H231317   6.779   1.742   4.647 -0.7632  1.4471  1.0127
 3276TIP3   OH231318   1.196   2.003   4.953 -0.3594  0.2883  0.0147
 3276TIP3    H131319   1.284   2.037   4.969  0.1063 -1.7443  2.3798
 3276TIP3    H231320   1.158   1.992   5.040 -2.8564  0.7613 -0.9255
 3277TIP3   OH231321   2.111   3.512   1.879  0.1285  0.1104  0.2866
 3277TIP3    H131322   2.018   3.500   1.895  0.3619  0.1412  1.7706
 3277TIP3    H231323   2.154   3.478   1.957  1.2560  1.9128  0.5218
 3278TIP3   OH231324   2.240   3.730   4.836 -0.0884 -0.0945  0.1803
 3278TIP3    H131325   2.214   3.708   4.746 -1.7841  2.0727  0.0557
 3278TIP3    H231326   2.258   3.824   4.833  1.3457 -0.2749  1.8125
 3279TIP3   OH231327   2.057   3.995  14.604  0.1615 -0.3920  0.2141
 3279TIP3    H131328   2.053   4.027  14.514  1.6426 -0.6202  0.0472
 3279TIP3    H231329   1.966   3.976  14.627 -0.3521  0.6886 -0.8533
 3280TIP3   OH231330   5.418   5.355  13.648  0.2948  0.0315 -0.3738
 3280TIP3    H131331   5.326   5.361  13.676  0.4263 -1.8006  0.6204
 3280TIP3    H231332   5.415   5.305  13.566  0.3588  0.5809 -0.7148
 3281TIP3   OH231333   3.254   6.170   5.220 -0.4645  0.2845  0.0224
 3281TIP3    H131334   3.205   6.148   5.299 -1.9350  0.5243 -0.7841
 3281TIP3    H231335   3.336   6.121   5.228 -1.0937 -0.6301  1.1348
 3282TIP3   OH231336   6.353   5.656  17.137 -0.7898 -0.0425  0.4426
 3282TIP3    H131337   6.304   5.592  17.189 -2.5268  1.0347  0.1955
 3282TIP3    H231338   6.422   5.686  17.197  0.4485 -2.4745  0.3894
 3283TIP3   OH231339   6.392   4.679   5.271  0.1493 -0.5675 -0.2635
 3283TIP3    H131340   6.448   4.679   5.349  1.2287 -2.7460 -0.9713
 3283TIP3    H231341   6.303   4.690   5.306  0.7927  1.0564  1.0279
 3284TIP3   OH231342   4.414   1.093  11.515 -0.5394  0.5251 -0.2535
 3284TIP3    H131343   4.326   1.091  11.477 -0.7323  1.6426  0.0918
 3284TIP3    H231344   4.469   1.124  11.444 -0.1013 -1.7420 -0.9931
 3285TIP3   OH231345   0.653   5.934   5.151 -0.2199  0.0666  0.2527
 3285TIP3    H131346   0.698   5.960   5.232 -0.3417 -0.7674  0.6028
 3285TIP3    H231347   0.695   5.985   5.082  0.2308  0.4137  0.7758
 3286TIP3   OH231348   0.442   1.043   0.011 -0.0661  0.0290 -0.9108
 3286TIP3    H131349   0.380   1.110  -0.020  1.3164  0.1627 -3.7771
 3286TIP3    H231350   0.401   0.960  -0.014 -1.1311 -0.1790  1.3669
 3287TIP3   OH231351   2.792   4.777  16.453  0.1099  0.4308  0.0187
 3287TIP3    H131352   2.730   4.709  16.428 -1.6105  2.6056 -2.1022
 3287TIP3    H231353   2.877   4.745  16.422 -0.4367 -1.2745  0.2310
 3288TIP3   OH231354   4.719   3.969   3.544  0.7954  0.2883  0.0559
 3288TIP3    H131355   4.761   4.035   3.600 -1.7362  1.6082  0.5172
 3288TIP3    H231356   4.702   3.895   3.603  2.1411 -0.1561 -0.0763
 3289TIP3   OH231357   4.324   2.458   3.584 -0.1223  0.4560 -0.4229
 3289TIP3    H131358   4.406   2.479   3.539 -0.0359  0.9189 -0.0508
 3289TIP3    H231359   4.309   2.531   3.643 -0.0258 -0.3314  0.5991
 3290TIP3   OH231360   0.624   2.624  11.206  0.2069  0.0369  0.1157
 3290TIP3    H131361   0.656   2.569  11.135  0.1595 -1.1406  0.9836
 3290TIP3    H231362   0.567   2.567  11.258  1.3695  0.4153  1.9107
 3291TIP3   OH231363   4.109   6.719   0.917  0.3166 -0.0871  0.6412
 3291TIP3    H131364   4.132   6.637   0.873  2.9239  0.9377 -0.0976
 3291TIP3    H231365   4.174   6.726   0.988  0.4980  1.5979  0.3375
 3292TIP3   OH231366   0.257   3.544  12.038 -0.0540  0.3036  0.5366
 3292TIP3    H131367   0.260   3.639  12.040  0.7228  0.2664  2.1916
 3292TIP3    H231368   0.166   3.523  12.018  0.0016  1.3614 -1.0641
 3293TIP3   OH231369   6.119   3.039  15.845 -0.1423  0.4645 -0.1838
 3293TIP3    H131370   6.045   2.978  15.844 -0.1797  0.4502 -2.2873
 3293TIP3    H231371   6.197   2.983  15.847 -0.1845  0.4211  0.2318
 3294TIP3   OH231372   6.268   0.489   1.548 -0.1486 -0.4089 -0.9137
 3294TIP3    H131373   6.223   0.436   1.614  3.2447 -1.4898  0.7771
 3294TIP3    H231374   6.264   0.579   1.582  0.1619 -0.7102 -0.0531
 3295TIP3   OH231375   2.836   6.634  15.027  0.3436  0.1979 -0.0386
 3295TIP3    H131376   2.909   6.637  14.966  1.0111  1.0166  0.7816
 3295TIP3    H231377   2.867   6.581  15.100 -0.6165 -1.1812 -0.5893
 3296TIP3   OH231378   3.218   1.802  11.657  0.5182  0.7480  0.0932
 3296TIP3    H131379   3.303   1.838  11.680  0.5288 -0.2795  1.8116
 3296TIP3    H231380   3.191   1.752  11.734 -1.7846  1.2772 -0.2823
 3297TIP3   OH231381   2.522   6.009   1.886  0.4463  0.5787 -0.0019
 3297TIP3    H131382   2.461   6.049   1.948  0.3537 -0.3845  0.5574
 3297TIP3    H231383   2.553   5.930   1.931 -2.9236 -2.6720 -2.6414
 3298TIP3   OH231384   4.044   1.849   2.997  0.2132  0.0300  0.3955
 3298TIP3    H131385   3.972   1.788   3.013 -0.9947  1.7052  1.7413
 3298TIP3    H231386   4.101   1.803   2.935 -1.7634 -1.5368 -0.3705
 3299TIP3   OH231387   0.756   2.403   5.840  0.1245 -0.1308 -0.0602
 3299TIP3    H131388   0.803   2.348   5.777  0.3149 -0.0907  0.0459
 3299TIP3    H231389   0.735   2.483   5.792  0.2146 -0.1256 -0.0898
 3300TIP3   OH231390   1.820   6.213  15.408 -0.6983  0.7003  0.3094
 3300TIP3    H131391   1.867   6.296  15.419  2.5508 -0.8676 -0.6961
 3300TIP3    H231392   1.786   6.217  15.318 -2.5170  1.7591  0.9797
 3301TIP3   OH231393   6.209   0.061   0.459  0.4520 -0.6679  0.2763
 3301TIP3    H131394   6.195  -0.033   0.445  0.7313 -0.7120  0.2849
 3301TIP3    H231395   6.289   0.066   0.512  0.1568 -0.4450  0.7038
 3302TIP3   OH231396   3.724   6.596   2.121 -0.2586  0.0871  0.5305
 3302TIP3    H131397   3.698   6.614   2.031 -1.2165  0.9574  0.9478
 3302TIP3    H231398   3.671   6.520   2.146  0.7206 -0.7665  0.0728
 3303TIP3   OH231399   0.694   1.807  12.388 -0.1723 -0.4065 -0.3474
 3303TIP3    H131400   0.680   1.900  12.404  2.1033  0.2331 -1.4970
 3303TIP3    H231401   0.606   1.770  12.380 -1.1406  1.5023  0.7692
 3304TIP3   OH231402   2.004   5.474   0.351  0.0704 -0.0975 -0.4340
 3304TIP3    H131403   2.011   5.536   0.278  0.9223  1.2494  0.7221
 3304TIP3    H231404   2.069   5.505   0.414  1.8002 -3.1857 -0.4800
 3305TIP3   OH231405   2.344   0.581   3.008 -0.1694  0.1120  0.5604
 3305TIP3    H131406   2.347   0.609   2.916  0.9942 -3.4086 -0.6491
 3305TIP3    H231407   2.251   0.583   3.031 -0.6524 -0.2214 -1.1882
 3306TIP3   OH231408   4.595   5.956   6.522 -0.2460  0.0315 -0.2213
 3306TIP3    H131409   4.581   5.896   6.596 -0.2510 -0.2327 -0.4345
 3306TIP3    H231410   4.684   5.937   6.492  0.3306  1.1968  0.6649
 3307TIP3   OH231411   0.017   6.202  14.624 -0.2476 -0.2626 -0.2600
 3307TIP3    H131412  -0.019   6.122  14.584  0.1481 -0.7402  0.3321
 3307TIP3    H231413  -0.009   6.271  14.563 -1.9870 -0.6146  0.0122
 3308TIP3   OH231414   0.088   4.155  15.649  0.5238 -0.0615 -0.3229
 3308TIP3    H131415   0.135   4.122  15.726 -2.6440 -1.0853  1.3094
 3308TIP3    H231416   0.057   4.242  15.675 -2.8298 -1.4491  0.7307
 3309TIP3   OH231417   0.274   0.447   3.243  0.7061  0.2279  0.0165
 3309TIP3    H131418   0.210   0.421   3.176  1.9177  0.0414 -1.1126
 3309TIP3    H231419   0.226   0.508   3.300 -0.3529  0.4220 -1.0421
 3310TIP3   OH231420   5.466   3.607   0.079 -0.4062  0.0201 -0.2274
 3310TIP3    H131421   5.417   3.532   0.046  0.4712 -1.0483  0.7967
 3310TIP3    H231422   5.521   3.571   0.149  0.4246  1.5259 -0.0556
 3311TIP3   OH231423   0.597   3.675  12.317 -0.5471  0.3534  0.2305
 3311TIP3    H131424   0.625   3.728  12.242 -1.5981 -0.3611 -0.7025
 3311TIP3    H231425   0.634   3.720  12.393  0.4067  1.1935 -0.6959
 3312TIP3   OH231426   1.194   5.183   4.642  0.3635  0.2455 -0.2295
 3312TIP3    H131427   1.185   5.104   4.589  1.1248  0.1491 -0.2231
 3312TIP3    H231428   1.270   5.166   4.698  0.4399  0.9194 -0.1173
 3313TIP3   OH231429   3.510   4.031  13.196  0.6994 -0.7612  0.0107
 3313TIP3    H131430   3.539   4.065  13.111  1.3270 -0.6248  0.2712
 3313TIP3    H231431   3.520   4.105  13.255 -0.1628 -0.7264  0.1194
 3314TIP3   OH231432   6.168   3.291  15.084  0.3180 -0.0609 -0.4562
 3314TIP3    H131433   6.222   3.305  15.161  1.5951 -2.1114 -0.9000
 3314TIP3    H231434   6.078   3.303  15.115  0.8751  4.1991  0.1240
 3315TIP3   OH231435   3.711   1.902  17.112 -0.4589  0.0090  0.2249
 3315TIP3    H131436   3.703   1.873  17.203  3.3552 -1.3433  0.3070
 3315TIP3    H231437   3.692   1.824  17.060 -2.2566  0.6819 -0.1891
 3316TIP3   OH231438   3.898   2.780   3.341  0.4787  0.0660 -0.2512
 3316TIP3    H131439   3.848   2.839   3.397  0.6359  0.2493 -0.3041
 3316TIP3    H231440   3.965   2.835   3.301  0.1805 -0.0061 -0.8565
 3317TIP3   OH231441   6.447   5.247  12.508 -0.0562 -0.3965  0.1832
 3317TIP3    H131442   6.437   5.168  12.560  2.0884 -1.2449 -0.5884
 3317TIP3    H231443   6.438   5.218  12.417 -0.1239  0.4082 -0.0775
 3318TIP3   OH231444   6.596   0.156   4.470  0.2020 -0.5055 -0.3508
 3318TIP3    H131445   6.612   0.249   4.456  2.0068 -0.7029  0.2319
 3318TIP3    H231446   6.504   0.151   4.498 -0.0461  1.0320 -0.8288
 3319TIP3   OH231447   5.038   2.641  10.224 -0.5560  0.0866 -0.3745
 3319TIP3    H131448   5.102   2.615  10.290 -1.3109 -0.2982  0.2235
 3319TIP3    H231449   4.966   2.579  10.234 -0.5258 -0.2396 -1.8442
 3320TIP3   OH231450   2.517   0.275  15.322  0.3721 -0.7204 -0.1210
 3320TIP3    H131451   2.527   0.348  15.382 -1.9472  0.5144 -1.1122
 3320TIP3    H231452   2.483   0.203  15.376 -1.0532  0.1670  0.2164
 3321TIP3   OH231453   1.502   4.221  12.836  0.0692 -0.7651  0.6925
 3321TIP3    H131454   1.550   4.304  12.837  0.4675 -0.9172 -1.3050
 3321TIP3    H231455   1.443   4.228  12.761 -1.7140 -1.3434  1.9699
 3322TIP3   OH231456   1.410   4.082   0.246 -0.5300  0.7802  1.1105
 3322TIP3    H131457   1.317   4.075   0.267 -0.4227  0.9260  1.6437
 3322TIP3    H231458   1.426   4.176   0.242 -1.6035  1.0992 -4.3625
 3323TIP3   OH231459   4.242   0.679  11.961 -0.4646 -0.4340 -0.3296
 3323TIP3    H131460   4.148   0.689  11.979 -0.4790 -0.4632 -0.3873
 3323TIP3    H231461   4.260   0.741  11.891  0.2721  2.0926  1.9640
 3324TIP3   OH231462   0.355   4.145  14.646  0.7633 -0.5828 -0.4493
 3324TIP3    H131463   0.345   4.106  14.733 -0.0583 -1.3762 -0.8817
 3324TIP3    H231464   0.384   4.073  14.591  0.4552 -0.2838 -1.0084
 3325TIP3   OH231465   4.738   5.848  16.242  0.1659 -0.2626 -0.3915
 3325TIP3    H131466   4.815   5.823  16.191  1.6066 -0.5884  1.8253
 3325TIP3    H231467   4.732   5.783  16.311 -2.4480 -0.5258 -0.7860
 3326TIP3   OH231468   5.584   4.636   0.143 -0.2942 -0.8780 -0.3009
 3326TIP3    H131469   5.581   4.732   0.141  2.1447 -0.7247  0.3168
 3326TIP3    H231470   5.577   4.610   0.051 -1.4163 -0.1712 -0.4402
 3327TIP3   OH231471   3.939   2.440  13.893  0.0013  0.0340  0.2595
 3327TIP3    H131472   3.941   2.434  13.989  0.4162  0.0368  0.2540
 3327TIP3    H231473   3.902   2.356  13.865  1.2231 -0.5731  0.3747
 3328TIP3   OH231474   0.021   2.653   4.763  0.0147  0.4994 -0.4359
 3328TIP3    H131475   0.077   2.690   4.695 -0.3401  0.5927 -0.6745
 3328TIP3    H231476  -0.018   2.729   4.806  0.4542  0.4521  0.0568
 3329TIP3   OH231477   0.060   0.810   0.232 -0.1560  0.0905  0.4353
 3329TIP3    H131478   0.148   0.775   0.244 -0.3880  0.0410  2.4556
 3329TIP3    H231479   0.069   0.904   0.247 -0.2421  0.2852 -0.6793
 3330TIP3   OH231480   2.093   6.106  13.429 -0.2351  0.3868 -0.3243
 3330TIP3    H131481   2.069   6.020  13.394 -0.2577 -0.0427  0.7087
 3330TIP3    H231482   2.105   6.161  13.352  0.6389 -0.7704 -1.0496
 3331TIP3   OH231483   5.225   2.392  13.158 -0.1378  0.0360  0.1299
 3331TIP3    H131484   5.199   2.307  13.194 -0.1439  0.8018  2.0702
 3331TIP3    H231485   5.145   2.443  13.158 -0.2073 -0.0515 -1.3804
 3332TIP3   OH231486   2.159   5.023  14.201  0.6909  0.3879 -0.2199
 3332TIP3    H131487   2.139   5.062  14.116  0.6895 -0.6095 -0.6894
 3332TIP3    H231488   2.245   5.060  14.224  0.6444  0.7423 -0.6061
 3333TIP3   OH231489   0.440   1.072  11.016 -0.0047  0.3540 -0.1592
 3333TIP3    H131490   0.475   1.014  10.949  1.3662  0.6027  0.3168
 3333TIP3    H231491   0.456   1.161  10.983  0.5382  0.4765  0.4087
 3334TIP3   OH231492   5.584   1.903   3.482 -0.1439 -0.4551 -0.3349
 3334TIP3    H131493   5.621   1.895   3.394 -1.1917  1.3156 -0.9947
 3334TIP3    H231494   5.660   1.916   3.539  0.5347 -1.4360 -0.9960
 3335TIP3   OH231495   1.645   5.782  14.111 -0.6868  0.5463 -0.0218
 3335TIP3    H131496   1.688   5.783  14.026  1.9009  0.1938  1.1681
 3335TIP3    H231497   1.693   5.846  14.163 -0.8479 -0.6911  1.7481
 3336TIP3   OH231498   4.746   6.752   0.597  0.1253  0.3408  0.1075
 3336TIP3    H131499   4.795   6.765   0.515  2.3650 -2.7989  0.8024
 3336TIP3    H231500   4.681   6.685   0.575  0.2329  0.0345  0.7285
 3337TIP3   OH231501   2.290   4.000   3.168 -0.2502  0.9007 -0.7205
 3337TIP3    H131502   2.217   4.046   3.127 -1.5771 -1.9793 -1.8611
 3337TIP3    H231503   2.342   3.966   3.095 -0.0443 -0.4305  0.0036
 3338TIP3   OH231504   2.635   1.754  13.933  0.2752 -0.0908 -0.0888
 3338TIP3    H131505   2.575   1.819  13.898 -1.5721 -1.8333 -0.3607
 3338TIP3    H231506   2.707   1.751  13.870  1.1331  2.6106  0.6560
 3339TIP3   OH231507   0.055   1.731   6.518 -0.0893 -0.1154 -0.4171
 3339TIP3    H131508   0.043   1.639   6.494 -1.3140 -0.7391  2.2555
 3339TIP3    H231509  -0.033   1.768   6.517 -0.0026  0.2074  1.3836
 3340TIP3   OH231510   2.463   2.982  15.773  0.3340 -0.3192 -0.9394
 3340TIP3    H131511   2.436   3.050  15.711  3.7587 -0.4948 -2.8433
 3340TIP3    H231512   2.495   3.030  15.850 -0.3710  0.0525 -0.8702
 3341TIP3   OH231513   0.185   2.941  16.308  0.0641  0.2850  0.1915
 3341TIP3    H131514   0.149   3.029  16.310 -1.8229 -0.4410  0.1287
 3341TIP3    H231515   0.228   2.931  16.393 -0.4425  0.9783  0.5438
 3342TIP3   OH231516   1.165   3.025   4.752  0.3299  0.1745 -0.4036
 3342TIP3    H131517   1.131   3.043   4.839 -1.0449 -0.6296 -0.7308
 3342TIP3    H231518   1.245   2.974   4.767  0.9993  1.4292  0.3892
 3343TIP3   OH231519   4.762   0.828   5.104  0.0356 -0.3883 -0.3804
 3343TIP3    H131520   4.741   0.921   5.101  0.1140 -0.3681 -0.3059
 3343TIP3    H231521   4.713   0.790   5.031  0.6291 -0.1591 -0.9134
 3344TIP3   OH231522   0.145   5.120   1.527 -0.2661 -0.2661 -0.3426
 3344TIP3    H131523   0.219   5.088   1.476 -0.9047  0.5825 -1.8705
 3344TIP3    H231524   0.185   5.165   1.601  0.6869 -1.3552 -0.1556
 3345TIP3   OH231525   3.769   2.247   4.543  0.2042  0.1677  0.3531
 3345TIP3    H131526   3.715   2.274   4.469 -0.0315  1.0504  0.8374
 3345TIP3    H231527   3.840   2.310   4.546  0.2232  0.1256  0.8621
 3346TIP3   OH231528   1.153   3.730  11.918  0.1811 -0.5899  0.6642
 3346TIP3    H131529   1.111   3.658  11.872 -1.1404  0.4651  0.1490
 3346TIP3    H231530   1.175   3.792  11.848 -1.0723  0.6511  1.3319
 3347TIP3   OH231531   1.408   5.362  14.569 -0.0924  0.1162  0.0976
 3347TIP3    H131532   1.329   5.365  14.516 -2.2704  2.5047  3.1481
 3347TIP3    H231533   1.446   5.450  14.562  0.9737 -0.2825  0.5653
 3348TIP3   OH231534   1.500   0.146   6.018  0.2534 -0.5147 -0.2799
 3348TIP3    H131535   1.495   0.176   6.108  0.7880  0.9168 -0.6948
 3348TIP3    H231536   1.414   0.167   5.981 -0.7835 -3.1308  0.4356
 3349TIP3   OH231537   0.825   5.262   3.857 -0.7416 -0.4415  0.3151
 3349TIP3    H131538   0.871   5.179   3.869 -0.3906 -0.1396  1.1960
 3349TIP3    H231539   0.886   5.328   3.890 -1.3844  0.0738  0.5055
 3350TIP3   OH231540   2.500   4.068   0.140  0.0274 -0.7361 -0.3886
 3350TIP3    H131541   2.496   4.099   0.049 -0.2945 -2.1928 -0.9014
 3350TIP3    H231542   2.582   4.020   0.145  1.0414  1.0094  0.6951
 3351TIP3   OH231543   1.729   0.842  14.240  0.4869 -0.9212  0.5416
 3351TIP3    H131544   1.818   0.814  14.215  0.7388 -1.4142  1.8873
 3351TIP3    H231545   1.743   0.919  14.295 -0.1003  0.6108 -1.3350
 3352TIP3   OH231546   1.028   6.273  13.050 -0.1479  0.0941  0.2207
 3352TIP3    H131547   0.964   6.217  13.093  0.1519  1.2805  2.3858
 3352TIP3    H231548   1.020   6.357  13.095  1.9970  0.6638 -0.3282
 3353TIP3   OH231549   3.646   3.646   5.101  0.3603  0.2371 -0.4035
 3353TIP3    H131550   3.565   3.685   5.068 -0.3157  0.0700  0.9708
 3353TIP3    H231551   3.625   3.622   5.191  1.9658  0.2397 -0.0057
 3354TIP3   OH231552   3.275   5.459  15.848 -0.3636 -0.3952 -0.2656
 3354TIP3    H131553   3.212   5.436  15.779 -1.5551  2.3609 -0.2336
 3354TIP3    H231554   3.356   5.416  15.822 -1.0961 -0.4181 -2.7778
 3355TIP3   OH231555   5.788   0.248   0.331  0.1151  0.2780 -0.1903
 3355TIP3    H131556   5.881   0.262   0.349 -0.0822  1.1841  0.1974
 3355TIP3    H231557   5.754   0.336   0.314 -0.6511 -0.0594 -0.4377
 3356TIP3   OH231558   1.579   1.214   4.174  0.0497 -0.9851 -0.4754
 3356TIP3    H131559   1.645   1.194   4.109  2.0380  0.8595  0.8443
 3356TIP3    H231560   1.613   1.176   4.255 -1.1182 -1.0385  0.0170
 3357TIP3   OH231561   4.299   6.087   0.880  0.6635  0.9786 -1.0251
 3357TIP3    H131562   4.385   6.062   0.847  0.1695  0.3510 -1.8857
 3357TIP3    H231563   4.253   6.004   0.891  2.1038  0.5570  5.3766
 3358TIP3   OH231564   1.553   3.465   4.778  0.1264  0.2376 -0.0757
 3358TIP3    H131565   1.597   3.546   4.805  0.5489 -0.1057  0.2866
 3358TIP3    H231566   1.500   3.490   4.703  0.6367  0.7470 -0.2727
 3359TIP3   OH231567   0.944   1.760   1.726  0.0413 -0.0855 -0.7934
 3359TIP3    H131568   0.849   1.749   1.728  0.1285 -0.8204 -0.6327
 3359TIP3    H231569   0.958   1.848   1.761 -0.6146  0.2618 -1.3740
 3360TIP3   OH231570   0.291   1.250  15.041  0.1913  0.0803  0.2804
 3360TIP3    H131571   0.336   1.295  14.970  0.2988  1.1593  1.0204
 3360TIP3    H231572   0.199   1.275  15.032 -0.1721 -1.4289 -0.6987
 3361TIP3   OH231573   3.216   2.409   4.218 -0.1447 -0.4675  0.1363
 3361TIP3    H131574   3.260   2.480   4.264 -0.2829  0.1912 -0.7157
 3361TIP3    H231575   3.189   2.348   4.287  2.0662 -0.9051  0.6987
 3362TIP3   OH231576   2.297   2.577   2.785  0.4035 -0.2644  0.1274
 3362TIP3    H131577   2.209   2.557   2.752  0.0560 -0.2728  1.0390
 3362TIP3    H231578   2.298   2.672   2.794  0.7029 -0.2071 -0.4508
 3363TIP3   OH231579   5.827   3.350  14.827 -0.3723 -0.3140  0.1273
 3363TIP3    H131580   5.836   3.417  14.895  0.2885 -1.1370  0.8763
 3363TIP3    H231581   5.881   3.381  14.755 -0.0301 -0.0564  0.4922
 3364TIP3   OH231582   4.045   3.291  14.700  0.1629 -0.0405  0.3169
 3364TIP3    H131583   4.087   3.208  14.723 -0.7953 -0.0119  2.3363
 3364TIP3    H231584   3.953   3.268  14.685 -0.1050  0.6359  0.8558
 3365TIP3   OH231585   6.020   1.849   3.719  0.0017 -0.2126 -0.3322
 3365TIP3    H131586   6.054   1.760   3.718  0.9308  0.0993 -2.5701
 3365TIP3    H231587   6.060   1.890   3.796  1.3919 -1.0826 -0.5699
 3366TIP3   OH231588   6.447   3.805  11.040 -0.4152  0.2465 -0.3606
 3366TIP3    H131589   6.504   3.728  11.047 -1.0638 -0.1146  1.8131
 3366TIP3    H231590   6.435   3.818  10.946 -0.1003 -2.1695 -0.8073
 3367TIP3   OH231591   1.710   3.132  15.935  0.2291 -0.5973  0.0093
 3367TIP3    H131592   1.653   3.207  15.916  0.1314 -0.8661 -0.7639
 3367TIP3    H231593   1.652   3.056  15.928  1.0364 -1.0702 -2.7394
 3368TIP3   OH231594   2.912   5.119   3.079 -0.4236 -0.6510  0.0704
 3368TIP3    H131595   2.840   5.086   3.134 -0.5594  0.6272  0.7059
 3368TIP3    H231596   2.868   5.167   3.009 -0.2131  0.5293  0.7203
 3369TIP3   OH231597   0.701   3.966  11.973 -0.2227  0.6445 -0.3524
 3369TIP3    H131598   0.691   3.937  11.882 -0.4151  1.1344 -0.4910
 3369TIP3    H231599   0.716   4.060  11.966  1.3246  0.4613  0.0279
 3370TIP3   OH231600   2.127   4.620  12.683  0.5650  0.4400  0.0199
 3370TIP3    H131601   2.058   4.558  12.660  0.1446  0.6276  0.7614
 3370TIP3    H231602   2.106   4.699  12.634  1.2128 -0.0459 -1.0855
 3371TIP3   OH231603   2.885   4.412   3.534 -0.3211 -0.0159  0.5255
 3371TIP3    H131604   2.943   4.350   3.491  0.2199  1.4944 -1.0632
 3371TIP3    H231605   2.798   4.391   3.500  0.1498  1.4081 -1.8064
 3372TIP3   OH231606   1.076   4.544  11.279 -0.5456 -0.6207 -0.1402
 3372TIP3    H131607   1.125   4.468  11.248  2.0341  1.5124 -1.7888
 3372TIP3    H231608   1.110   4.617  11.227 -2.1933  1.8269  1.9737
 3373TIP3   OH231609   5.258   2.655   4.917  0.3532  0.0337 -0.0413
 3373TIP3    H131610   5.174   2.609   4.924  0.1839  0.4457  0.7787
 3373TIP3    H231611   5.269   2.696   5.002 -0.0006  2.3682 -1.0418
 3374TIP3   OH231612   3.059   6.136  15.966  0.7801 -0.1632 -0.3857
 3374TIP3    H131613   2.980   6.087  15.944 -0.0966  0.6283  0.8967
 3374TIP3    H231614   3.108   6.077  16.023 -0.4535  0.5306  1.4664
 3375TIP3   OH231615   2.582   0.217  12.310  0.6047 -0.0960  0.0863
 3375TIP3    H131616   2.567   0.218  12.215 -0.2324  2.2441  0.1672
 3375TIP3    H231617   2.651   0.153  12.323  0.3746 -0.8616 -2.0426
 3376TIP3   OH231618   3.513   0.031   0.531 -0.7280 -0.0773 -0.5524
 3376TIP3    H131619   3.523   0.107   0.588 -1.9276 -0.2202 -0.1113
 3376TIP3    H231620   3.563  -0.038   0.575 -0.5720  0.1548 -0.3625
 3377TIP3   OH231621   0.856   3.746  12.735 -0.3425  0.5997  0.0288
 3377TIP3    H131622   0.887   3.816  12.678 -0.6577  0.1710 -0.6917
 3377TIP3    H231623   0.897   3.667  12.699 -0.3455  0.3516  0.5596
 3378TIP3   OH231624   5.854   5.616   1.817  0.2336 -0.5408 -0.0525
 3378TIP3    H131625   5.828   5.536   1.863  1.3218 -0.2330  1.1541
 3378TIP3    H231626   5.771   5.658   1.794 -0.4300  0.0894  3.0779
 3379TIP3   OH231627   2.524   0.706   3.174 -0.8124  0.3213  0.2434
 3379TIP3    H131628   2.525   0.785   3.120  1.0164 -0.7728 -1.4828
 3379TIP3    H231629   2.459   0.650   3.132 -0.9358  0.2860  0.4821
 3380TIP3   OH231630   3.340   1.709   5.587 -1.1039  0.5093  0.4297
 3380TIP3    H131631   3.403   1.697   5.658 -1.2529 -1.4139  0.2701
 3380TIP3    H231632   3.263   1.747   5.629 -0.8884  0.1594  1.1549
 3381TIP3   OH231633   6.337   4.303   4.485  0.0386 -0.0177 -0.3447
 3381TIP3    H131634   6.369   4.282   4.573 -1.4500 -1.5467 -0.1147
 3381TIP3    H231635   6.415   4.296   4.430  0.6496 -0.9105  0.5807
 3382TIP3   OH231636   3.676   4.682   6.449 -0.7474  0.2191 -0.1709
 3382TIP3    H131637   3.701   4.726   6.530 -0.0882 -0.8295  0.2091
 3382TIP3    H231638   3.657   4.592   6.475 -1.0048 -0.0119 -1.1046
 3383TIP3   OH231639   0.211   5.485   0.532 -0.2162  0.1395  0.4890
 3383TIP3    H131640   0.191   5.578   0.550  1.5076  0.7152 -0.3853
 3383TIP3    H231641   0.305   5.478   0.549  0.2857 -0.7397 -2.2139
 3384TIP3   OH231642   1.477   6.371  16.392 -0.6200  0.0027 -0.2210
 3384TIP3    H131643   1.446   6.462  16.398 -1.8247 -0.4754  2.1346
 3384TIP3    H231644   1.418   6.322  16.450  1.7987 -1.7696  0.9361
 3385TIP3   OH231645   3.037   2.654  14.150  0.4796  0.3466  0.8258
 3385TIP3    H131646   2.969   2.721  14.161 -0.0571 -0.0645  0.1001
 3385TIP3    H231647   3.036   2.605  14.232 -0.7199 -0.2128  0.4966
 3386TIP3   OH231648   6.015   0.399   2.241 -0.1177 -0.1451 -0.4037
 3386TIP3    H131649   5.973   0.374   2.324  0.8786  2.3938  0.9516
 3386TIP3    H231650   6.098   0.351   2.241 -0.9767 -1.7338 -0.9893
 3387TIP3   OH231651   3.503   3.095   3.356  0.2164  0.1080  0.0310
 3387TIP3    H131652   3.459   3.059   3.434  1.7932 -0.3680  0.7586
 3387TIP3    H231653   3.480   3.187   3.356 -0.7674 -0.1229  0.3814
 3388TIP3   OH231654   0.872   0.521   0.440 -0.1614  0.4104 -0.7441
 3388TIP3    H131655   0.790   0.539   0.393 -1.2902 -2.0301  0.0929
 3388TIP3    H231656   0.844   0.483   0.523  1.8460  0.4795  0.0252
 3389TIP3   OH231657   1.403   2.072  14.299 -0.0884  0.0949 -0.0890
 3389TIP3    H131658   1.483   2.078  14.248  0.7262  1.5323  1.2602
 3389TIP3    H231659   1.344   2.135  14.257 -0.4042 -0.6928 -0.8558
 3390TIP3   OH231660   1.588   1.210   0.382  0.3814  0.0285 -0.0656
 3390TIP3    H131661   1.511   1.176   0.335 -0.7029  1.3716  0.6549
 3390TIP3    H231662   1.640   1.133   0.403 -1.4046 -1.0769  0.5269
 3391TIP3   OH231663   3.018   4.182  11.381 -0.8290 -0.1804 -0.2138
 3391TIP3    H131664   3.102   4.137  11.391  0.0206  0.6422 -2.7157
 3391TIP3    H231665   2.961   4.116  11.342 -1.4701 -0.8029  1.6803
 3392TIP3   OH231666   2.543   5.966  11.895 -0.2984  0.0153  0.1183
 3392TIP3    H131667   2.463   5.963  11.946  0.2459 -2.7443  0.9816
 3392TIP3    H231668   2.558   6.060  11.878 -2.5286  0.7298  1.7107
 3393TIP3   OH231669   2.895   1.985  12.474  0.3958  0.1228  0.1615
 3393TIP3    H131670   2.922   2.029  12.554 -0.2427 -0.6175  0.8050
 3393TIP3    H231671   2.908   2.050  12.405  1.8308  0.4744  0.7180
 3394TIP3   OH231672   2.215   5.498  16.621  0.5256 -0.8709 -0.3048
 3394TIP3    H131673   2.230   5.450  16.703 -1.2803 -0.7727  0.1109
 3394TIP3    H231674   2.218   5.590  16.647  2.6061 -0.7225 -0.8623
 3395TIP3   OH231675   5.931   5.348   0.168 -0.3332 -0.2044 -0.3232
 3395TIP3    H131676   5.941   5.442   0.152 -0.1948 -0.3020 -0.8041
 3395TIP3    H231677   5.841   5.339   0.200  0.3549  0.3963  2.0168
 3396TIP3   OH231678   5.806   3.837  13.508 -0.4350  0.0839 -0.3894
 3396TIP3    H131679   5.858   3.917  13.510  0.5638 -0.4878 -1.9954
 3396TIP3    H231680   5.785   3.820  13.600  0.3303  1.5160  0.0882
 3397TIP3   OH231681   2.369   0.957   1.714  0.3433 -0.2276  0.5100
 3397TIP3    H131682   2.347   0.896   1.784  0.8569 -0.4107  0.5115
 3397TIP3    H231683   2.347   0.910   1.633 -0.9578  0.2568  0.5491
 3398TIP3   OH231684   4.533   2.413   1.158 -0.7405  0.1822 -0.4711
 3398TIP3    H131685   4.502   2.340   1.212 -0.8760  0.5046 -0.1034
 3398TIP3    H231686   4.468   2.483   1.172  0.7076  1.2799  1.2214
 3399TIP3   OH231687   3.066   0.758  13.467  0.5801 -0.4868 -0.3886
 3399TIP3    H131688   3.105   0.774  13.553 -0.6481 -0.4481  0.1773
 3399TIP3    H231689   3.122   0.807  13.406  1.0238  0.0997  0.4721
 3400TIP3   OH231690   4.502   2.437  11.427 -0.1009  0.2516 -0.1849
 3400TIP3    H131691   4.490   2.407  11.337  0.8331 -0.7888 -0.0013
 3400TIP3    H231692   4.596   2.454  11.434 -0.1596  0.3194  0.5840
 3401TIP3   OH231693   5.698   0.606  16.462 -0.1465 -0.4433 -0.0785
 3401TIP3    H131694   5.665   0.618  16.373  2.1888 -0.4779 -1.0400
 3401TIP3    H231695   5.761   0.534  16.455  0.4208 -0.1559  1.5089
 3402TIP3   OH231696   4.753   2.478  11.525  0.0401 -0.1184 -0.3006
 3402TIP3    H131697   4.732   2.568  11.550  0.4150  0.7364 -2.7430
 3402TIP3    H231698   4.847   2.470  11.541  0.0606  0.0347 -0.3434
 3403TIP3   OH231699   3.334   2.497   5.428 -0.3819 -0.2930 -0.6596
 3403TIP3    H131700   3.367   2.587   5.428  2.2607 -1.1710 -0.0144
 3403TIP3    H231701   3.281   2.490   5.508 -1.2254  0.8471 -1.0935
 3404TIP3   OH231702   6.457   6.618   4.318  0.0275  0.1573  0.0386
 3404TIP3    H131703   6.491   6.542   4.365 -2.0174 -0.3111  0.8707
 3404TIP3    H231704   6.407   6.581   4.246  2.3191  0.8574 -2.0168
 3405TIP3   OH231705   3.531   1.722   0.334 -0.5431 -0.2353 -0.0124
 3405TIP3    H131706   3.532   1.777   0.256 -0.3580  0.3455  0.3891
 3405TIP3    H231707   3.449   1.674   0.329 -2.2737  2.3703  1.1662
 3406TIP3   OH231708   5.215   5.831   1.850 -0.0724  0.0634 -0.1721
 3406TIP3    H131709   5.226   5.909   1.906  0.3644 -1.2485  1.6665
 3406TIP3    H231710   5.144   5.855   1.790 -1.4737  1.1370  1.7742
 3407TIP3   OH231711   4.510   6.710   4.440  0.0837 -0.7980 -0.5393
 3407TIP3    H131712   4.489   6.769   4.512 -0.8782 -0.8059 -0.8100
 3407TIP3    H231713   4.597   6.739   4.411  0.1564 -0.3129  0.1234
 3408TIP3   OH231714   5.525   0.568  11.485 -0.0642  0.0515 -0.0138
 3408TIP3    H131715   5.436   0.550  11.515  0.2883 -1.6235  0.0891
 3408TIP3    H231716   5.577   0.574  11.565 -0.1602  1.6547 -0.0387
 3409TIP3   OH231717   2.804   2.323   5.197  0.0762 -0.2850 -0.2481
 3409TIP3    H131718   2.883   2.363   5.235 -0.8221  1.3662  0.0006
 3409TIP3    H231719   2.811   2.230   5.218  1.1662  0.0829  1.1885
 3410TIP3   OH231720   3.434   5.534  15.119 -0.7213 -0.2077 -0.1228
 3410TIP3    H131721   3.429   5.591  15.195 -0.2649  1.7548 -1.4820
 3410TIP3    H231722   3.346   5.535  15.082 -0.6309 -0.1191 -0.3348
 3411TIP3   OH231723   1.743   3.016   1.884  0.1917 -0.2703 -0.6641
 3411TIP3    H131724   1.815   3.074   1.907  0.5626 -1.6953  2.3093
 3411TIP3    H231725   1.743   3.014   1.789  1.8009  2.4911 -0.8343
 3412TIP3   OH231726   5.467   4.454   5.651 -0.0396  0.4315  0.1795
 3412TIP3    H131727   5.402   4.503   5.600  1.0361  2.6485  0.8404
 3412TIP3    H231728   5.418   4.381   5.687 -2.3633  2.3059  1.0865
 3413TIP3   OH231729   2.863   3.752  16.364 -0.4699  0.2056 -0.1554
 3413TIP3    H131730   2.772   3.727  16.375 -0.1114 -0.5595  1.3069
 3413TIP3    H231731   2.886   3.723  16.276 -1.0538 -1.5144  0.2272
 3414TIP3   OH231732   0.094   4.806   6.016  0.4272 -0.1293  0.1305
 3414TIP3    H131733   0.120   4.748   6.087 -0.4536 -0.3829  0.2638
 3414TIP3    H231734   0.046   4.877   6.059 -0.0786 -0.2651 -0.1962
 3415TIP3   OH231735   1.516   6.663   4.178  0.1607  0.2700 -0.3504
 3415TIP3    H131736   1.573   6.603   4.129 -0.2981 -0.7095  0.2766
 3415TIP3    H231737   1.494   6.731   4.116  0.8909 -0.0879 -1.0206
 3416TIP3   OH231738   0.988   4.888  16.713  0.0998  0.3528 -0.1908
 3416TIP3    H131739   1.033   4.862  16.794 -2.0103  2.0673  1.6798
 3416TIP3    H231740   0.950   4.807  16.679 -0.1657 -0.2018  1.3494
 3417TIP3   OH231741   3.735   2.880  14.939  0.0777 -0.0748 -0.3245
 3417TIP3    H131742   3.658   2.876  14.882  0.8112 -0.2310 -1.3213
 3417TIP3    H231743   3.749   2.790  14.967 -1.9630  0.3100  2.4870
 3418TIP3   OH231744   3.588   1.534  14.952 -0.2144 -0.0931  0.6473
 3418TIP3    H131745   3.522   1.575  14.896  1.2442 -0.4029 -1.3981
 3418TIP3    H231746   3.585   1.585  15.033 -1.6790  1.0552 -0.0757
 3419TIP3   OH231747   2.509   5.961  14.943 -0.6388 -0.1598 -0.2543
 3419TIP3    H131748   2.445   6.025  14.911 -0.4866  0.0787 -0.0923
 3419TIP3    H231749   2.456   5.888  14.976 -0.9696  1.1342  2.3036
 3420TIP3   OH231750   2.915   1.459  13.180 -0.3215 -0.4527 -0.1719
 3420TIP3    H131751   2.954   1.464  13.268  1.1151  0.2342 -0.8064
 3420TIP3    H231752   2.835   1.512  13.187  0.2888  0.4150  0.4802
 3421TIP3   OH231753   0.751   6.265  15.468 -0.4486  0.2279 -0.4304
 3421TIP3    H131754   0.683   6.198  15.467 -0.9468  0.7253 -1.4057
 3421TIP3    H231755   0.731   6.319  15.544 -0.0084 -0.7476  0.4005
 3422TIP3   OH231756   5.559   5.105   2.963  0.2033  0.1901  0.4705
 3422TIP3    H131757   5.474   5.060   2.965  0.9011 -1.3387 -1.1684
 3422TIP3    H231758   5.615   5.053   3.021 -0.2638  1.9833  2.6487
 3423TIP3   OH231759   0.474   0.552  13.613  0.0699 -0.1606 -0.1821
 3423TIP3    H131760   0.421   0.583  13.686 -1.2963 -1.0946 -0.7312
 3423TIP3    H231761   0.438   0.597  13.537  0.3059 -0.5246 -0.5134
 3424TIP3   OH231762   5.622   0.739   5.688  0.1044  0.1181  0.0552
 3424TIP3    H131763   5.651   0.830   5.695 -1.4344  0.6554 -0.1285
 3424TIP3    H231764   5.559   0.729   5.759  0.6543 -0.9732  0.4030
 3425TIP3   OH231765   4.075   2.464  14.135 -0.4601  0.0093  1.0045
 3425TIP3    H131766   4.103   2.459  14.226  1.1032  0.9058  0.6036
 3425TIP3    H231767   4.027   2.547  14.128 -1.1537 -0.3699  1.1381
 3426TIP3   OH231768   4.465   2.412  16.818  0.2391  0.3424  0.0269
 3426TIP3    H131769   4.453   2.330  16.770  1.1281 -0.5286  1.2609
 3426TIP3    H231770   4.510   2.387  16.899  0.5942  2.0532  0.3972
 3427TIP3   OH231771   0.103   5.346   2.981  0.1017 -0.6114 -0.4188
 3427TIP3    H131772   0.157   5.309   2.912 -0.0937  0.4716 -1.1729
 3427TIP3    H231773   0.014   5.343   2.947  0.2585  2.1664 -1.2972
 3428TIP3   OH231774   6.199   6.731  12.239 -0.5065 -0.1593  0.3693
 3428TIP3    H131775   6.258   6.716  12.312  0.7869  0.3437 -0.5369
 3428TIP3    H231776   6.158   6.815  12.258  2.5982  1.8994 -1.1519
 3429TIP3   OH231777   0.608   6.581  14.220 -0.0346 -0.2278  0.1395
 3429TIP3    H131778   0.520   6.544  14.211  0.2124 -1.2073  1.4544
 3429TIP3    H231779   0.630   6.611  14.132 -2.2522  1.4013  0.0469
 3430TIP3   OH231780   4.458   2.933  13.658  0.0632  0.5323 -0.1194
 3430TIP3    H131781   4.506   2.916  13.738  0.1231  0.7478 -0.1063
 3430TIP3    H231782   4.526   2.951  13.593  0.0183  3.4329  0.4746
 3431TIP3   OH231783   1.667   2.535  16.017  0.0134  0.7573 -0.5822
 3431TIP3    H131784   1.578   2.566  16.035  0.6071  1.3955  1.5281
 3431TIP3    H231785   1.696   2.587  15.943 -1.7859 -0.3719 -2.1791
 3432TIP3   OH231786   1.203   2.237  11.781 -0.3056 -0.2771 -0.5456
 3432TIP3    H131787   1.275   2.209  11.724 -1.7340 -1.1953 -1.9563
 3432TIP3    H231788   1.188   2.162  11.839 -0.6100 -0.3789 -0.7534
 3433TIP3   OH231789   5.201   5.509  14.668  0.0781  0.0622 -0.6543
 3433TIP3    H131790   5.106   5.502  14.672  0.1361 -0.1186  1.7067
 3433TIP3    H231791   5.218   5.594  14.627 -1.1652  1.1936  1.0492
 3434TIP3   OH231792   0.044   2.379   6.482 -0.6405 -0.2050  0.7286
 3434TIP3    H131793   0.067   2.287   6.490  1.4033  0.1258 -0.5335
 3434TIP3    H231794  -0.042   2.380   6.441  0.7296 -1.6148 -2.5220
 3435TIP3   OH231795   4.671   2.196  14.776 -0.4007  0.0654 -0.4576
 3435TIP3    H131796   4.665   2.256  14.851 -0.0715  0.9646 -1.1356
 3435TIP3    H231797   4.587   2.149  14.777  0.4883 -1.6755  1.8707
 3436TIP3   OH231798   5.643   2.418   1.486  0.1342  0.2838 -0.5570
 3436TIP3    H131799   5.670   2.457   1.403 -1.1073  1.1147 -0.6023
 3436TIP3    H231800   5.685   2.332   1.487  0.2091  0.2759 -2.0227
 3437TIP3   OH231801   3.686   4.651  16.259 -0.5678  0.0146  0.6746
 3437TIP3    H131802   3.773   4.661  16.297 -0.6155  2.5443  0.2561
 3437TIP3    H231803   3.629   4.633  16.335  0.0521  0.1761  1.1862
 3438TIP3   OH231804   4.387   2.146  14.880  0.8702  0.1726  0.5628
 3438TIP3    H131805   4.437   2.186  14.951  0.8094  1.2068  0.0444
 3438TIP3    H231806   4.303   2.123  14.920  0.2673  2.0821  0.5404
 3439TIP3   OH231807   1.212   3.331   6.294 -0.7036  0.5011 -0.0374
 3439TIP3    H131808   1.193   3.285   6.376  1.2112 -1.3114 -0.5297
 3439TIP3    H231809   1.273   3.400   6.320 -1.2744  0.8936  0.2736
 3440TIP3   OH231810   4.629   3.861   4.265  0.3556 -0.6457  0.3409
 3440TIP3    H131811   4.602   3.876   4.355  2.4688  0.2480  0.8951
 3440TIP3    H231812   4.659   3.770   4.263 -2.0298 -1.4911 -0.1631
 3441TIP3   OH231813   5.954   4.367  11.640 -0.0300  0.2878  0.4735
 3441TIP3    H131814   6.018   4.302  11.667  0.8755  1.2301  0.6342
 3441TIP3    H231815   5.874   4.317  11.625  1.1597 -1.1741 -1.4295
 3442TIP3   OH231816   3.021   4.000  12.627 -0.0207  0.2242  0.5612
 3442TIP3    H131817   2.942   3.948  12.611  0.9209 -1.0250 -0.1685
 3442TIP3    H231818   3.044   3.981  12.718  0.7917 -1.3640  0.0596
 3443TIP3   OH231819   2.025   0.462   1.442  0.2121  0.0240  0.0658
 3443TIP3    H131820   2.036   0.550   1.407  1.6703  0.0644  0.5505
 3443TIP3    H231821   1.932   0.456   1.464  0.3869  2.0765  1.6683
 3444TIP3   OH231822   1.030   4.933   2.917 -0.0494 -0.3982  0.4756
 3444TIP3    H131823   0.942   4.934   2.953  0.0988  1.1498  0.8452
 3444TIP3    H231824   1.021   4.966   2.828  0.3884  1.9083  1.2126
 3445TIP3   OH231825   0.441   6.211   1.875 -0.7106 -0.1311 -0.0567
 3445TIP3    H131826   0.515   6.164   1.913 -1.4456  0.0223  1.6902
 3445TIP3    H231827   0.434   6.178   1.786  1.8520  0.3471 -0.5142
 3446TIP3   OH231828   0.606   3.734   0.710  1.0039  0.7935 -0.4217
 3446TIP3    H131829   0.677   3.691   0.661  0.3826  0.1973 -0.8105
 3446TIP3    H231830   0.613   3.826   0.686  0.7969  0.5329 -1.5283
 3447TIP3   OH231831   2.222   3.794   5.378 -0.5889 -0.3706 -0.0750
 3447TIP3    H131832   2.170   3.785   5.458  2.0869 -1.0116  1.7257
 3447TIP3    H231833   2.264   3.709   5.367  3.1694  1.1470  0.9788
 3448TIP3   OH231834   0.304   2.238  13.808 -0.8586 -0.8189  0.0086
 3448TIP3    H131835   0.288   2.268  13.719 -1.6168  1.1796  0.7639
 3448TIP3    H231836   0.253   2.157  13.816 -0.2529 -1.3873 -1.5342
 3449TIP3   OH231837   6.597   1.686   5.909  0.5571 -0.1912  0.1294
 3449TIP3    H131838   6.654   1.619   5.946  0.6007 -0.6304 -0.7237
 3449TIP3    H231839   6.522   1.638   5.874  0.5180  0.2082 -0.3577
 3450TIP3   OH231840   3.791   5.504  11.974  0.5967  0.4668 -0.0323
 3450TIP3    H131841   3.701   5.490  12.002  0.6559  0.2608  0.0505
 3450TIP3    H231842   3.813   5.592  12.006  0.0827  0.9460 -0.9257
 3451TIP3   OH231843   3.773   5.806   5.248  0.0626  0.0260 -0.3637
 3451TIP3    H131844   3.739   5.748   5.315 -0.3687  0.1279 -0.4921
 3451TIP3    H231845   3.700   5.865   5.227  0.6425  0.9679  0.1544
 3452TIP3   OH231846   1.997   6.575  16.962 -0.1167  0.2336 -0.0641
 3452TIP3    H131847   2.025   6.658  16.925 -1.5972  1.1008  0.6491
 3452TIP3    H231848   1.939   6.538  16.896 -0.4847  0.4078  0.1549
 3453TIP3   OH231849   2.946   3.963  14.323  0.5725 -0.2867  0.3426
 3453TIP3    H131850   3.004   4.023  14.277  0.9783 -0.0604  1.1298
 3453TIP3    H231851   2.865   4.011  14.335  1.3380  0.6521  2.1712
 3454TIP3   OH231852   4.621   3.355   5.336 -0.0873  0.4406  0.3783
 3454TIP3    H131853   4.621   3.324   5.245  0.7684  1.7748 -0.1013
 3454TIP3    H231854   4.684   3.297   5.380 -0.6153 -0.3070  0.1604
 3455TIP3   OH231855   1.011   1.227   0.660 -0.6022  0.0225 -0.8424
 3455TIP3    H131856   1.052   1.143   0.681 -2.4883 -0.7136  0.1655
 3455TIP3    H231857   1.069   1.267   0.596  0.5249 -1.9086 -1.0982
 3456TIP3   OH231858   3.311   4.440   4.139  0.3534 -0.6663 -0.2238
 3456TIP3    H131859   3.380   4.435   4.205  0.4951 -0.5944 -0.3644
 3456TIP3    H231860   3.241   4.384   4.172 -1.2805  2.4039  1.9485
 3457TIP3   OH231861   4.550   3.898  13.040  0.0599  0.0399 -0.2000
 3457TIP3    H131862   4.644   3.916  13.041 -0.2743  1.9585  1.0613
 3457TIP3    H231863   4.508   3.983  13.056 -1.7861 -1.1890  2.1892
 3458TIP3   OH231864   4.007   4.508   1.854  0.0979 -0.4573  0.1088
 3458TIP3    H131865   4.079   4.450   1.877  1.1522  1.1535  1.0732
 3458TIP3    H231866   3.993   4.562   1.932 -1.5500 -0.0970 -0.3759
 3459TIP3   OH231867   2.472   0.612   5.584 -0.2576 -0.1532 -0.0776
 3459TIP3    H131868   2.384   0.577   5.567 -0.0971 -0.8636  0.5059
 3459TIP3    H231869   2.471   0.634   5.677  0.8202 -2.1283  0.4716
 3460TIP3   OH231870   2.586   6.212  11.627  0.3624 -0.2801  0.2025
 3460TIP3    H131871   2.599   6.306  11.614  0.1570 -0.4603 -1.4940
 3460TIP3    H231872   2.522   6.188  11.560  0.1012 -1.5522  0.8960
 3461TIP3   OH231873   0.148   4.609  13.184 -0.2810  0.8413 -0.5792
 3461TIP3    H131874   0.136   4.589  13.091 -0.1059  1.3667 -0.7162
 3461TIP3    H231875   0.103   4.538  13.230  0.3289  0.1296 -1.0557
 3462TIP3   OH231876   1.217   0.395   5.794 -0.3529 -0.6753 -0.1204
 3462TIP3    H131877   1.301   0.430   5.823 -0.4748  0.4385 -1.0437
 3462TIP3    H231878   1.214   0.306   5.830  0.5011 -0.1701  1.2649
 3463TIP3   OH231879   2.050   2.710   6.024 -0.0497  0.0522  0.2776
 3463TIP3    H131880   2.098   2.665   6.093  1.8032  1.1211 -0.2331
 3463TIP3    H231881   2.054   2.651   5.949  1.6071  0.6046 -0.1245
 3464TIP3   OH231882   3.850   5.071   5.170  0.4033  0.3902 -0.1102
 3464TIP3    H131883   3.770   5.120   5.190  0.8965  0.4390  1.9163
 3464TIP3    H231884   3.906   5.134   5.125 -0.6571  0.3596 -1.5476
 3465TIP3   OH231885   1.848   0.344   6.197 -0.6972  0.5266  0.7505
 3465TIP3    H131886   1.869   0.311   6.110  0.5844  0.9636  0.8716
 3465TIP3    H231887   1.830   0.437   6.183 -2.0613  0.2716  0.7337
 3466TIP3   OH231888   0.659   5.991   2.884 -0.3360  0.1445 -0.4334
 3466TIP3    H131889   0.630   6.078   2.856 -0.9646  0.2741  0.5809
 3466TIP3    H231890   0.594   5.931   2.849 -0.3517  0.1660 -0.4406
 3467TIP3   OH231891   5.931   4.268  10.414  0.0607  0.3664  0.0365
 3467TIP3    H131892   5.837   4.286  10.408 -0.5812 -2.5394 -0.1773
 3467TIP3    H231893   5.957   4.307  10.498 -1.5347  0.4871  0.5180
 3468TIP3   OH231894   4.650   3.373   1.468 -0.1685 -0.1661  0.2244
 3468TIP3    H131895   4.566   3.391   1.510  0.8497  2.6426  1.2945
 3468TIP3    H231896   4.640   3.405   1.378 -0.6644 -1.1991 -0.1023
 3469TIP3   OH231897   4.476   3.250  12.615  0.0183  0.3520  0.2538
 3469TIP3    H131898   4.488   3.215  12.704  0.0126 -2.4279 -0.7316
 3469TIP3    H231899   4.563   3.242  12.575  0.7452  4.1949  0.7280
 3470TIP3   OH231900   3.697   6.160  12.554  0.1240 -0.2122  0.4107
 3470TIP3    H131901   3.604   6.179  12.556 -0.2408 -1.6358 -0.8712
 3470TIP3    H231902   3.707   6.097  12.483  2.2435  0.8319 -0.3068
 3471TIP3   OH231903   2.828   4.872  12.781  0.8738  0.2418 -0.3745
 3471TIP3    H131904   2.823   4.776  12.774 -0.4693  0.1476  1.2061
 3471TIP3    H231905   2.867   4.887  12.868 -1.6198  1.0563  0.6986
 3472TIP3   OH231906   6.095   4.483   1.307 -0.4297  0.1970 -0.0401
 3472TIP3    H131907   6.144   4.561   1.280 -3.8301  2.3844 -0.5646
 3472TIP3    H231908   6.024   4.476   1.243 -2.5559 -0.9209  2.2775
 3473TIP3   OH231909   4.306   1.118  13.275 -0.1028 -0.8937 -0.6878
 3473TIP3    H131910   4.382   1.064  13.295 -0.3968 -0.9236  0.4162
 3473TIP3    H231911   4.231   1.058  13.283 -0.4130 -0.3867  0.3149
 3474TIP3   OH231912   5.153   0.811   2.967 -0.4147  0.3458 -0.3364
 3474TIP3    H131913   5.095   0.736   2.959 -0.0702  0.1120 -0.6314
 3474TIP3    H231914   5.175   0.836   2.877 -1.2351  1.3565 -0.2748
 3475TIP3   OH231915   1.996   1.839   5.157  0.5815 -0.7719 -0.0453
 3475TIP3    H131916   1.936   1.810   5.225  0.0783 -0.2266 -0.2547
 3475TIP3    H231917   1.961   1.923   5.127  2.5383  0.6045  1.2421
 3476TIP3   OH231918   2.431   2.139  10.464 -0.2603 -0.1132  0.1052
 3476TIP3    H131919   2.410   2.126  10.556  0.2862  0.0407  0.2586
 3476TIP3    H231920   2.380   2.216  10.438 -1.4669 -0.9597 -0.0939
 3477TIP3   OH231921   4.920   2.191  15.167 -0.4349 -0.4561  0.4486
 3477TIP3    H131922   4.888   2.103  15.186  0.0736 -0.5031  1.1211
 3477TIP3    H231923   4.970   2.216  15.245 -1.5946  0.9168  0.7900
 3478TIP3   OH231924   0.814   5.630   2.159  0.2131  0.0119 -0.6678
 3478TIP3    H131925   0.725   5.664   2.162 -0.0357 -0.5128  3.5162
 3478TIP3    H231926   0.803   5.535   2.162  0.8508 -0.0237  1.4162
 3479TIP3   OH231927   4.472   0.060   2.530 -0.0765  0.0855 -0.0202
 3479TIP3    H131928   4.464   0.035   2.622  0.9347 -0.9043 -0.1818
 3479TIP3    H231929   4.445   0.152   2.528  0.9829  0.4688  1.4684
 3480TIP3   OH231930   6.178   2.656   5.081 -0.1149 -0.8180 -0.0043
 3480TIP3    H131931   6.258   2.613   5.052  2.6231  3.6969  0.0422
 3480TIP3    H231932   6.132   2.678   5.000 -1.3849 -3.2048 -0.0344
 3481TIP3   OH231933   1.601   4.392   4.212  0.0310  0.3664 -0.4851
 3481TIP3    H131934   1.609   4.403   4.117  0.7651  0.5250 -0.4138
 3481TIP3    H231935   1.689   4.411   4.246  0.0199 -0.6082  0.1389
 3482TIP3   OH231936   3.146   4.474   4.688 -0.2983  0.5248  0.7279
 3482TIP3    H131937   3.072   4.531   4.713 -0.9925  0.3628 -0.8541
 3482TIP3    H231938   3.112   4.385   4.699  0.6765  0.3342  2.8621
 3483TIP3   OH231939   0.088   3.124   1.966  0.1127  0.4636  0.1149
 3483TIP3    H131940   0.024   3.158   1.903  1.1518 -0.2153 -1.3961
 3483TIP3    H231941   0.172   3.157   1.934  0.8103 -0.9846  0.3722
 3484TIP3   OH231942   3.649   1.466   0.133  0.4707  0.2835 -0.0986
 3484TIP3    H131943   3.614   1.536   0.189  1.8455  2.0702 -1.3395
 3484TIP3    H231944   3.590   1.466   0.057 -2.2048 -3.0399  1.7167
 3485TIP3   OH231945   5.703   4.023   1.378 -0.1066 -0.3987 -0.3458
 3485TIP3    H131946   5.671   4.055   1.462 -1.3598  1.8764 -1.6001
 3485TIP3    H231947   5.634   4.046   1.316  1.4736 -0.5915 -2.2644
 3486TIP3   OH231948   4.686   0.721   0.437  0.3482  0.9884  0.4173
 3486TIP3    H131949   4.692   0.682   0.524 -0.8454  3.7265  1.8459
 3486TIP3    H231950   4.629   0.662   0.388  0.0410  0.0188  1.8861
 3487TIP3   OH231951   3.938   0.496   3.825  0.1371  0.2062  0.2295
 3487TIP3    H131952   3.953   0.432   3.756  3.2202  0.6757  0.3586
 3487TIP3    H231953   3.910   0.444   3.901  2.6886 -1.0854  0.3721
 3488TIP3   OH231954   2.653   0.077  16.730 -0.1363  1.0207  0.3460
 3488TIP3    H131955   2.741   0.108  16.752  0.7575 -1.0345 -0.0635
 3488TIP3    H231956   2.654   0.068  16.634  1.0101 -3.5217  0.5369
 3489TIP3   OH231957   6.270   0.390   7.074 -0.1298  0.3134 -0.0722
 3489TIP3    H131958   6.306   0.358   6.991 -1.2106 -0.8500 -0.1166
 3489TIP3    H231959   6.260   0.485   7.060  1.6261  0.4866 -0.5088
 3490TIP3   OH231960   5.876   1.105  11.397  0.4727 -0.3689  0.2827
 3490TIP3    H131961   5.886   1.062  11.312  0.0711 -1.1114  0.6059
 3490TIP3    H231962   5.782   1.106  11.413  0.3216  1.9451 -0.3601
 3491TIP3   OH231963   2.366   3.536   4.931 -0.1380 -0.5888 -0.1860
 3491TIP3    H131964   2.448   3.529   4.883 -0.8037 -0.2149 -1.4068
 3491TIP3    H231965   2.316   3.604   4.885 -0.7427 -0.1054  1.1266
 3492TIP3   OH231966   4.180   5.658  17.054  0.1922  0.8756  0.0734
 3492TIP3    H131967   4.198   5.672  16.961 -1.4330  0.8096 -0.2812
 3492TIP3    H231968   4.242   5.590  17.080  0.0122  0.1697 -1.2189
 3493TIP3   OH231969   5.676   5.430  12.271  0.1681  0.0004 -0.7148
 3493TIP3    H131970   5.764   5.463  12.290 -0.5164  1.7354 -0.3607
 3493TIP3    H231971   5.617   5.499  12.302 -1.5708 -2.7382  2.8536
 3494TIP3   OH231972   5.917   6.192   4.361 -0.4028 -0.3373 -0.2046
 3494TIP3    H131973   5.866   6.113   4.380 -0.9220 -0.4398 -1.7996
 3494TIP3    H231974   5.994   6.159   4.315 -0.4025  0.0462 -0.4766
 3495TIP3   OH231975   6.378   0.842  12.738  0.4234  0.4591  0.6132
 3495TIP3    H131976   6.378   0.747  12.729 -0.5214  0.4596  0.5313
 3495TIP3    H231977   6.461   0.862  12.781  1.4746 -0.2431 -0.9782
 3496TIP3   OH231978   3.793   1.502  11.521 -0.0986 -0.1344 -0.4825
 3496TIP3    H131979   3.775   1.484  11.614 -1.5788 -2.9080 -1.1936
 3496TIP3    H231980   3.724   1.563  11.495 -0.9568 -0.9724 -0.2265
 3497TIP3   OH231981   3.713   4.723  14.239 -0.2471 -0.3143  0.0063
 3497TIP3    H131982   3.638   4.735  14.180 -0.8159 -0.4508  0.6850
 3497TIP3    H231983   3.789   4.742  14.185 -0.7401 -0.7155 -0.8517
 3498TIP3   OH231984   1.186   0.811  12.732 -0.4153  0.5636  0.2873
 3498TIP3    H131985   1.255   0.845  12.675  0.5880  3.5646  2.9557
 3498TIP3    H231986   1.128   0.886  12.747 -1.6251 -0.5966  1.7276
 3499TIP3   OH231987   2.922   0.692  13.243 -0.5485 -0.2061 -0.3986
 3499TIP3    H131988   2.934   0.770  13.188 -2.4301 -0.0869 -0.7034
 3499TIP3    H231989   2.984   0.704  13.315  1.8200 -0.2475 -2.2977
 3500TIP3   OH231990   3.816   0.587  14.714  0.4962 -1.0893  0.4851
 3500TIP3    H131991   3.757   0.581  14.789  0.4510  1.5982  0.7471
 3500TIP3    H231992   3.783   0.520  14.653 -1.2660 -1.3699  1.6558
 3501TIP3   OH231993   5.370   4.312  16.103  0.0401 -0.3131 -0.2048
 3501TIP3    H131994   5.423   4.335  16.027 -0.4464 -0.8471 -0.7153
 3501TIP3    H231995   5.434   4.302  16.174  1.0067 -3.2375 -1.2969
 3502TIP3   OH231996   2.639   1.047   1.134  0.2526  0.2095  0.4232
 3502TIP3    H131997   2.664   1.065   1.044 -0.4924 -0.3086  0.0981
 3502TIP3    H231998   2.661   1.126   1.182 -0.5826  1.0068 -0.4684
 3503TIP3   OH231999   2.124   5.979   6.177  0.8728  0.1886 -0.5654
 3503TIP3    H132000   2.113   5.959   6.270 -0.4411  0.8962 -0.5377
 3503TIP3    H232001   2.143   6.073   6.174  0.2707  0.3020 -1.0343
 3504TIP3   OH232002   2.186   3.733   3.924 -0.6190 -0.2551  0.5668
 3504TIP3    H132003   2.190   3.642   3.955 -0.5634 -0.0905  1.0397
 3504TIP3    H232004   2.185   3.786   4.003  0.1381  0.1941  0.2960
 3505TIP3   OH232005   4.248   5.565  13.589  0.5813  0.1100 -0.4308
 3505TIP3    H132006   4.314   5.510  13.547  0.6119 -1.3199  1.3373
 3505TIP3    H232007   4.286   5.585  13.675 -1.8492 -2.0829  1.2936
 3506TIP3   OH232008   3.969   4.144  16.059 -1.1391 -0.0547 -0.4795
 3506TIP3    H132009   3.919   4.225  16.057 -1.8865 -0.5022 -1.3660
 3506TIP3    H232010   4.027   4.149  15.983  0.2063  0.4564  0.5383
 3507TIP3   OH232011   4.435   2.883   0.133  0.7177  0.1845 -0.1760
 3507TIP3    H132012   4.392   2.963   0.102 -0.6152 -0.7701 -0.9055
 3507TIP3    H232013   4.528   2.899   0.119  0.4340  1.3740 -0.8693
 3508TIP3   OH232014   1.376   2.920  13.548 -0.0157 -0.1038  0.5715
 3508TIP3    H132015   1.302   2.981  13.545  0.7982  0.8667 -0.7049
 3508TIP3    H232016   1.340   2.838  13.516 -0.2198  0.7850 -1.6795
 3509TIP3   OH232017   1.912   1.878   4.822  0.6490  0.3186 -0.3037
 3509TIP3    H132018   1.926   1.783   4.829  0.6954  0.4110  1.2878
 3509TIP3    H232019   1.871   1.890   4.737 -1.1538 -1.3847  0.2362
 3510TIP3   OH232020   2.271   6.205  17.038  0.4859  0.1208  0.2582
 3510TIP3    H132021   2.360   6.193  17.069  0.3146  0.4755  0.9144
 3510TIP3    H232022   2.223   6.130  17.073  0.6445 -0.4020 -0.6101
 3511TIP3   OH232023   5.831   5.587   5.522  0.2676  0.3164 -0.2315
 3511TIP3    H132024   5.806   5.565   5.432  1.0179 -1.3894 -0.0671
 3511TIP3    H232025   5.893   5.518   5.547 -0.5188  0.2971  1.8636
 3512TIP3   OH232026   5.831   2.992   0.258  0.1174  0.5825 -0.2924
 3512TIP3    H132027   5.867   3.053   0.193  0.6638  0.7233  0.1383
 3512TIP3    H232028   5.883   2.912   0.248 -0.8969  0.0111 -1.1688
 3513TIP3   OH232029   2.100   0.247  11.375 -0.0301  0.1517  0.0601
 3513TIP3    H132030   2.119   0.228  11.283  0.5258 -0.4984  0.3093
 3513TIP3    H232031   2.135   0.173  11.423 -1.0723  0.0803  0.7383
 3514TIP3   OH232032   6.051   1.705  13.575 -0.3020 -0.1102  0.0085
 3514TIP3    H132033   6.053   1.801  13.570 -1.8422 -0.0930 -1.1394
 3514TIP3    H232034   6.007   1.686  13.658 -0.8218  0.2099 -0.1864
 3515TIP3   OH232035   3.989   2.081   2.665 -0.1842 -0.2017  0.5306
 3515TIP3    H132036   4.046   2.157   2.652 -0.3982 -0.0957  0.2002
 3515TIP3    H232037   3.988   2.068   2.760 -2.2797  1.8686  0.8857
 3516TIP3   OH232038   1.413   4.710   5.788 -0.6632 -0.7163 -0.1750
 3516TIP3    H132039   1.488   4.680   5.841  0.9651  0.4231 -1.7005
 3516TIP3    H232040   1.338   4.663   5.824  0.4575 -0.6025  2.6018
 3517TIP3   OH232041   0.993   3.496   1.846 -0.3153  0.1085  0.3080
 3517TIP3    H132042   1.024   3.501   1.755 -0.7141  1.3010  0.2221
 3517TIP3    H232043   0.906   3.457   1.839 -1.3516  2.3024 -0.1226
 3518TIP3   OH232044   3.585   4.966   1.564 -0.1523 -0.6504 -0.1688
 3518TIP3    H132045   3.499   4.925   1.576  1.1051 -2.5809  3.8838
 3518TIP3    H232046   3.639   4.897   1.525  0.4246 -0.7486  0.7800
 3519TIP3   OH232047   1.646   1.043  14.075 -0.8077 -0.6026  0.3212
 3519TIP3    H132048   1.706   0.981  14.116  0.4048  1.2088  1.4002
 3519TIP3    H232049   1.609   1.092  14.148 -0.3048  1.1938 -0.5798
 3520TIP3   OH232050   3.243   5.581  15.472  0.0877 -0.8719 -0.3187
 3520TIP3    H132051   3.330   5.576  15.511  0.8027 -0.7715 -1.8114
 3520TIP3    H232052   3.205   5.495  15.487 -0.4672 -0.2653  2.2437
 3521TIP3   OH232053   5.116   1.720   1.148  0.4828 -0.1706  0.1100
 3521TIP3    H132054   5.056   1.729   1.222 -3.0657 -2.5017 -2.1433
 3521TIP3    H232055   5.148   1.809   1.132 -2.6732  1.3673  1.3740
 3522TIP3   OH232056   5.543   2.106  14.639  0.1275  0.6176 -0.3717
 3522TIP3    H132057   5.528   2.185  14.691 -1.9107 -0.0765  0.2124
 3522TIP3    H232058   5.607   2.132  14.573 -0.5900  2.7933 -0.2921
 3523TIP3   OH232059   6.358   0.290  17.083  0.2940  0.2294  0.0321
 3523TIP3    H132060   6.399   0.338  17.155  1.6972 -2.1604  0.9313
 3523TIP3    H232061   6.405   0.319  17.005 -0.1100  1.6105  0.2789
 3524TIP3   OH232062   3.340   3.868   3.564 -0.5141 -0.4710 -0.0412
 3524TIP3    H132063   3.389   3.837   3.640  0.1091 -2.8968 -1.3322
 3524TIP3    H232064   3.405   3.912   3.509 -0.9973  1.4418  0.8297
 3525TIP3   OH232065   3.932   3.101  13.781 -0.1416 -0.4619  0.5992
 3525TIP3    H132066   4.021   3.082  13.812 -0.3605 -0.4838  1.2168
 3525TIP3    H232067   3.894   3.157  13.849 -0.2119  0.5046 -0.2130
 3526TIP3   OH232068   2.630   3.635   6.606  0.1485  0.0834  0.2926
 3526TIP3    H132069   2.561   3.569   6.613 -0.2926  0.6203  1.2909
 3526TIP3    H232070   2.706   3.587   6.574 -0.7253 -0.4805 -1.0243
 3527TIP3   OH232071   6.156   0.776  16.703  0.0822 -0.0386  0.6502
 3527TIP3    H132072   6.170   0.721  16.780 -0.6457 -1.0087  0.1091
 3527TIP3    H232073   6.077   0.742  16.663  0.7376  0.1110 -0.8247
 3528TIP3   OH232074   1.937   3.010  11.782 -0.2640  0.1410 -0.2612
 3528TIP3    H132075   2.033   3.014  11.776 -0.2653  0.3442 -0.1453
 3528TIP3    H232076   1.918   3.027  11.874 -0.4804  1.3009 -0.5133
 3529TIP3   OH232077   2.040   4.768   2.356 -0.8910 -0.0692  0.0288
 3529TIP3    H132078   1.991   4.834   2.405  0.0428  0.6810 -0.0092
 3529TIP3    H232079   2.132   4.790   2.371 -0.5306 -1.8830  0.6922
 3530TIP3   OH232080   3.360   0.056  10.525 -0.0286 -0.2232  0.3807
 3530TIP3    H132081   3.328   0.137  10.486  1.3915 -0.2031 -0.8327
 3530TIP3    H232082   3.283   0.018  10.567 -0.4360  2.4475  2.3387
 3531TIP3   OH232083   0.116   3.959   2.017 -0.0872  0.7724 -0.1199
 3531TIP3    H132084   0.107   4.052   2.035  0.3305  1.0311 -1.1681
 3531TIP3    H232085   0.107   3.951   1.922 -1.0954 -0.3864  0.0359
 3532TIP3   OH232086   1.171   1.062  11.826  0.3179 -0.0695 -0.4695
 3532TIP3    H132087   1.173   1.125  11.899 -0.3452  1.0662 -1.3912
 3532TIP3    H232088   1.108   1.100  11.764  0.7058 -1.1193 -1.5358
 3533TIP3   OH232089   5.773   1.389   2.589  1.1490 -0.2786  0.0322
 3533TIP3    H132090   5.759   1.482   2.608  0.3474 -0.1524 -1.0549
 3533TIP3    H232091   5.860   1.370   2.624  1.3146  0.8750  0.2973
 3534TIP3   OH232092   1.106   4.297   1.549  0.2170  1.1771 -0.7378
 3534TIP3    H132093   1.129   4.231   1.484  0.6954 -2.1117  2.4621
 3534TIP3    H232094   1.190   4.329   1.581 -0.0054  2.0165 -0.9624
 3535TIP3   OH232095   4.758   4.340  12.560  0.1255  0.2178  0.3120
 3535TIP3    H132096   4.782   4.247  12.557  2.1171  0.6979  0.0085
 3535TIP3    H232097   4.754   4.367  12.469 -0.7299  0.3890  0.3897
 3536TIP3   OH232098   2.497   4.764  16.548  0.2235  0.0226  0.2396
 3536TIP3    H132099   2.501   4.789  16.640  0.3569 -1.1160  0.5528
 3536TIP3    H232100   2.447   4.834  16.506 -1.4686 -0.3925  1.5013
 3537TIP3   OH232101   6.737   6.101   1.610 -0.3081 -0.5864  0.1158
 3537TIP3    H132102   6.735   6.179   1.666  0.0814 -0.3315 -0.2204
 3537TIP3    H232103   6.723   6.028   1.670 -1.2709 -0.2231  0.3632
 3538TIP3   OH232104   0.480   4.641  13.372 -0.3307 -0.4792 -0.7674
 3538TIP3    H132105   0.517   4.683  13.450 -0.3505  0.5226 -1.2777
 3538TIP3    H232106   0.556   4.611  13.322 -0.2602  0.0722 -1.0002
 3539TIP3   OH232107   5.089   0.964  11.880  0.2108 -0.9042  0.5971
 3539TIP3    H132108   5.073   0.929  11.792  2.1551  0.0864 -0.2066
 3539TIP3    H232109   5.008   1.011  11.901 -0.8369 -2.3357 -0.0272
 3540TIP3   OH232110   0.325   0.146   3.952  0.2168 -0.0107 -0.0787
 3540TIP3    H132111   0.298   0.061   3.986  0.3332 -1.3329 -3.0402
 3540TIP3    H232112   0.420   0.139   3.943  0.5873  1.4203  1.9889
 3541TIP3   OH232113   6.108   4.367   6.586 -0.6422  0.2630 -0.1524
 3541TIP3    H132114   6.098   4.403   6.498  0.0014 -0.1696 -0.4126
 3541TIP3    H232115   6.187   4.409   6.620 -1.2127  0.8692  0.4500
 3542TIP3   OH232116   3.491   1.408  14.127 -0.3204  0.2914 -0.2804
 3542TIP3    H132117   3.579   1.384  14.099  0.6142  0.1280  2.4917
 3542TIP3    H232118   3.487   1.503  14.112  0.8638  0.5407  0.7890
 3543TIP3   OH232119   3.840   1.932   0.863 -0.0428 -0.6016 -0.7484
 3543TIP3    H132120   3.802   2.020   0.872  1.6959 -0.0275  2.8124
 3543TIP3    H232121   3.914   1.944   0.803 -0.7912 -0.0282 -1.5762
 3544TIP3   OH232122   4.646   4.469   5.345  0.1881 -0.1945 -0.2733
 3544TIP3    H132123   4.673   4.554   5.379 -0.6101  0.1600 -0.5050
 3544TIP3    H232124   4.622   4.486   5.254 -2.8706 -0.0069  0.4652
 3545TIP3   OH232125   5.130   5.473  12.296 -0.2624 -0.0160  0.2515
 3545TIP3    H132126   5.133   5.408  12.226 -1.8268  1.0158 -0.8333
 3545TIP3    H232127   5.177   5.549  12.262 -3.6539  1.6902 -1.1266
 3546TIP3   OH232128   5.304   2.054   4.664 -0.1380 -0.2619  0.0843
 3546TIP3    H132129   5.273   2.114   4.733  0.0527  0.2989 -0.3056
 3546TIP3    H232130   5.394   2.033   4.689 -0.4771 -1.0635  0.6671
 3547TIP3   OH232131   3.520   3.542   1.142  0.6502  0.0657  0.7787
 3547TIP3    H132132   3.520   3.503   1.055  2.5306 -0.0583  0.7917
 3547TIP3    H232133   3.544   3.633   1.128  1.9161 -0.1776  1.2143
 3548TIP3   OH232134   2.923   4.942   2.394  0.3700 -0.4716 -0.4293
 3548TIP3    H132135   2.954   5.005   2.329  1.0217 -0.5357 -0.1877
 3548TIP3    H232136   3.002   4.894   2.420  0.2651  0.0886  0.9921
 3549TIP3   OH232137   5.561   2.310  11.601  0.4392  0.0337  0.3475
 3549TIP3    H132138   5.576   2.258  11.680 -0.4129 -0.2947  0.3071
 3549TIP3    H232139   5.510   2.253  11.544 -0.9357  1.0709  0.4962
 3550TIP3   OH232140   2.618   0.792   4.284 -0.3084 -0.0788 -0.3744
 3550TIP3    H132141   2.696   0.846   4.273  0.4661 -0.7836  1.2406
 3550TIP3    H232142   2.587   0.776   4.195  0.3023  1.7493 -0.9642
 3551TIP3   OH232143   5.565   5.782   4.618  0.3464  0.7659  0.2411
 3551TIP3    H132144   5.635   5.837   4.652  1.2919 -0.4296  0.3091
 3551TIP3    H232145   5.602   5.740   4.540 -0.2019 -0.0872  0.4210
 3552TIP3   OH232146   4.742   2.961  13.547  0.4018  0.2332  0.0300
 3552TIP3    H132147   4.790   2.891  13.590 -0.1676 -0.2629 -0.1143
 3552TIP3    H232148   4.717   2.924  13.462  1.5796  1.2159 -0.7888
 3553TIP3   OH232149   5.772   1.972   2.953  0.4909  0.3661 -0.1001
 3553TIP3    H132150   5.755   2.056   2.996 -0.4497  0.2388 -0.2055
 3553TIP3    H232151   5.809   1.918   3.023  1.6514  1.0236 -0.1688
 3554TIP3   OH232152   4.999   1.900   4.710 -0.5225  0.3486 -0.3593
 3554TIP3    H132153   5.080   1.876   4.665  0.4986  1.8835  0.5597
 3554TIP3    H232154   4.938   1.921   4.640 -0.2063 -0.9556 -1.0748
 3555TIP3   OH232155   3.869   0.305   0.898 -0.3288  0.3432  0.0478
 3555TIP3    H132156   3.946   0.298   0.954  1.0897  0.4295 -1.8087
 3555TIP3    H232157   3.865   0.221   0.852 -0.8157  0.6759 -0.5300
 3556TIP3   OH232158   0.573   1.503  13.652 -0.7255 -0.2247 -0.8910
 3556TIP3    H132159   0.574   1.598  13.655 -1.7135 -0.2322  1.0253
 3556TIP3    H232160   0.623   1.475  13.728 -0.1084 -1.2626 -1.6512
 3557TIP3   OH232161   3.242   1.918  12.454 -0.1507  0.7375  0.2623
 3557TIP3    H132162   3.298   1.853  12.411  0.3868  2.1936 -1.3278
 3557TIP3    H232163   3.168   1.867  12.488 -0.0958 -0.6306 -1.5381
 3558TIP3   OH232164   6.048   0.610  12.228 -0.0105  0.3792 -0.3291
 3558TIP3    H132165   5.955   0.598  12.208  0.2915  1.1844 -2.5639
 3558TIP3    H232166   6.052   0.690  12.280 -0.5579  0.2947 -0.1504
 3559TIP3   OH232167   4.475   4.114   2.344  0.5752 -0.3495  0.2091
 3559TIP3    H132168   4.455   4.208   2.343  0.1665 -0.4284  0.6534
 3559TIP3    H232169   4.559   4.107   2.389  1.3614 -0.0685 -1.1476
 3560TIP3   OH232170   2.349   0.579  15.128 -0.2088  0.3615  0.0882
 3560TIP3    H132171   2.326   0.548  15.041  0.2472  0.2589  0.0015
 3560TIP3    H232172   2.444   0.570  15.133 -0.4207 -2.0315  1.5066
 3561TIP3   OH232173   4.308   3.420  14.047  0.2584  0.3259  0.3158
 3561TIP3    H132174   4.319   3.456  14.135  0.8863  0.0815  0.3427
 3561TIP3    H232175   4.249   3.346  14.059  1.1106 -0.3074  0.6940
 3562TIP3   OH232176   6.408   0.115  15.272  0.1048 -0.4884  0.1200
 3562TIP3    H132177   6.339   0.170  15.309  0.6953  0.5812 -0.3157
 3562TIP3    H232178   6.363   0.037  15.240 -1.0144  0.5369 -0.8579
 3563TIP3   OH232179   2.063   5.803   3.822 -0.3771 -0.5916 -0.0140
 3563TIP3    H132180   1.992   5.780   3.763 -0.0267 -0.8421 -0.3405
 3563TIP3    H232181   2.096   5.719   3.855 -1.2908 -0.4313  1.4097
 3564TIP3   OH232182   1.460   4.882   4.996 -0.0920 -0.0817 -0.1457
 3564TIP3    H132183   1.501   4.830   5.065  1.1830  1.7885  0.6077
 3564TIP3    H232184   1.409   4.948   5.044  1.0990  1.4775 -0.9484
 3565TIP3   OH232185   3.084   6.165   0.639  0.1308  0.3161  0.6977
 3565TIP3    H132186   3.101   6.092   0.579  0.0205  2.2699 -1.8315
 3565TIP3    H232187   3.000   6.143   0.679  0.7732 -1.6114  1.1228
 3566TIP3   OH232188   4.286   0.304  15.355  0.1961 -0.0584  0.5436
 3566TIP3    H132189   4.203   0.303  15.401  0.3203 -0.2259  0.7672
 3566TIP3    H232190   4.347   0.347  15.416  0.1292  0.6504  0.1238
 3567TIP3   OH232191   3.584   4.070  11.567 -0.1092 -0.3948  0.5015
 3567TIP3    H132192   3.638   4.054  11.490 -2.1268 -0.2405 -1.0278
 3567TIP3    H232193   3.588   4.165  11.580  0.5507 -0.4639  0.8691
 3568TIP3   OH232194   0.046   1.689  12.474  0.1977  0.2937 -0.9377
 3568TIP3    H132195   0.002   1.774  12.465  4.0495  2.8506  1.3218
 3568TIP3    H232196   0.107   1.686  12.400  0.4434 -0.2295 -0.7162
 3569TIP3   OH232197   6.167   6.146   0.664  0.5432  0.1132 -0.3630
 3569TIP3    H132198   6.142   6.235   0.691 -0.5846  0.6752 -2.9868
 3569TIP3    H232199   6.227   6.159   0.591 -1.5882 -1.1840 -2.4715
 3570TIP3   OH232200   5.431   3.074   6.180 -0.1848 -0.1528 -0.5556
 3570TIP3    H132201   5.446   3.139   6.248  0.4996 -1.8194  0.9831
 3570TIP3    H232202   5.345   3.094   6.144  0.7366  2.6738 -1.4527
 3571TIP3   OH232203   0.315   3.409   3.829 -0.0594 -0.6609 -0.3889
 3571TIP3    H132204   0.393   3.375   3.786  1.7286  2.8054 -0.2863
 3571TIP3    H232205   0.324   3.381   3.921  1.2718 -0.0535 -0.3179
 3572TIP3   OH232206   3.290   6.633  16.528 -0.9159  0.0861 -0.1899
 3572TIP3    H132207   3.381   6.609  16.511 -0.8326 -1.8210  2.3640
 3572TIP3    H232208   3.288   6.728  16.519  0.8013  0.0102 -2.3014
 3573TIP3   OH232209   5.655   3.749   4.747 -0.0783 -0.0602 -0.4616
 3573TIP3    H132210   5.671   3.813   4.679 -0.4868  1.2070  0.5871
 3573TIP3    H232211   5.704   3.671   4.720 -1.2963 -0.0773 -2.8463
 3574TIP3   OH232212   3.860   1.041   0.356 -0.2778  0.2608 -0.2437
 3574TIP3    H132213   3.954   1.039   0.373 -0.2965  2.5489  0.5649
 3574TIP3    H232214   3.837   1.134   0.359 -2.6257 -0.2494 -0.0704
 3575TIP3   OH232215   3.537   0.671  12.427 -0.3404  0.4300  0.0318
 3575TIP3    H132216   3.582   0.756  12.422 -2.0594  1.3691 -0.5565
 3575TIP3    H232217   3.595   0.610  12.382  0.5292  1.4949 -0.3322
 3576TIP3   OH232218   6.692   1.954  12.210  0.2323  0.4488 -0.7706
 3576TIP3    H132219   6.770   1.964  12.265 -1.9745 -0.4390  2.8631
 3576TIP3    H232220   6.690   1.861  12.187 -0.9198 -0.0942  1.2775
 3577TIP3   OH232221   5.359   1.548  10.860 -0.1349 -0.0648  0.6825
 3577TIP3    H132222   5.396   1.636  10.871  0.1762  0.2327 -2.0247
 3577TIP3    H232223   5.264   1.562  10.860 -0.0942  0.2163  0.6282
 3578TIP3   OH232224   6.738   3.154  11.634 -0.1450 -0.1712  0.1661
 3578TIP3    H132225   6.724   3.228  11.574  0.4898 -0.5540 -0.4777
 3578TIP3    H232226   6.760   3.195  11.717 -1.2843  0.3726  0.2121
 3579TIP3   OH232227   4.136   2.531  11.717  0.0824  0.0297  0.4412
 3579TIP3    H132228   4.200   2.502  11.652 -0.2760 -0.5931  0.3645
 3579TIP3    H232229   4.052   2.529  11.672 -0.4447 -2.1345  1.3866
 3580TIP3   OH232230   2.944   3.796   4.877 -0.1436  0.2591 -0.3025
 3580TIP3    H132231   2.893   3.815   4.956 -0.2958 -0.5974 -0.1786
 3580TIP3    H232232   2.978   3.707   4.892  2.2919  1.1983  0.0894
 3581TIP3   OH232233   4.410   4.332  15.875  0.2834  0.3359  0.4107
 3581TIP3    H132234   4.439   4.415  15.913  0.4768  0.2752  0.3952
 3581TIP3    H232235   4.349   4.296  15.939 -0.4021  0.8559  0.0774
 3582TIP3   OH232236   0.324   0.348  12.340  0.9421  0.5237 -0.7470
 3582TIP3    H132237   0.338   0.284  12.271 -0.2433 -0.2203 -0.3172
 3582TIP3    H232238   0.231   0.368  12.337  0.4889 -0.8301  1.7141
 3583TIP3   OH232239   2.528   4.939   5.378  0.0142  0.3168  0.2293
 3583TIP3    H132240   2.476   5.009   5.338 -2.5208 -2.0179 -0.8736
 3583TIP3    H232241   2.562   4.889   5.303  1.6642  0.2196  0.9943
 3584TIP3   OH232242   0.785   5.055   6.794  0.3324  0.0382 -0.3151
 3584TIP3    H132243   0.708   5.023   6.840  1.1921 -2.8354 -0.6227
 3584TIP3    H232244   0.752   5.087   6.710 -0.6975  0.5709  0.2841
 3585TIP3   OH232245   3.747   4.490   3.851  0.0026  0.1242 -0.8428
 3585TIP3    H132246   3.758   4.479   3.756  0.9157  0.0382 -0.7289
 3585TIP3    H232247   3.658   4.460   3.868  0.2406 -1.0143 -1.4928
 3586TIP3   OH232248   2.472   1.551  11.366  0.5894 -0.5459 -0.0792
 3586TIP3    H132249   2.482   1.455  11.362 -2.3504 -0.9299 -0.2841
 3586TIP3    H232250   2.450   1.576  11.276 -2.0435 -0.2313  0.5693
 3587TIP3   OH232251   0.961   2.053  16.708  0.2879 -0.0335  0.3526
 3587TIP3    H132252   1.016   1.994  16.759 -0.0346  0.2744  1.0612
 3587TIP3    H232253   0.983   2.140  16.740 -1.5871  0.0156  1.6267
 3588TIP3   OH232254   4.350   4.508  14.311  0.0773 -0.9390 -0.5904
 3588TIP3    H132255   4.346   4.487  14.217  0.3643  0.8285 -1.0252
 3588TIP3    H232256   4.333   4.602  14.316  1.5916 -0.6956  0.9914
 3589TIP3   OH232257   1.735   4.433  16.366  0.3224 -0.0662 -0.0091
 3589TIP3    H132258   1.737   4.416  16.460  0.8798  2.6348  0.5491
 3589TIP3    H232259   1.679   4.510  16.357 -1.3364 -1.4016 -2.1618
 3590TIP3   OH232260   4.260   0.281  16.852 -0.6846  0.5451 -0.4174
 3590TIP3    H132261   4.260   0.215  16.783 -0.9689  0.4169 -0.2976
 3590TIP3    H232262   4.169   0.284  16.883 -0.6228  0.8143 -0.2517
 3591TIP3   OH232263   2.713   3.908   0.052  0.1071  0.4385  0.2039
 3591TIP3    H132264   2.689   3.816   0.066 -0.9250 -0.1869 -4.2033
 3591TIP3    H232265   2.809   3.909   0.059  0.1138 -0.9154  0.5466
 3592TIP3   OH232266   6.155   3.590  17.154 -0.6509 -0.5918 -0.2750
 3592TIP3    H132267   6.219   3.564  17.088  1.1452 -1.0837  1.5535
 3592TIP3    H232268   6.099   3.654  17.110  1.4785  0.3368 -1.7756
 3593TIP3   OH232269   1.020   5.270  14.052  0.3412  0.3824  0.9094
 3593TIP3    H132270   0.968   5.296  14.127  1.2141  1.8951  1.0361
 3593TIP3    H232271   1.109   5.261  14.086  0.3450 -1.3209  0.5310
 3594TIP3   OH232272   0.529   4.460   4.547  0.7195 -0.3366 -0.4755
 3594TIP3    H132273   0.525   4.373   4.509  0.2225 -0.7184  0.4211
 3594TIP3    H232274   0.519   4.446   4.641 -0.5624  0.7761 -0.4152
 3595TIP3   OH232275   5.188   5.093  16.975  0.2425  0.1191 -0.2946
 3595TIP3    H132276   5.190   5.143  16.894 -1.1851  2.9704  1.2871
 3595TIP3    H232277   5.174   5.002  16.947 -0.6632  1.0496 -3.1911
 3596TIP3   OH232278   4.582   5.738  12.897  0.3636  0.4509  0.3647
 3596TIP3    H132279   4.595   5.660  12.951 -0.1751  0.3150  0.3022
 3596TIP3    H232280   4.669   5.757  12.861  0.3217 -0.6577 -0.3644
 3597TIP3   OH232281   0.988   0.087  13.741  0.2191  0.4427 -0.1011
 3597TIP3    H132282   1.000  -0.008  13.744  1.2895  0.5912  2.5888
 3597TIP3    H232283   0.914   0.100  13.681 -1.3844 -2.2346  1.1278
 3598TIP3   OH232284   0.447   4.100   3.338 -0.2022  0.1182 -0.0760
 3598TIP3    H132285   0.400   4.173   3.379  0.6922  0.1537  0.9161
 3598TIP3    H232286   0.387   4.069   3.270 -0.8174  1.4335 -0.1660
 3599TIP3   OH232287   5.939   4.706   5.017  0.3333 -0.4756  0.3332
 3599TIP3    H132288   5.883   4.782   5.034 -0.2516 -1.2414  2.0520
 3599TIP3    H232289   6.025   4.732   5.049  0.6444  0.1737 -0.9667
 3600TIP3   OH232290   6.383   3.394  12.361 -0.8101  0.2560  0.5701
 3600TIP3    H132291   6.354   3.326  12.299  4.3114  0.3919 -2.5828
 3600TIP3    H232292   6.405   3.346  12.441 -1.0175 -1.1696 -0.1908
 3601TIP3   OH232293   4.849   5.125  14.288 -0.2028  0.1160 -0.0995
 3601TIP3    H132294   4.852   5.176  14.369  0.5522 -1.4435  0.8968
 3601TIP3    H232295   4.841   5.191  14.219  1.1276  1.6178  1.0849
 3602TIP3   OH232296   2.039   3.823   0.339  0.1680  0.1279  0.2748
 3602TIP3    H132297   2.060   3.761   0.409 -0.7266  1.4900  1.8279
 3602TIP3    H232298   2.120   3.870   0.324  0.0737  0.6735  1.3354
 3603TIP3   OH232299   3.222   1.124  12.727 -0.0540  0.1265 -0.2861
 3603TIP3    H132300   3.177   1.039  12.719 -1.4396  0.9059 -1.3262
 3603TIP3    H232301   3.190   1.160  12.810  1.2259 -0.7100  0.6114
 3604TIP3   OH232302   0.339   3.478   1.712  0.0038  0.9527 -0.6771
 3604TIP3    H132303   0.293   3.548   1.759 -1.0715  0.0937 -0.4109
 3604TIP3    H232304   0.432   3.497   1.726 -0.2489  0.3908  2.3715
 3605TIP3   OH232305   2.384   1.583   5.014  0.0294 -0.0593  0.0594
 3605TIP3    H132306   2.327   1.616   5.084 -0.5909 -1.4144  0.2204
 3605TIP3    H232307   2.457   1.645   5.011  0.3712 -0.2712  2.3154
 3606TIP3   OH232308   0.466   0.408  17.138 -0.2334 -0.3293 -0.6386
 3606TIP3    H132309   0.448   0.334  17.080 -1.7900 -0.9996  0.6254
 3606TIP3    H232310   0.395   0.471  17.120 -0.3567 -0.2584  0.0523
 3607TIP3   OH232311   4.822   2.247  13.207 -0.2041 -0.0609  0.2377
 3607TIP3    H132312   4.868   2.219  13.286 -0.7515 -0.0975  0.5478
 3607TIP3    H232313   4.866   2.199  13.136  2.3700  2.2544  0.0745
 3608TIP3   OH232314   3.854   4.032   5.499  1.0937 -0.1429 -0.3548
 3608TIP3    H132315   3.910   4.094   5.453  0.8123 -0.5655 -1.2913
 3608TIP3    H232316   3.774   4.029   5.447  0.1777  0.4621  0.9715
 3609TIP3   OH232317   4.919   3.571   1.601 -0.2209 -0.2317 -0.2130
 3609TIP3    H132318   4.923   3.654   1.554  1.1023  0.0748  0.3963
 3609TIP3    H232319   5.008   3.535   1.594 -1.1648 -2.4814 -1.9777
 3610TIP3   OH232320   3.610   0.435   0.849  0.2259  0.0571 -0.2423
 3610TIP3    H132321   3.628   0.497   0.779 -1.7389 -0.8708 -1.6549
 3610TIP3    H232322   3.695   0.395   0.868  0.9708  1.0190 -1.4046
 3611TIP3   OH232323   2.302   6.130  16.679 -0.6645  0.0357  0.0139
 3611TIP3    H132324   2.221   6.081  16.661 -0.6194 -0.2194  0.5042
 3611TIP3    H232325   2.275   6.200  16.738 -0.7471  0.6806 -0.7575
 3612TIP3   OH232326   2.261   1.146   0.391  0.1233  0.2715  0.1674
 3612TIP3    H132327   2.298   1.126   0.477  0.5819  2.9805  0.7090
 3612TIP3    H232328   2.326   1.112   0.329 -0.0490 -1.4097  0.8460
 3613TIP3   OH232329   4.169   3.114  14.360  0.1736 -0.0318 -0.0811
 3613TIP3    H132330   4.260   3.122  14.389 -0.2512 -0.2124  1.3857
 3613TIP3    H232331   4.148   3.021  14.370 -0.4350  0.1559  0.4397
 3614TIP3   OH232332   2.315   2.364   2.374  0.1607 -0.0288 -0.6311
 3614TIP3    H132333   2.252   2.294   2.389 -0.3773  0.4033 -0.8360
 3614TIP3    H232334   2.364   2.371   2.456 -0.2268 -0.1944 -0.3839
 3615TIP3   OH232335   0.480   3.619  14.114 -0.0466 -0.0144 -0.1310
 3615TIP3    H132336   0.396   3.626  14.159  0.6715  0.1502  1.2276
 3615TIP3    H232337   0.543   3.598  14.183  0.8833 -1.1478 -1.2676
 3616TIP3   OH232338   4.592   5.359  11.955  0.0628 -0.4519  0.2633
 3616TIP3    H132339   4.583   5.453  11.966 -0.7243 -0.5325  0.3152
 3616TIP3    H232340   4.569   5.322  12.040  1.0506 -0.6592  0.4526
 3617TIP3   OH232341   5.621   6.267   0.483  0.1283  0.2539  0.3364
 3617TIP3    H132342   5.705   6.228   0.506 -0.1978 -1.1034 -0.5697
 3617TIP3    H232343   5.561   6.238   0.552  0.0069 -0.4521 -0.0476
 3618TIP3   OH232344   3.732   0.383  12.674  0.0456  0.3699 -0.0494
 3618TIP3    H132345   3.696   0.324  12.607 -0.3817  2.7627 -2.0571
 3618TIP3    H232346   3.663   0.389  12.739  0.2153 -1.5264  0.3811
 3619TIP3   OH232347   4.212   1.570  15.081 -0.4524  0.5569  0.1206
 3619TIP3    H132348   4.290   1.548  15.030 -0.5886 -0.2191  0.2347
 3619TIP3    H232349   4.202   1.497  15.141 -1.9694  0.0596 -0.7031
 3620TIP3   OH232350   0.040   0.275  15.974 -0.3001  0.6027 -0.4104
 3620TIP3    H132351   0.027   0.332  15.898 -0.0770  2.4781  0.8699
 3620TIP3    H232352  -0.025   0.206  15.964 -1.7432  2.0004 -1.2564
 3621TIP3   OH232353   0.010   3.397   5.825  0.7962  0.2271 -0.2586
 3621TIP3    H132354   0.054   3.475   5.790 -0.9321  0.2720 -2.5826
 3621TIP3    H232355   0.051   3.325   5.778 -0.8605  0.2033 -1.7907
 3622TIP3   OH232356   0.086   2.707  14.127  0.1592 -0.5043 -0.1659
 3622TIP3    H132357   0.112   2.709  14.035  0.8802 -1.8398 -0.0175
 3622TIP3    H232358   0.163   2.676  14.174 -0.6803 -1.3988  0.6903
 3623TIP3   OH232359   3.363   4.717  12.523  0.5721  0.2216 -0.2951
 3623TIP3    H132360   3.316   4.634  12.511 -2.9098  2.0423 -0.6613
 3623TIP3    H232361   3.364   4.758  12.437 -2.0240  2.4651  0.5825
 3624TIP3   OH232362   2.107   4.817  15.404  0.8005 -0.2525  0.4060
 3624TIP3    H132363   2.158   4.744  15.369  1.1424 -0.5363  1.4557
 3624TIP3    H232364   2.017   4.800  15.374  0.2048 -2.8507  3.0986
 3625TIP3   OH232365   1.506   0.450   0.865  0.0986 -0.7002 -0.1712
 3625TIP3    H132366   1.493   0.451   0.960  0.6632 -0.1301 -0.0888
 3625TIP3    H232367   1.600   0.434   0.855  0.5604  1.7776 -0.5415
 3626TIP3   OH232368   5.769   0.547   2.642  0.1360  0.3310 -0.1571
 3626TIP3    H132369   5.695   0.596   2.678  1.4596  1.4955  1.0551
 3626TIP3    H232370   5.817   0.515   2.718  1.6914  0.8251 -0.8933
 3627TIP3   OH232371   0.670   1.372   1.671  0.1717  0.4624 -0.1720
 3627TIP3    H132372   0.725   1.425   1.613  0.2409 -0.6440 -1.1658
 3627TIP3    H232373   0.613   1.323   1.612  0.5309 -1.0259  0.6699
 3628TIP3   OH232374   2.671   0.250   4.876  0.0341  0.2234  0.0598
 3628TIP3    H132375   2.653   0.285   4.789 -1.8731  0.7675  0.6384
 3628TIP3    H232376   2.648   0.321   4.936 -2.1397 -1.3198  1.1658
 3629TIP3   OH232377   4.538   1.576   3.215  0.4931  0.1103 -0.5262
 3629TIP3    H132378   4.500   1.637   3.152  0.6502  1.0393  0.2562
 3629TIP3    H232379   4.465   1.548   3.269  0.5176  0.0471 -0.5255
 3630TIP3   OH232380   2.838   6.526  13.678 -0.1064 -0.1695 -0.0316
 3630TIP3    H132381   2.791   6.449  13.709  0.3776  0.3583  2.2079
 3630TIP3    H232382   2.769   6.585  13.648 -0.5804 -0.9207 -0.4439
 3631TIP3   OH232383   6.700   6.022  12.879  0.4155 -0.1999 -0.2444
 3631TIP3    H132384   6.645   5.954  12.839 -0.1473 -0.2296  0.5505
 3631TIP3    H232385   6.709   6.088  12.812  1.7439 -1.4600 -1.3765
 3632TIP3   OH232386   4.641   4.401   4.797  0.3128 -0.3298  0.1133
 3632TIP3    H132387   4.692   4.482   4.788 -0.2743  0.0033 -0.3300
 3632TIP3    H232388   4.699   4.341   4.843  1.5015 -0.3082 -1.2876
 3633TIP3   OH232389   1.649   5.150  16.037 -0.1768 -0.5118  0.2511
 3633TIP3    H132390   1.727   5.105  16.004 -1.1284 -2.8450  0.9329
 3633TIP3    H232391   1.656   5.143  16.132 -1.2198 -0.7738  0.3180
 3634TIP3   OH232392   2.037   1.212   6.385 -0.0385  0.2977 -0.1929
 3634TIP3    H132393   2.111   1.270   6.371  0.6237 -0.7291 -1.1832
 3634TIP3    H232394   2.076   1.128   6.408 -0.9559  0.1116  0.7902
 3635TIP3   OH232395   0.002   4.302  13.174  0.1853  0.1510 -0.1290
 3635TIP3    H132396  -0.092   4.306  13.157  0.0999  2.0629  0.4648
 3635TIP3    H232397   0.040   4.272  13.092 -0.8046  1.3938 -1.0945
 3636TIP3   OH232398   3.909   6.626   1.134 -0.0084  0.1607 -0.4740
 3636TIP3    H132399   3.994   6.669   1.141  1.0954 -1.6072 -2.1918
 3636TIP3    H232400   3.908   6.563   1.207 -0.0783  0.5257 -0.1555
 3637TIP3   OH232401   5.839   0.672  14.172  0.1709  0.8217 -0.3054
 3637TIP3    H132402   5.890   0.746  14.204 -0.5942  1.0338  0.4750
 3637TIP3    H232403   5.798   0.703  14.092  0.0121  1.1877 -0.0853
 3638TIP3   OH232404   2.394   5.229   4.390 -0.4017  0.1744 -0.6133
 3638TIP3    H132405   2.375   5.219   4.483 -1.5744 -0.5217 -0.9135
 3638TIP3    H232406   2.420   5.321   4.381  0.1575  0.1383  0.4585
 3639TIP3   OH232407   5.253   0.415  14.649  0.6659 -0.1769 -0.0500
 3639TIP3    H132408   5.268   0.509  14.665 -0.0880  0.0723 -0.7530
 3639TIP3    H232409   5.331   0.387  14.599  0.6297  0.2112 -0.3332
 3640TIP3   OH232410   2.920   0.627   4.339 -0.2502  0.0801  0.1123
 3640TIP3    H132411   2.857   0.609   4.409  1.1018 -1.1584  1.0735
 3640TIP3    H232412   3.005   0.624   4.382  0.5001  1.3888 -1.2209
 3641TIP3   OH232413   0.911   0.055   3.521  0.5233  0.6425 -0.4931
 3641TIP3    H132414   0.945   0.096   3.441  0.2611  1.8443 -0.0130
 3641TIP3    H232415   0.896  -0.036   3.497  0.5166  0.9661 -1.7898
 3642TIP3   OH232416   1.620   0.981  11.288 -0.2584  0.2035  0.8269
 3642TIP3    H132417   1.580   1.035  11.355  1.4369 -0.0766  2.1259
 3642TIP3    H232418   1.630   1.039  11.213 -0.5791  1.0133  1.3981
 3643TIP3   OH232419   1.697   2.963   5.469  0.0433  1.0005  0.0714
 3643TIP3    H132420   1.788   2.957   5.497  1.0536  0.9838 -2.9054
 3643TIP3    H232421   1.701   2.979   5.375 -3.0375 -0.3547 -0.4366
 3644TIP3   OH232422   4.780   0.924   2.620  0.5683 -0.0135 -0.4224
 3644TIP3    H132423   4.788   0.993   2.686 -1.0482 -0.4428  0.2907
 3644TIP3    H232424   4.751   0.969   2.541  0.9799  0.3043 -0.3962
 3645TIP3   OH232425   1.078   0.125  17.175  0.0511 -0.3820 -0.1795
 3645TIP3    H132426   1.157   0.175  17.153  1.0544 -2.2116 -0.9226
 3645TIP3    H232427   1.031   0.116  17.092  0.0135 -0.9093 -0.1023
 3646TIP3   OH232428   1.366   5.002  14.602 -0.1965  0.0976 -0.7656
 3646TIP3    H132429   1.457   5.033  14.607 -0.6028  1.3373 -0.7296
 3646TIP3    H232430   1.352   4.982  14.510  0.0995 -0.1037 -0.7715
 3647TIP3   OH232431   0.058   1.049  12.578 -0.2337  0.0499 -0.8007
 3647TIP3    H132432   0.140   1.079  12.538 -0.7148 -0.1266 -1.9557
 3647TIP3    H232433   0.013   1.003  12.507 -0.3052 -1.8899  0.4331
 3648TIP3   OH232434   2.729   3.912   3.903 -0.1876 -0.4669  0.2044
 3648TIP3    H132435   2.790   3.953   3.965  1.0500 -1.4016 -0.3370
 3648TIP3    H232436   2.656   3.973   3.896  1.8669  2.0294 -1.1106
 3649TIP3   OH232437   5.981   1.469   4.756  0.3822  0.1914  0.2840
 3649TIP3    H132438   5.912   1.476   4.689  1.7906  0.1593 -1.2309
 3649TIP3    H232439   5.968   1.382   4.794 -0.3583  0.1505 -0.0366
 3650TIP3   OH232440   4.321   5.911   1.735 -0.6894  0.1516  0.1718
 3650TIP3    H132441   4.385   5.928   1.805 -2.1726  1.4012  1.3104
 3650TIP3    H232442   4.331   5.984   1.675  0.4407 -0.8149 -0.8637
 3651TIP3   OH232443   2.366   5.735  17.297  0.1138 -0.1419 -0.4982
 3651TIP3    H132444   2.448   5.764  17.256  0.5977 -0.5315  0.1616
 3651TIP3    H232445   2.298   5.756  17.233  0.5927  1.1954 -0.6065
 3652TIP3   OH232446   1.619   6.414   0.442  0.3353 -0.0586  0.2887
 3652TIP3    H132447   1.585   6.438   0.528  1.9359 -0.9361  1.2171
 3652TIP3    H232448   1.559   6.345   0.411  0.3704 -0.5121  1.1967
 3653TIP3   OH232449   4.464   1.746  13.524 -0.4351  0.2336 -0.1902
 3653TIP3    H132450   4.427   1.765  13.438  0.9979  1.3434 -0.5999
 3653TIP3    H232451   4.409   1.676  13.560 -0.4843 -0.9396 -2.4107
 3654TIP3   OH232452   5.867   2.294   0.163 -0.0157 -0.0831 -0.4431
 3654TIP3    H132453   5.863   2.380   0.121  1.1346 -0.6492 -1.7801
 3654TIP3    H232454   5.798   2.297   0.229 -0.3221  1.6892 -0.7881
 3655TIP3   OH232455   3.153   2.835  15.688 -0.0513 -0.5808  0.0367
 3655TIP3    H132456   3.180   2.859  15.777 -2.1827 -0.4522  0.6975
 3655TIP3    H232457   3.234   2.841  15.637  0.6723  2.4660  1.3004
 3656TIP3   OH232458   6.274   6.548  14.042  0.3082  0.5088  0.3848
 3656TIP3    H132459   6.281   6.461  14.003  1.1198  1.2113 -1.0933
 3656TIP3    H232460   6.241   6.603  13.972 -4.6731  0.6382  2.4727
 3657TIP3   OH232461   2.569   5.254   5.346  0.3345  0.4872 -0.1927
 3657TIP3    H132462   2.507   5.188   5.313  0.9443 -0.0013 -0.3785
 3657TIP3    H232463   2.636   5.260   5.278  0.8990  0.4529  0.3549
 3658TIP3   OH232464   2.570   1.534  13.572  0.1521  0.6254 -0.1598
 3658TIP3    H132465   2.504   1.565  13.511  1.8826  1.1597 -1.8397
 3658TIP3    H232466   2.583   1.442  13.549 -0.3415  0.3659  0.5333
 3659TIP3   OH232467   3.940   4.101   5.892  0.7666 -0.1579  0.2199
 3659TIP3    H132468   3.988   4.166   5.839  0.1840 -0.2362 -0.4116
 3659TIP3    H232469   3.991   4.095   5.973  2.2288 -0.7332 -0.6863
 3660TIP3   OH232470   4.246   4.238  14.198  0.4615  0.0464 -0.4012
 3660TIP3    H132471   4.239   4.157  14.146 -1.1894  0.7645 -1.3873
 3660TIP3    H232472   4.296   4.298  14.143  0.4068  0.1707 -0.3167
 3661TIP3   OH232473   1.933   0.718  17.070 -0.6018  0.4345  0.2200
 3661TIP3    H132474   1.903   0.802  17.104  0.5016  1.1869 -0.5864
 3661TIP3    H232475   2.014   0.701  17.118 -0.8307 -0.2051  0.3951
 3662TIP3   OH232476   3.375   4.417  12.225 -0.2241 -0.1397  0.0774
 3662TIP3    H132477   3.375   4.354  12.154 -1.1353 -2.0199  1.6491
 3662TIP3    H232478   3.310   4.483  12.200  0.4052 -0.0384 -1.3796
 3663TIP3   OH232479   4.022   3.174  13.169  0.4488  0.1190  0.6565
 3663TIP3    H132480   3.963   3.227  13.116 -0.7205  0.8924  2.6464
 3663TIP3    H232481   4.108   3.186  13.127 -0.1877  1.7339 -0.2886
 3664TIP3   OH232482   0.711   5.236   5.859 -0.1094  0.3732  0.4538
 3664TIP3    H132483   0.739   5.164   5.803 -2.1547 -0.4114  0.3457
 3664TIP3    H232484   0.745   5.315   5.816 -0.4068 -0.3239 -1.1123
 3665TIP3   OH232485   0.618   2.954  12.863  0.5004  0.1880  0.5184
 3665TIP3    H132486   0.601   2.917  12.950 -0.1681  0.3391  0.4569
 3665TIP3    H232487   0.532   2.962  12.824  0.8202 -0.0843 -0.2511
 3666TIP3   OH232488   4.049   5.100  15.293 -0.4588  0.1856  0.4945
 3666TIP3    H132489   3.978   5.047  15.255  0.5639 -1.1310  0.3356
 3666TIP3    H232490   4.074   5.159  15.223 -0.0247 -0.7659 -0.1720
 3667TIP3   OH232491   0.004   6.348   6.320 -0.4742  0.2669 -0.2385
 3667TIP3    H132492  -0.066   6.386   6.267 -0.9895 -1.3935 -0.8337
 3667TIP3    H232493   0.080   6.346   6.262  0.5103  3.1950  0.7882
 3668TIP3   OH232494   3.138   3.615  16.743 -0.0024  0.4012 -0.6830
 3668TIP3    H132495   3.222   3.596  16.786 -0.3134  1.0245  0.2397
 3668TIP3    H232496   3.146   3.706  16.714 -0.8056  0.8960  0.5630
 3669TIP3   OH232497   2.484   2.875  11.078 -0.0469  0.5597 -0.5638
 3669TIP3    H132498   2.433   2.803  11.116  1.4030  0.2071  0.8331
 3669TIP3    H232499   2.546   2.832  11.019  0.7296  0.6348  0.1688
 3670TIP3   OH232500   3.879   0.010  12.360  0.2222 -0.1853  0.3655
 3670TIP3    H132501   3.970  -0.007  12.386 -0.0547  1.1785  2.4380
 3670TIP3    H232502   3.886   0.065  12.282  1.1267 -1.0511 -0.2013
 3671TIP3   OH232503   1.035   0.994  16.541 -0.5671 -0.0241 -0.1376
 3671TIP3    H132504   1.061   0.960  16.626 -1.0084 -1.0020 -0.3836
 3671TIP3    H232505   1.117   1.028  16.503 -0.4032  0.6069  0.7407
 3672TIP3   OH232506   0.611   3.904  11.728 -0.3313 -0.5238 -0.3129
 3672TIP3    H132507   0.652   3.890  11.643 -0.1470 -0.0180 -0.3099
 3672TIP3    H232508   0.517   3.913  11.709 -0.2416  0.0147 -0.5134
 3673TIP3   OH232509   3.260   5.266   5.640 -0.3656 -0.1553  0.2783
 3673TIP3    H132510   3.330   5.204   5.658 -1.7400 -2.1860 -0.8983
 3673TIP3    H232511   3.239   5.253   5.547 -1.7713  0.9234  0.4015
 3674TIP3   OH232512   1.492   0.674   3.604 -0.7032 -0.0164 -0.4512
 3674TIP3    H132513   1.430   0.652   3.533 -1.5480  1.5700 -0.2536
 3674TIP3    H232514   1.471   0.613   3.674 -0.0875 -1.3854 -1.4167
 3675TIP3   OH232515   6.747   6.731  11.204 -0.5255  0.0615 -0.0234
 3675TIP3    H132516   6.678   6.728  11.271  0.3200  1.2425  0.9506
 3675TIP3    H232517   6.725   6.660  11.144 -2.9108  0.7422 -0.0652
 3676TIP3   OH232518   2.265   2.384  12.718 -0.8603 -0.2374  0.1254
 3676TIP3    H132519   2.328   2.455  12.707  2.8601 -3.2631 -0.0564
 3676TIP3    H232520   2.239   2.360  12.629  0.1599 -0.8892 -0.0139
 3677TIP3   OH232521   5.853   5.076   4.852  0.2135 -0.0140  0.2268
 3677TIP3    H132522   5.844   5.026   4.932  1.1848 -0.4530  0.0709
 3677TIP3    H232523   5.861   5.010   4.783 -1.3015  0.3429 -0.3433
 3678TIP3   OH232524   6.094   6.077   2.628  0.2048  0.1585  0.5886
 3678TIP3    H132525   6.092   6.162   2.584  0.4315  0.7568  1.7016
 3678TIP3    H232526   6.097   6.013   2.556  0.9806  1.1053 -0.2513
 3679TIP3   OH232527   0.926   4.157   1.690 -0.7160  0.1589 -0.2802
 3679TIP3    H132528   0.964   4.223   1.632 -0.1946  0.6124  0.5494
 3679TIP3    H232529   0.964   4.074   1.661 -0.3120  0.4079 -0.4686
 3680TIP3   OH232530   6.608   4.951  13.864  0.0492 -0.0644 -0.3279
 3680TIP3    H132531   6.574   4.866  13.834  0.2825 -0.0709 -0.5727
 3680TIP3    H232532   6.582   5.013  13.796  2.6450 -0.4667 -1.8404
 3681TIP3   OH232533   4.044   3.525   0.637  0.0240  0.0722 -0.0697
 3681TIP3    H132534   3.979   3.491   0.698  0.3530  1.1288  0.9099
 3681TIP3    H232535   4.085   3.448   0.599 -0.2032 -0.6133  1.0377
 3682TIP3   OH232536   4.513   5.800   1.544 -0.0169  0.2857 -0.1087
 3682TIP3    H132537   4.453   5.765   1.609  0.1394 -1.7468 -0.9743
 3682TIP3    H232538   4.487   5.892   1.534 -0.8369  0.3259  1.8673
 3683TIP3   OH232539   0.440   6.141   6.542 -0.5441  0.0456 -0.0890
 3683TIP3    H132540   0.498   6.097   6.479  1.1381 -0.2002  1.5559
 3683TIP3    H232541   0.352   6.129   6.505  0.2505 -1.1641 -1.7480
 3684TIP3   OH232542   3.158   2.467  13.429 -0.4156 -0.5682 -0.1040
 3684TIP3    H132543   3.071   2.482  13.392  0.4610  0.0824 -2.0492
 3684TIP3    H232544   3.219   2.494  13.359  1.3572 -0.4136  1.4145
 3685TIP3   OH232545   0.297   5.850  15.391 -0.4014  0.5863  0.6284
 3685TIP3    H132546   0.378   5.816  15.354 -0.4288  0.7743  0.3953
 3685TIP3    H232547   0.241   5.773  15.400 -0.4626  0.5704  0.1003
 3686TIP3   OH232548   0.440   5.055   0.114  0.0385 -0.2745 -0.5807
 3686TIP3    H132549   0.354   5.023   0.084 -0.0502  1.9811 -3.0057
 3686TIP3    H232550   0.501   4.987   0.087 -0.7990 -1.2928 -0.0066
 3687TIP3   OH232551   4.006   4.604  14.172  0.1139 -0.1644  0.4528
 3687TIP3    H132552   3.959   4.656  14.107 -0.3610 -0.3246  0.6680
 3687TIP3    H232553   4.035   4.668  14.237  1.9533  0.2466 -0.6797
 3688TIP3   OH232554   0.345   6.025   0.371 -0.3746 -0.1687  0.1314
 3688TIP3    H132555   0.279   5.983   0.317  0.0131 -1.8747  0.9449
 3688TIP3    H232556   0.296   6.084   0.428 -1.0495 -0.4123 -0.1905
 3689TIP3   OH232557   3.068   5.611  17.285  0.1209  0.3062 -0.2570
 3689TIP3    H132558   3.146   5.570  17.247 -0.1569 -0.5679  0.1087
 3689TIP3    H232559   3.001   5.602  17.217 -0.4260 -1.4158  0.4699
 3690TIP3   OH232560   0.404   4.193   1.778 -0.2991 -0.4465 -1.1383
 3690TIP3    H132561   0.385   4.287   1.774 -2.2877 -0.7813 -0.5367
 3690TIP3    H232562   0.375   4.158   1.694 -3.0132 -1.0288 -0.0559
 3691TIP3   OH232563   6.500   2.948   3.046 -0.1849  0.0267 -0.2159
 3691TIP3    H132564   6.500   2.982   3.136  1.2976 -0.4990  0.0018
 3691TIP3    H232565   6.444   3.009   2.998 -0.7822  0.4755  1.0005
 3692TIP3   OH232566   5.955   0.378  11.533  0.6387 -0.0791  0.4439
 3692TIP3    H132567   5.965   0.286  11.554  0.3954 -0.2641 -0.2121
 3692TIP3    H232568   5.985   0.386  11.443  0.7278  0.4956  0.5163
 3693TIP3   OH232569   5.447   4.202   3.284 -0.1204  0.6723 -0.0534
 3693TIP3    H132570   5.402   4.283   3.311  1.3218  1.3150  0.5428
 3693TIP3    H232571   5.446   4.147   3.362 -0.7790  0.2443 -0.3531
 3694TIP3   OH232572   5.333   5.296  15.491  0.5582 -0.2988 -0.2472
 3694TIP3    H132573   5.321   5.210  15.450 -0.8442 -0.7113  0.9831
 3694TIP3    H232574   5.264   5.350  15.453  1.9344  0.5949 -1.6511
 3695TIP3   OH232575   5.359   4.285   2.624 -0.0501 -0.1025 -0.0255
 3695TIP3    H132576   5.292   4.300   2.558 -1.8487 -3.5335  0.7756
 3695TIP3    H232577   5.380   4.192   2.616  1.2522 -0.1495  2.7823
 3696TIP3   OH232578   4.015   5.522   0.013 -0.5635  0.1045 -0.0622
 3696TIP3    H132579   4.097   5.516  -0.037  1.1677  1.6110  2.3969
 3696TIP3    H232580   4.003   5.435   0.050  0.5487  0.1326  0.4130
 3697TIP3   OH232581   0.608   0.328  16.787  0.8422 -0.1344 -0.1196
 3697TIP3    H132582   0.559   0.319  16.705  0.0385 -1.2049  0.4531
 3697TIP3    H232583   0.614   0.423  16.801  0.0639  0.0391 -0.8666
 3698TIP3   OH232584   2.943   5.463  16.405  0.2918  0.1440  0.3754
 3698TIP3    H132585   2.922   5.544  16.452  1.2475  0.0220  1.0303
 3698TIP3    H232586   2.987   5.408  16.469  1.1977 -0.2156 -0.5274
 3699TIP3   OH232587   6.139   0.408   4.073 -0.5439 -1.0437  0.1710
 3699TIP3    H132588   6.215   0.435   4.022 -0.7421 -2.1899 -0.7800
 3699TIP3    H232589   6.162   0.321   4.106 -1.3207 -1.2819  0.1050
 3700TIP3   OH232590   1.464   2.028   3.256  0.0231 -0.6781  0.6343
 3700TIP3    H132591   1.523   2.099   3.229 -0.4155 -0.3376  0.5407
 3700TIP3    H232592   1.504   1.949   3.220  0.3362 -0.4339  0.4288
 3701TIP3   OH232593   1.088   0.586  16.662  0.1537  1.0313 -0.5812
 3701TIP3    H132594   1.109   0.628  16.745  1.6053  0.6282 -0.7165
 3701TIP3    H232595   0.993   0.597  16.653  0.2278  2.6918  0.2382
 3702TIP3   OH232596   5.240   4.002  16.454 -0.0415 -0.2327 -0.5456
 3702TIP3    H132597   5.316   4.061  16.451 -0.2425  0.0366 -0.4080
 3702TIP3    H232598   5.226   3.976  16.363  0.0193 -0.0285 -0.6140
 3703TIP3   OH232599   2.569   6.129   5.929  0.3465 -0.2787  0.1336
 3703TIP3    H132600   2.583   6.159   6.019  1.4016  0.5070 -0.2822
 3703TIP3    H232601   2.474   6.121   5.921  0.2205  0.0067  1.2020
 3704TIP3   OH232602   3.587   0.732   0.049 -0.3436  0.0621 -0.0286
 3704TIP3    H132603   3.589   0.762  -0.042  0.3989 -0.2250 -0.1160
 3704TIP3    H232604   3.508   0.678   0.054 -0.0425 -0.4562 -0.6828
 3705TIP3   OH232605   4.132   3.604  14.907 -0.1545  0.1869 -0.5147
 3705TIP3    H132606   4.199   3.551  14.864 -0.0202 -0.3523  0.3379
 3705TIP3    H232607   4.055   3.596  14.851  0.0441 -0.4316 -0.7054
 3706TIP3   OH232608   0.296   0.844   2.210  0.6678  0.7377 -0.1162
 3706TIP3    H132609   0.265   0.759   2.180  0.3985  1.0670 -0.7945
 3706TIP3    H232610   0.391   0.833   2.220  0.6749  0.4483 -0.4953
 3707TIP3   OH232611   5.067   2.461  12.553 -0.7767  0.0250 -0.5046
 3707TIP3    H132612   5.084   2.376  12.595 -1.1142 -0.0535 -0.5236
 3707TIP3    H232613   5.065   2.523  12.626  0.8097  0.2381 -0.6088
 3708TIP3   OH232614   5.077   2.131   0.798 -0.1424  0.2909  0.0862
 3708TIP3    H132615   5.029   2.164   0.722 -1.3014 -0.5183  0.4427
 3708TIP3    H232616   5.110   2.046   0.770 -0.4994  0.0294  0.4539
 3709TIP3   OH232617   4.824   4.712   5.190 -0.0771 -0.1758 -0.2466
 3709TIP3    H132618   4.904   4.683   5.234  0.0269  0.3230 -0.1071
 3709TIP3    H232619   4.813   4.651   5.117  1.7452  1.1981 -1.7415
 3710TIP3   OH232620   1.469   3.821  14.108  0.4459 -0.2855  0.0525
 3710TIP3    H132621   1.563   3.836  14.117  0.3558  0.8644 -0.6791
 3710TIP3    H232622   1.461   3.751  14.044  0.8725 -3.4411  3.1603
 3711TIP3   OH232623   6.702   1.188   3.908  0.3114  0.1098 -0.5611
 3711TIP3    H132624   6.790   1.173   3.942  0.1870 -0.8765 -0.6386
 3711TIP3    H232625   6.714   1.254   3.839  0.6813  1.4864  0.7689
 3712TIP3   OH232626   6.704   5.979  15.544  0.3565  0.2261 -0.1793
 3712TIP3    H132627   6.763   6.024  15.604  1.0917 -2.5124  1.3261
 3712TIP3    H232628   6.760   5.952  15.471  0.2462  0.4849 -0.3587
 3713TIP3   OH232629   2.077   2.838  14.912  0.5142 -0.3725 -0.0448
 3713TIP3    H132630   2.092   2.779  14.838  0.1216  0.5531 -0.8821
 3713TIP3    H232631   2.145   2.906  14.903  1.4952 -1.1125  1.3833
 3714TIP3   OH232632   3.853   2.361   0.453 -0.0629  0.1953 -0.0657
 3714TIP3    H132633   3.776   2.418   0.464  0.0010  0.3508 -0.4298
 3714TIP3    H232634   3.817   2.273   0.457 -0.1608  0.2511  0.5332
 3715TIP3   OH232635   1.066   2.823  14.382  0.2608 -0.3053 -0.3948
 3715TIP3    H132636   1.000   2.826  14.451 -2.8726 -1.8434 -3.0004
 3715TIP3    H232637   1.062   2.910  14.342 -1.5348 -0.8225 -1.4992
 3716TIP3   OH232638   5.567   0.059  16.690 -0.3752 -0.2736  0.4273
 3716TIP3    H132639   5.520  -0.022  16.670  0.0192 -0.4488  0.1974
 3716TIP3    H232640   5.585   0.098  16.605  3.5105 -2.2546  0.0997
 3717TIP3   OH232641   2.243   1.383   0.251  0.7884  0.0633  0.1225
 3717TIP3    H132642   2.225   1.296   0.285  1.1564 -0.2105 -0.3695
 3717TIP3    H232643   2.288   1.429   0.321  0.4648 -0.0952  0.4343
 3718TIP3   OH232644   3.112   4.326  16.220  0.0252  0.0050 -0.2173
 3718TIP3    H132645   3.023   4.297  16.198  0.1248 -1.3380  0.9488
 3718TIP3    H232646   3.166   4.249  16.202  0.5765  0.0050  1.3171
 3719TIP3   OH232647   0.765   5.017   4.309  0.7103  0.2846  0.3025
 3719TIP3    H132648   0.680   4.982   4.336  1.1082  0.0098  1.2573
 3719TIP3    H232649   0.749   5.058   4.225  0.2215 -2.3000 -0.9626
 3720TIP3   OH232650   0.446   3.205  13.544  0.4696  0.4058 -0.0017
 3720TIP3    H132651   0.506   3.131  13.542  0.1240  0.1054  0.6948
 3720TIP3    H232652   0.498   3.278  13.509  0.7949 -0.1630 -0.7370
 3721TIP3   OH232653   4.542   4.732  14.003  0.3252 -0.5373 -0.0816
 3721TIP3    H132654   4.521   4.660  13.944 -0.4364  0.0746 -0.5751
 3721TIP3    H232655   4.597   4.693  14.071  1.4545 -1.2153 -1.3319
 3722TIP3   OH232656   1.212   4.134  12.522 -0.2255  0.1559 -0.1370
 3722TIP3    H132657   1.181   4.195  12.588 -0.7209  0.5979 -0.7654
 3722TIP3    H232658   1.146   4.138  12.453  0.0863 -0.5795 -0.4917
 3723TIP3   OH232659   6.628   6.629   1.992 -0.0805  0.3006 -0.2043
 3723TIP3    H132660   6.717   6.595   2.006 -0.6620 -1.0299  0.4047
 3723TIP3    H232661   6.637   6.684   1.914  0.9686 -1.1634 -1.1993
 3724TIP3   OH232662   4.652   0.088  15.011  0.4449 -0.4737 -0.5688
 3724TIP3    H132663   4.576   0.103  14.955 -0.4496  0.0863  0.7286
 3724TIP3    H232664   4.617   0.095  15.100  2.3583  1.8295  0.1173
 3725TIP3   OH232665   3.295   3.933   0.390 -0.5532  0.0106 -0.8320
 3725TIP3    H132666   3.322   3.960   0.302  0.1377 -0.2764 -0.7196
 3725TIP3    H232667   3.221   3.989   0.411  1.6348  2.8250 -0.0609
 3726TIP3   OH232668   5.106   0.460   5.005  0.1552  0.0289  0.2015
 3726TIP3    H132669   5.183   0.496   4.961  1.1140 -1.0897  0.9080
 3726TIP3    H232670   5.069   0.399   4.941 -0.3301  0.7732 -0.2453
 3727TIP3   OH232671   2.661   4.895  16.846  0.2784  0.3087  0.5248
 3727TIP3    H132672   2.651   4.976  16.797  2.1754  1.0110  1.1801
 3727TIP3    H232673   2.668   4.923  16.937  0.0845 -0.6779  0.8618
 3728TIP3   OH232674   5.979   3.687  14.062 -0.0347 -0.1742  0.1361
 3728TIP3    H132675   5.906   3.638  14.023 -0.0446 -0.0817  0.0411
 3728TIP3    H232676   6.051   3.677  14.000  0.2705 -0.9166  0.5937
 3729TIP3   OH232677   3.635   3.412   3.618 -0.0692 -0.0507 -0.5921
 3729TIP3    H132678   3.602   3.379   3.534 -0.4992  1.2843 -0.9714
 3729TIP3    H232679   3.556   3.443   3.663  0.2212 -0.3231  0.1165
 3730TIP3   OH232680   3.769   3.360   5.923 -0.4817 -0.3138 -0.4186
 3730TIP3    H132681   3.837   3.313   5.971 -0.3367  1.1454  0.8772
 3730TIP3    H232682   3.695   3.363   5.983 -0.7234  0.5066 -0.7460
 3731TIP3   OH232683   1.169   0.125   5.120  0.0623  1.0151  0.3476
 3731TIP3    H132684   1.076   0.107   5.106  0.1620  1.7738 -1.6266
 3731TIP3    H232685   1.197   0.169   5.040  2.0034  1.3125  1.1368
 3732TIP3   OH232686   2.491   2.039  17.191  0.4540  0.3124 -0.1167
 3732TIP3    H132687   2.463   2.010  17.278  0.8538 -0.6584 -0.2927
 3732TIP3    H232688   2.409   2.052  17.143  0.2434 -0.0142  0.1449
 3733TIP3   OH232689   3.050   5.074  11.078 -0.0186  0.0344 -0.1475
 3733TIP3    H132690   3.051   5.130  11.156  0.5233 -0.4389  0.1895
 3733TIP3    H232691   2.986   5.115  11.020  0.6563  1.2352 -0.0766
 3734TIP3   OH232692   1.125   6.016   3.951 -0.1594 -0.1197  0.1538
 3734TIP3    H132693   1.157   6.047   4.036 -0.0294  0.9100 -0.2562
 3734TIP3    H232694   1.053   5.956   3.973  0.7960 -0.9750  1.0181
 3735TIP3   OH232695   0.326   3.809  12.365 -0.2034 -0.5784 -0.2808
 3735TIP3    H132696   0.297   3.816  12.456 -0.3092 -1.4563 -0.2375
 3735TIP3    H232697   0.421   3.813  12.370 -0.1934 -1.0324 -0.0902
 3736TIP3   OH232698   0.367   3.275  12.197  0.3868 -0.0267 -0.3126
 3736TIP3    H132699   0.315   3.356  12.198  0.5256  0.0769 -1.1479
 3736TIP3    H232700   0.456   3.304  12.177  0.5554 -0.3223  0.0074
 3737TIP3   OH232701   0.680   0.520  11.274  0.0707 -0.2331 -1.1331
 3737TIP3    H132702   0.615   0.565  11.220  0.6911  2.1078 -0.0556
 3737TIP3    H232703   0.677   0.566  11.358  1.9201 -1.1735 -0.5036
 3738TIP3   OH232704   1.197   4.283  15.570  0.2253 -0.1290 -0.1042
 3738TIP3    H132705   1.184   4.243  15.656 -2.5638 -2.0377 -1.2327
 3738TIP3    H232706   1.174   4.375  15.582 -0.5643 -0.4674  1.1198
 3739TIP3   OH232707   6.210   4.062  13.413 -0.6630  0.2900  0.3868
 3739TIP3    H132708   6.219   4.014  13.495  2.2978 -0.2059 -0.1155
 3739TIP3    H232709   6.288   4.118  13.410 -0.0944 -0.4907 -2.5234
 3740TIP3   OH232710   2.763   4.022  16.955  0.1201 -0.5450 -0.5268
 3740TIP3    H132711   2.729   4.103  16.918  1.4264 -0.2663 -1.1782
 3740TIP3    H232712   2.801   3.976  16.880 -0.4746 -1.7063 -0.1408
 3741TIP3   OH232713   0.024   4.108  14.409  0.0778 -0.1179 -0.0424
 3741TIP3    H132714   0.026   4.180  14.472 -3.2990  0.6386 -0.6128
 3741TIP3    H232715   0.024   4.029  14.462 -0.1070  0.4147  0.7742
 3742TIP3   OH232716   0.664   4.988  15.598 -0.9183 -0.6078 -0.1336
 3742TIP3    H132717   0.599   4.973  15.667 -1.4456  0.0445 -0.4789
 3742TIP3    H232718   0.709   5.068  15.624 -0.0458 -1.2090  0.2476
 3743TIP3   OH232719   0.612   1.983  14.509  0.2213  0.8942 -0.0705
 3743TIP3    H132720   0.539   1.956  14.453  0.4515  0.3761 -0.1267
 3743TIP3    H232721   0.681   2.008  14.448  0.8496 -0.6757 -0.0535
 3744TIP3   OH232722   4.314   4.268  15.246  0.2935  0.2527 -0.5510
 3744TIP3    H132723   4.402   4.274  15.283 -0.6926  2.0259  1.8132
 3744TIP3    H232724   4.312   4.335  15.177  0.6596  0.5860 -0.2452
 3745TIP3   OH232725   6.606   3.550   3.220 -0.2425  0.3771  0.0710
 3745TIP3    H132726   6.677   3.535   3.158 -0.0246  0.4136  0.3140
 3745TIP3    H232727   6.645   3.601   3.290 -0.4430  0.1823  0.3276
 3746TIP3   OH232728   4.860   5.470  16.253  0.2064  0.2455 -0.3783
 3746TIP3    H132729   4.891   5.418  16.328  0.9003 -1.7609 -1.9560
 3746TIP3    H232730   4.940   5.507  16.215 -0.1146  0.9975 -0.3362
 3747TIP3   OH232731   5.077   2.361  14.950 -0.3219 -0.2669 -0.5314
 3747TIP3    H132732   5.068   2.316  15.034 -1.4653  1.0886  0.1304
 3747TIP3    H232733   5.039   2.302  14.886 -0.2387 -0.9463  0.0398
 3748TIP3   OH232734   1.599   1.833  16.297 -0.0459 -0.5506  0.2843
 3748TIP3    H132735   1.660   1.878  16.355  0.6489 -0.7190 -0.3022
 3748TIP3    H232736   1.571   1.756  16.346  0.3690 -0.5810  0.4718
 3749TIP3   OH232737   2.963   2.566  15.705 -0.5621  0.0452 -0.3710
 3749TIP3    H132738   3.047   2.606  15.685  0.2446 -1.4357 -0.1488
 3749TIP3    H232739   2.898   2.627  15.671  0.5983  1.1064 -0.7722
 3750TIP3   OH232740   4.597   6.203   2.533  0.2231  0.0525 -0.1131
 3750TIP3    H132741   4.631   6.223   2.447 -1.2580  1.7495 -0.3669
 3750TIP3    H232742   4.651   6.254   2.594  0.3388  0.0154 -0.1870
 3751TIP3   OH232743   4.766   6.355  11.715  0.2330  0.3842  0.5150
 3751TIP3    H132744   4.702   6.425  11.724  0.5524  0.6514  0.7108
 3751TIP3    H232745   4.735   6.304  11.640 -1.3546 -0.6915  1.8277
 3752TIP3   OH232746   4.565   3.214  14.157 -0.3412 -0.1339  0.8676
 3752TIP3    H132747   4.599   3.229  14.069  1.8728  0.2340  1.7239
 3752TIP3    H232748   4.513   3.133  14.149  0.7577 -0.7406 -0.5569
 3753TIP3   OH232749   4.378   3.161   3.198  0.1958 -0.1916  0.4246
 3753TIP3    H132750   4.373   3.225   3.270 -1.8320  0.0827  0.1054
 3753TIP3    H232751   4.364   3.077   3.240  4.6103 -0.8177  1.1273
 3754TIP3   OH232752   4.945   2.758  14.266 -0.0009 -0.3358 -0.1261
 3754TIP3    H132753   4.864   2.776  14.313  0.5363 -0.1332  0.7326
 3754TIP3    H232754   4.945   2.822  14.194 -0.8144 -0.6391 -0.4035
 3755TIP3   OH232755   4.365   1.881  13.911  0.3371 -0.0649 -0.4812
 3755TIP3    H132756   4.384   1.900  13.819  1.7925 -1.6945 -0.5682
 3755TIP3    H232757   4.414   1.947  13.960 -2.1206  2.1743 -0.8078
 3756TIP3   OH232758   4.929   3.538   2.361 -0.5881 -0.2637  0.2984
 3756TIP3    H132759   4.979   3.457   2.347  1.6771  1.0449  0.3896
 3756TIP3    H232760   4.932   3.583   2.276 -0.8932  0.2431  0.5506
 3757TIP3   OH232761   1.529   6.193  15.563  0.1738  0.1864  0.0781
 3757TIP3    H132762   1.565   6.106  15.579  1.9494  0.6380 -1.0760
 3757TIP3    H232763   1.467   6.181  15.491 -0.7801 -0.3428  0.9639
 3758TIP3   OH232764   3.763   4.569  14.468 -0.1493  0.4035 -0.5197
 3758TIP3    H132765   3.693   4.543  14.528  1.2040 -0.3389  0.8190
 3758TIP3    H232766   3.719   4.623  14.402 -2.0830 -0.6123 -0.1397
 3759TIP3   OH232767   2.930   6.776   0.653  0.0029  0.7643  0.4257
 3759TIP3    H132768   2.994   6.837   0.616  0.4750 -0.4090 -0.7911
 3759TIP3    H232769   2.983   6.702   0.683 -0.7338 -0.1085 -0.3542
 3760TIP3   OH232770   3.786   2.686  11.434  0.4603 -0.0395 -0.5980
 3760TIP3    H132771   3.813   2.609  11.484 -0.3465 -0.3433 -0.6155
 3760TIP3    H232772   3.858   2.749  11.445  0.4423 -0.2258  0.6495
 3761TIP3   OH232773   5.229   6.149  11.825 -0.2343  0.4573  0.1933
 3761TIP3    H132774   5.268   6.193  11.749 -0.6416  1.8985  0.7954
 3761TIP3    H232775   5.142   6.186  11.833 -0.5898 -0.4585  0.7518
 3762TIP3   OH232776   6.232   2.421   5.663 -0.4679  0.0448  0.1582
 3762TIP3    H132777   6.288   2.493   5.692 -0.6862 -0.4230  1.8361
 3762TIP3    H232778   6.285   2.343   5.676  0.1591 -0.1209 -2.6181
 3763TIP3   OH232779   3.396   5.128   4.635 -0.3494 -0.0225  0.1841
 3763TIP3    H132780   3.427   5.076   4.709 -1.0356 -4.2081 -2.1946
 3763TIP3    H232781   3.476   5.164   4.595  0.1372  0.8945  1.8796
 3764TIP3   OH232782   1.269   2.238   5.836  0.0126  0.4771 -0.3942
 3764TIP3    H132783   1.281   2.307   5.771 -0.1222  0.9309  0.0501
 3764TIP3    H232784   1.357   2.209   5.858  0.0578  0.3378 -0.7687
 3765TIP3   OH232785   2.114   4.310  15.071 -0.0256 -0.0174 -0.5681
 3765TIP3    H132786   2.142   4.384  15.018  0.0950 -0.6343 -1.3792
 3765TIP3    H232787   2.052   4.348  15.134  0.4277  0.8553 -0.6328
 3766TIP3   OH232788   2.969   0.355   2.297  0.1898  0.2859  0.1393
 3766TIP3    H132789   2.938   0.264   2.292  0.4436  0.1938  0.2449
 3766TIP3    H232790   2.965   0.376   2.390  0.2336  0.3479  0.1270
 3767TIP3   OH232791   5.172   1.404   3.432  0.1439  0.0036 -0.2331
 3767TIP3    H132792   5.251   1.413   3.486 -0.8580  1.3017  1.1167
 3767TIP3    H232793   5.197   1.343   3.362  1.6297 -1.4206  1.4467
 3768TIP3   OH232794   4.792   5.690  12.022  0.5548  0.2793  0.5388
 3768TIP3    H132795   4.698   5.689  12.004  0.8141 -1.8289 -1.1985
 3768TIP3    H232796   4.812   5.781  12.043 -1.9040  0.7339  1.2287
 3769TIP3   OH232797   4.623   6.661  15.229 -0.0022  0.2050 -0.1877
 3769TIP3    H132798   4.571   6.649  15.308  2.0726 -0.0721  1.2117
 3769TIP3    H232799   4.652   6.753  15.233 -1.0878  0.6238 -1.4230
 3770TIP3   OH232800   2.821   5.131  11.288  0.2611 -0.6254 -0.4765
 3770TIP3    H132801   2.862   5.101  11.206 -0.4664 -0.5421 -0.8790
 3770TIP3    H232802   2.888   5.118  11.354  1.0063 -0.3211 -1.1535
 3771TIP3   OH232803   5.261   0.289   0.280 -0.0715  0.3599  0.0468
 3771TIP3    H132804   5.185   0.231   0.282  0.1927  0.0247  0.4085
 3771TIP3    H232805   5.231   0.369   0.322  0.2269 -0.3308  1.6255
 3772TIP3   OH232806   2.244   0.163   0.268 -0.1811  0.3401 -0.5486
 3772TIP3    H132807   2.268   0.086   0.217  1.3755  0.7250 -0.4347
 3772TIP3    H232808   2.153   0.181   0.243 -0.4948 -1.3607 -0.7664
 3773TIP3   OH232809   1.332   3.040   1.536 -0.1422 -0.1540  0.3992
 3773TIP3    H132810   1.388   3.108   1.498 -1.5139  0.8885  0.1450
 3773TIP3    H232811   1.268   3.020   1.467 -0.9838 -0.2297  1.1734
 3774TIP3   OH232812   2.967   4.890   4.133 -0.3074 -0.5567 -0.2689
 3774TIP3    H132813   3.012   4.806   4.144  1.2323  0.1625 -0.7343
 3774TIP3    H232814   2.962   4.927   4.221  3.5672  1.0473 -0.5490
 3775TIP3   OH232815   2.976   5.491  13.193 -0.3057 -0.8215  0.1351
 3775TIP3    H132816   2.902   5.463  13.140 -0.7865  0.3690  0.1471
 3775TIP3    H232817   2.937   5.534  13.269  0.3471 -3.0427  1.8301
 3776TIP3   OH232818   1.395   4.134   5.420 -0.2037  0.3460 -0.6862
 3776TIP3    H132819   1.313   4.094   5.389  0.0807 -2.6843  1.9152
 3776TIP3    H232820   1.462   4.097   5.363 -0.2891 -0.2400 -0.4128
 3777TIP3   OH232821   2.515   3.460   1.579  0.2029 -0.6646  0.0032
 3777TIP3    H132822   2.457   3.526   1.542  0.4316 -0.9360 -0.8586
 3777TIP3    H232823   2.534   3.400   1.507  0.4946 -1.3279  0.6079
 3778TIP3   OH232824   1.781   2.823   6.531  0.1389  0.5248 -0.1948
 3778TIP3    H132825   1.703   2.828   6.587  1.3299  1.6957  1.4636
 3778TIP3    H232826   1.854   2.823   6.592  1.4692 -0.3808 -1.7171
 3779TIP3   OH232827   1.769   4.768  16.157  0.8142  0.2065 -0.2079
 3779TIP3    H132828   1.774   4.718  16.076  0.7225 -0.0500 -0.0582
 3779TIP3    H232829   1.715   4.714  16.215  1.0130  0.3130  0.0780
 3780TIP3   OH232830   1.950   6.272   0.031  0.7441 -0.0213 -0.2325
 3780TIP3    H132831   1.897   6.245   0.106  0.6583 -0.2287 -0.3660
 3780TIP3    H232832   1.986   6.190  -0.004 -0.7435 -0.1646 -1.5697
 3781TIP3   OH232833   0.693   5.264  15.949  0.4294  0.0518 -0.2840
 3781TIP3    H132834   0.685   5.352  15.986 -0.5092 -0.1204 -0.0451
 3781TIP3    H232835   0.747   5.217  16.013 -1.0553 -0.1988  0.8671
 3782TIP3   OH232836   1.052   0.962   3.416 -0.0801  0.4351  0.3388
 3782TIP3    H132837   1.124   1.011   3.457  1.9530 -2.8001  0.9584
 3782TIP3    H232838   1.017   0.907   3.486 -0.3824 -1.0445 -0.9200
 3783TIP3   OH232839   4.559   0.779   2.702  0.6899  0.1716 -0.2001
 3783TIP3    H132840   4.637   0.827   2.674  0.1174  1.1167 -0.2055
 3783TIP3    H232841   4.498   0.847   2.731 -0.1515 -0.5524 -0.2356
 3784TIP3   OH232842   0.370   2.099   4.926 -0.8516  0.9401  0.0756
 3784TIP3    H132843   0.278   2.078   4.914 -0.7695  0.7289 -0.2163
 3784TIP3    H232844   0.385   2.174   4.869 -0.5753  0.2436 -0.7939
 3785TIP3   OH232845   0.202   5.016   3.796  0.6024 -0.0274 -0.8745
 3785TIP3    H132846   0.166   5.013   3.884 -1.8163  2.1298 -1.6439
 3785TIP3    H232847   0.280   5.070   3.804  0.4330  0.1090 -0.0373
 3786TIP3   OH232848   4.659   4.956   0.324 -0.0809 -0.6151 -0.1769
 3786TIP3    H132849   4.671   4.862   0.332 -0.8617 -0.5839  1.6610
 3786TIP3    H232850   4.597   4.966   0.251 -2.7789 -1.7659  1.8135
 3787TIP3   OH232851   6.215   6.340  13.847 -0.7403 -0.1579  0.1681
 3787TIP3    H132852   6.148   6.274  13.828 -1.3737  0.1012  1.3824
 3787TIP3    H232853   6.218   6.394  13.768 -2.7964  0.5080  0.4964
 3788TIP3   OH232854   0.681   4.955  16.810 -0.0505 -0.0433 -0.4157
 3788TIP3    H132855   0.644   4.967  16.898 -0.7570 -0.7783 -0.6035
 3788TIP3    H232856   0.768   4.997  16.815 -0.5665  0.9908  0.2640
 3789TIP3   OH232857   1.634   4.384   3.889 -0.6866 -0.3626  0.3994
 3789TIP3    H132858   1.606   4.358   3.802 -0.3049 -0.6863  0.3675
 3789TIP3    H232859   1.609   4.476   3.897 -0.0080 -0.1036 -0.3583
 3790TIP3   OH232860   4.010   1.449  12.024  0.0195 -0.4621 -0.0886
 3790TIP3    H132861   4.037   1.527  12.072 -1.2124  0.5650 -1.0000
 3790TIP3    H232862   3.940   1.410  12.077 -1.0356  0.4271 -0.7849
 3791TIP3   OH232863   3.488   4.291   3.718 -0.0680 -0.3016 -0.5061
 3791TIP3    H132864   3.481   4.351   3.792 -1.0466  0.2589 -1.0451
 3791TIP3    H232865   3.405   4.300   3.671  0.7439 -0.2668 -1.9744
 3792TIP3   OH232866   4.266   6.190   1.971  0.1461  0.4831 -0.3379
 3792TIP3    H132867   4.236   6.221   2.056 -1.3423 -0.1016 -0.6281
 3792TIP3    H232868   4.290   6.099   1.986 -1.3879 -0.0236 -0.7986
 3793TIP3   OH232869   0.675   0.069   3.719 -0.3903 -1.1711  0.6460
 3793TIP3    H132870   0.739   0.069   3.648 -0.4921  0.1266  0.5380
 3793TIP3    H232871   0.728   0.077   3.798 -0.4267  0.6945  0.5139
 3794TIP3   OH232872   3.410   2.643  15.307  0.2436 -0.3710  0.3965
 3794TIP3    H132873   3.481   2.584  15.281 -1.2341 -1.6346 -1.0158
 3794TIP3    H232874   3.441   2.730  15.282  0.6004 -1.0954 -1.9324
 3795TIP3   OH232875   1.036   0.612   3.937 -0.0057  0.3481  0.6524
 3795TIP3    H132876   0.981   0.603   3.860  0.5374  0.1473  0.2834
 3795TIP3    H232877   0.974   0.629   4.009 -0.4046  2.5434 -0.1242
 3796TIP3   OH232878   2.415   6.682  12.968 -0.0714 -0.1893 -0.3349
 3796TIP3    H132879   2.480   6.612  12.963  0.3688  0.2313 -0.7370
 3796TIP3    H232880   2.447   6.747  12.905  0.1678  0.8894  0.8661
 3797TIP3   OH232881   2.109   1.160  15.483 -0.1635  0.2571 -0.0503
 3797TIP3    H132882   2.170   1.205  15.425  0.6723 -1.5557 -0.6391
 3797TIP3    H232883   2.107   1.070  15.451 -0.3445 -0.6081  2.2157
 3798TIP3   OH232884   0.835   4.621   2.307 -0.4042  0.3640 -0.0662
 3798TIP3    H132885   0.830   4.661   2.220 -2.4032  0.6177  0.1026
 3798TIP3    H232886   0.796   4.534   2.297  4.0346 -1.8474 -0.4575
 3799TIP3   OH232887   4.198   3.104  16.730 -0.2245 -0.1688 -0.0060
 3799TIP3    H132888   4.129   3.045  16.762 -0.1388  0.0763  0.6476
 3799TIP3    H232889   4.267   3.046  16.700  0.3676 -0.4286  1.7444
 3800TIP3   OH232890   5.815   2.201   0.857 -0.0635 -0.5298 -0.1553
 3800TIP3    H132891   5.784   2.288   0.830  2.6195  0.8108  0.7262
 3800TIP3    H232892   5.910   2.210   0.863  0.2577 -3.3786  0.6200
 3801TIP3   OH232893   4.106   6.494  11.422 -0.3133  0.4155 -0.3021
 3801TIP3    H132894   4.149   6.556  11.363 -0.1031  0.9633  0.4195
 3801TIP3    H232895   4.063   6.549  11.487  0.4055 -0.2093  0.7210
 3802TIP3   OH232896   3.291   2.865  11.943  0.0768  0.8054  0.0080
 3802TIP3    H132897   3.286   2.777  11.979 -0.4654  1.0062  0.4424
 3802TIP3    H232898   3.381   2.893  11.960 -0.0983  0.7971  1.0021
 3803TIP3   OH232899   1.464   5.153  13.546  0.0499 -0.3577 -0.6064
 3803TIP3    H132900   1.454   5.134  13.639 -0.4304  1.1510 -0.3105
 3803TIP3    H232901   1.404   5.092  13.502  0.4173 -1.2062  0.0503
 3804TIP3   OH232902   1.484   6.821  11.230 -0.3178 -0.3796  0.1551
 3804TIP3    H132903   1.446   6.855  11.150 -0.3751 -1.2766 -0.2187
 3804TIP3    H232904   1.542   6.751  11.201  2.8132  1.8469  0.5681
 3805TIP3   OH232905   4.447   6.561   3.851 -0.0474  0.4771 -0.1662
 3805TIP3    H132906   4.448   6.473   3.887 -0.3472  0.2886 -0.6002
 3805TIP3    H232907   4.448   6.619   3.927 -0.2139  0.0971  0.1263
 3806TIP3   OH232908   0.427   6.527   5.795  0.0723  0.8902 -0.6872
 3806TIP3    H132909   0.425   6.474   5.715 -1.1645  0.7377 -0.5804
 3806TIP3    H232910   0.468   6.471   5.860  0.5640  0.8015 -1.0633
 3807TIP3   OH232911   3.208   1.129   3.458 -0.5674 -0.2229 -0.3456
 3807TIP3    H132912   3.274   1.059   3.456 -0.6158 -0.2960  0.3759
 3807TIP3    H232913   3.246   1.196   3.515 -1.8798 -1.0606  1.6137
 3808TIP3   OH232914   3.965   6.152   1.185  0.1794  0.4149  0.4448
 3808TIP3    H132915   4.006   6.200   1.256 -1.0942 -0.8538  2.1083
 3808TIP3    H232916   3.874   6.143   1.211 -0.0654 -1.0699 -0.7971
 3809TIP3   OH232917   2.506   2.600  14.719 -0.0741 -0.0616  0.1553
 3809TIP3    H132918   2.581   2.653  14.746  0.8348 -0.7832 -0.8542
 3809TIP3    H232919   2.531   2.511  14.741 -0.1409 -0.4398 -1.1933
 3810TIP3   OH232920   5.387   5.118  15.076  0.1406 -0.1173  0.2533
 3810TIP3    H132921   5.478   5.090  15.081  0.4063  0.8831  2.3719
 3810TIP3    H232922   5.380   5.166  14.993  0.9637 -1.9556 -0.9223
 3811TIP3   OH232923   1.540   0.565   5.733  0.9035 -0.5444  0.1261
 3811TIP3    H132924   1.607   0.612   5.684  0.2111  0.6390  0.2792
 3811TIP3    H232925   1.589   0.511   5.796  1.7614  2.5252  2.3136
 3812TIP3   OH232926   3.031   4.692   3.251 -0.1150 -0.2306  0.3847
 3812TIP3    H132927   3.014   4.689   3.345  1.1803 -1.6799  0.6158
 3812TIP3    H232928   3.028   4.600   3.223 -0.2096  0.1555 -0.9359
 3813TIP3   OH232929   5.592   2.759   0.400  0.6384 -0.2967  0.1818
 3813TIP3    H132930   5.628   2.842   0.433 -1.9129  1.5157 -1.2466
 3813TIP3    H232931   5.521   2.785   0.341  1.4187 -3.4745 -2.4353
 3814TIP3   OH232932   5.262   5.873  12.517 -0.1768  0.5897  0.0967
 3814TIP3    H132933   5.343   5.846  12.473  0.2897  0.5471  0.9777
 3814TIP3    H232934   5.279   5.962  12.547 -1.2836  1.4812 -1.7130
 3815TIP3   OH232935   4.489   3.768  15.025  0.6394  0.2398  0.1445
 3815TIP3    H132936   4.475   3.683  14.982  2.5823  0.9375 -2.0669
 3815TIP3    H232937   4.510   3.745  15.116  0.8190 -1.6393 -0.3255
 3816TIP3   OH232938   2.661   3.415  11.325  0.5982  0.2827 -0.2458
 3816TIP3    H132939   2.574   3.447  11.300  0.5684 -0.2477 -0.8513
 3816TIP3    H232940   2.673   3.447  11.415 -0.9083 -0.9875  0.4679
 3817TIP3   OH232941   3.214   5.348   6.541 -0.2270 -0.4289 -0.8320
 3817TIP3    H132942   3.238   5.278   6.480  2.8916  0.8365 -1.2815
 3817TIP3    H232943   3.225   5.309   6.628 -0.3024 -1.0024 -1.0729
 3818TIP3   OH232944   2.067   3.174  13.585  0.4660  0.0215 -0.8725
 3818TIP3    H132945   2.077   3.134  13.672 -0.8138 -0.4415 -0.9232
 3818TIP3    H232946   1.972   3.182  13.573  0.5520 -1.3095 -2.8453
 3819TIP3   OH232947   2.542   3.800   4.848 -0.6106 -0.1776 -0.2516
 3819TIP3    H132948   2.582   3.717   4.822 -2.0507 -0.8941 -0.2757
 3819TIP3    H232949   2.471   3.775   4.907  1.2367  1.2732  2.8441
 3820TIP3   OH232950   3.822   6.548  16.890 -0.5686  0.0081  0.0933
 3820TIP3    H132951   3.833   6.640  16.913 -0.9761 -0.1308  0.8727
 3820TIP3    H232952   3.744   6.521  16.938 -0.5079 -0.7187 -0.2120
 3821TIP3   OH232953   5.875   4.281  12.329  0.4221 -0.4227  0.3883
 3821TIP3    H132954   5.954   4.307  12.281 -0.0664  0.0751 -0.1553
 3821TIP3    H232955   5.891   4.309  12.419  0.6001  0.2693  0.1464
 3822TIP3   OH232956   2.233   6.418  10.863  0.1522  0.3960  0.1168
 3822TIP3    H132957   2.270   6.425  10.774  3.1884  1.0427  1.2864
 3822TIP3    H232958   2.165   6.486  10.866  0.9831  1.3583 -1.2990
 3823TIP3   OH232959   5.859   4.688  13.483  0.4382  0.0969  0.4150
 3823TIP3    H132960   5.781   4.723  13.526  1.6206  2.4942  0.7771
 3823TIP3    H232961   5.866   4.738  13.402  1.4710 -0.2850  0.2546
 3824TIP3   OH232962   5.487   0.442   1.582  0.0361  0.2643  0.3342
 3824TIP3    H132963   5.465   0.353   1.609  0.6706  0.3261  1.0895
 3824TIP3    H232964   5.565   0.464   1.632  1.2790  0.4084 -1.5634
 3825TIP3   OH232965   1.659   4.377   6.117  0.3063 -0.6875  0.7192
 3825TIP3    H132966   1.614   4.303   6.159  1.5464 -2.5546 -1.0502
 3825TIP3    H232967   1.721   4.408   6.183  0.0721 -1.5270  1.3494
 3826TIP3   OH232968   3.175   0.307  12.593  0.0440  0.0390 -0.6413
 3826TIP3    H132969   3.209   0.311  12.683 -0.6909 -3.1240 -0.0736
 3826TIP3    H232970   3.096   0.360  12.595 -0.0375 -0.0903  0.6730
 3827TIP3   OH232971   0.557   3.791   2.270  0.2168  0.3178 -0.5637
 3827TIP3    H132972   0.633   3.825   2.222  0.9021  0.9896  0.9356
 3827TIP3    H232973   0.482   3.815   2.215  0.6964  3.8553  0.0776
 3828TIP3   OH232974   5.327   3.986   4.067  0.0954  0.2274 -0.0571
 3828TIP3    H132975   5.280   3.975   4.149  0.4018 -1.2583 -0.0515
 3828TIP3    H232976   5.356   4.077   4.067 -1.3917  0.7186  0.6647
 3829TIP3   OH232977   3.638   6.229  12.963  0.0723 -0.2474  0.6055
 3829TIP3    H132978   3.594   6.293  13.020  0.7143  1.3645 -0.6199
 3829TIP3    H232979   3.671   6.162  13.023  0.6048  1.3163  2.1529
 3830TIP3   OH232980   3.125   4.925   5.786  0.0457  0.3080  0.4044
 3830TIP3    H132981   3.187   4.927   5.713 -2.3136 -0.4572 -1.7610
 3830TIP3    H232982   3.080   5.010   5.781 -2.1587 -0.8579 -1.0226
 3831TIP3   OH232983   6.049   1.899  12.368  0.0540  0.0822 -0.0441
 3831TIP3    H132984   6.099   1.962  12.420 -0.2953  0.1671  0.1910
 3831TIP3    H232985   5.987   1.953  12.319  1.2199  0.1347 -1.5192
 3832TIP3   OH232986   3.796   1.585  15.600  0.4308 -0.2178  1.0848
 3832TIP3    H132987   3.842   1.657  15.644  0.0966 -1.3946  3.4876
 3832TIP3    H232988   3.703   1.599  15.621 -0.0290  0.3735 -1.1022
 3833TIP3   OH232989   3.820   3.533  13.172 -0.0206 -0.3291 -0.4191
 3833TIP3    H132990   3.896   3.590  13.160 -0.7282  0.2602 -2.8636
 3833TIP3    H232991   3.746   3.594  13.180 -0.3473 -0.8945  1.0851
 3834TIP3   OH232992   4.834   1.745   0.988 -0.1252 -0.1884  0.5826
 3834TIP3    H132993   4.882   1.712   1.064 -0.2239  1.1984  1.2787
 3834TIP3    H232994   4.813   1.836   1.011 -0.0437  0.3003 -1.1660
 3835TIP3   OH232995   6.354   6.348  16.815 -0.4092 -0.3690  0.2197
 3835TIP3    H132996   6.321   6.373  16.902 -2.7406 -2.5245  0.0296
 3835TIP3    H232997   6.423   6.284  16.834  1.3172  1.4537  0.4895
 3836TIP3   OH232998   4.974   5.974   4.308  0.0314 -0.1380  0.6734
 3836TIP3    H132999   4.997   5.952   4.398  1.0624 -3.7874 -0.2980
 3836TIP3    H233000   4.933   5.895   4.274 -0.1107  1.0275 -2.1514
 3837TIP3   OH233001   3.160   4.779  16.575 -0.4165 -0.1940  0.3261
 3837TIP3    H133002   3.157   4.729  16.657  0.9734 -0.5996  0.1528
 3837TIP3    H233003   3.175   4.869  16.602 -0.7166 -0.2050  0.5389
 3838TIP3   OH233004   5.230   4.531   1.228 -0.0229 -0.1313 -0.5281
 3838TIP3    H133005   5.163   4.598   1.242 -0.0389 -0.4867  1.3006
 3838TIP3    H233006   5.182   4.456   1.193 -0.4577 -0.1070  0.0033
 3839TIP3   OH233007   0.921   4.241  14.604  0.1073 -0.3257 -0.2606
 3839TIP3    H133008   0.838   4.210  14.638  0.5884 -2.3636 -0.8055
 3839TIP3    H233009   0.982   4.232  14.677  0.5335 -2.0325 -0.7856
 3840TIP3   OH233010   2.842   5.865   4.346 -0.1540 -0.1599 -0.1717
 3840TIP3    H133011   2.798   5.786   4.377 -1.1903  1.2226  2.0801
 3840TIP3    H233012   2.787   5.897   4.274 -0.9701 -0.2754  0.3956
 3841TIP3   OH233013   1.431   5.875   3.624  0.1631  0.5473 -0.3523
 3841TIP3    H133014   1.492   5.812   3.663  0.3208  0.4385 -0.7620
 3841TIP3    H233015   1.344   5.845   3.651  0.0718 -1.0918 -2.2178
 3842TIP3   OH233016   2.080   5.862  15.993 -0.1441 -0.2234  0.1213
 3842TIP3    H133017   2.072   5.871  16.088 -0.1122  0.4883  0.0658
 3842TIP3    H233018   2.129   5.940  15.966 -1.8688  0.6380 -0.7053
 3843TIP3   OH233019   6.615   2.982   2.392  0.0090 -0.1851 -0.3748
 3843TIP3    H133020   6.664   2.976   2.310 -0.8702 -1.0742 -0.8546
 3843TIP3    H233021   6.650   3.060   2.435  1.3477 -0.4117 -1.0115
 3844TIP3   OH233022   3.815   4.542   1.639 -0.2467 -0.1659  0.1015
 3844TIP3    H133023   3.878   4.560   1.709 -1.0740  1.3419  0.4950
 3844TIP3    H233024   3.775   4.458   1.664 -0.2950  0.1861  1.2748
 3845TIP3   OH233025   0.479   1.684   2.280  0.4561  0.0372  0.2485
 3845TIP3    H133026   0.509   1.767   2.244  0.3716  0.0609  0.2330
 3845TIP3    H233027   0.488   1.694   2.375  0.7354 -0.0473  0.2317
 3846TIP3   OH233028   4.646   0.510  12.043 -0.0515 -0.3129  0.4040
 3846TIP3    H133029   4.622   0.561  11.966 -3.4785 -1.8063  0.2925
 3846TIP3    H233030   4.608   0.558  12.117 -0.7762 -1.1650  0.6053
 3847TIP3   OH233031   4.945   4.860  15.981 -0.4891  0.2533  0.1287
 3847TIP3    H133032   5.020   4.880  15.925 -0.8203  2.4057  0.3990
 3847TIP3    H233033   4.921   4.943  16.021 -4.1318  0.0881 -1.3019
 3848TIP3   OH233034   2.311   4.378   0.713 -0.1639  0.5936 -0.8473
 3848TIP3    H133035   2.355   4.308   0.760 -1.0193  1.4334  1.3055
 3848TIP3    H233036   2.263   4.333   0.643  0.4359 -0.7933 -0.3938
 3849TIP3   OH233037   5.745   4.785  14.253  0.1817 -0.3610  0.4601
 3849TIP3    H133038   5.823   4.836  14.277 -0.9918  2.1691 -0.6730
 3849TIP3    H233039   5.754   4.770  14.159 -0.6088 -0.1383  0.3384
 3850TIP3   OH233040   1.341   0.435  11.269 -0.2199 -0.1572  0.1217
 3850TIP3    H133041   1.417   0.377  11.278 -0.3547 -0.4946 -0.8071
 3850TIP3    H233042   1.375   0.523  11.284  0.5809 -0.1985 -1.2502
 3851TIP3   OH233043   6.000   3.375  16.103 -0.3941  0.1972  0.0214
 3851TIP3    H133044   6.094   3.376  16.121 -0.2081 -1.3993 -0.7401
 3851TIP3    H233045   5.960   3.405  16.185  0.6628 -1.5407  1.2317
 3852TIP3   OH233046   0.595   6.498   2.688 -0.0270  0.5814 -0.1520
 3852TIP3    H133047   0.562   6.554   2.758  1.4359  2.2279 -0.7094
 3852TIP3    H233048   0.615   6.559   2.616 -1.3294 -1.0230 -1.9748
 3853TIP3   OH233049   6.210   4.893  15.059  0.0280 -0.6537 -0.7545
 3853TIP3    H133050   6.281   4.833  15.078 -0.2081 -0.9091 -0.6781
 3853TIP3    H233051   6.239   4.941  14.981 -0.0771 -1.3464 -1.2271
 3854TIP3   OH233052   5.653   5.639   0.041  0.3637 -0.1445 -0.0170
 3854TIP3    H133053   5.638   5.718  -0.010 -0.1501 -0.1461  0.1272
 3854TIP3    H233054   5.574   5.629   0.094  0.2883 -0.9360 -0.2711
 3855TIP3   OH233055   3.074   4.537   0.081 -0.3257 -0.2934  0.3062
 3855TIP3    H133056   2.995   4.591   0.090 -0.3442 -0.4212  0.9162
 3855TIP3    H233057   3.068   4.502  -0.008 -1.3563 -0.9106  0.5990
 3856TIP3   OH233058   4.420   5.772  13.221  0.5363 -0.6628  0.2669
 3856TIP3    H133059   4.410   5.713  13.147  0.2996 -1.2739  0.7750
 3856TIP3    H233060   4.339   5.824  13.222 -0.1957 -1.7676  1.0459
 3857TIP3   OH233061   4.164   6.373   0.431 -0.4131  0.1872  0.0452
 3857TIP3    H133062   4.227   6.302   0.418 -0.4351  0.3664 -1.1902
 3857TIP3    H233063   4.100   6.360   0.361  0.6794  2.5979 -1.5092
 3858TIP3   OH233064   0.717   0.246  17.176  0.0547  0.4330  1.0069
 3858TIP3    H133065   0.776   0.275  17.246 -0.4916  0.7267  1.3567
 3858TIP3    H233066   0.655   0.318  17.166  2.3113  2.1853 -2.4299
 3859TIP3   OH233067   4.568   0.968   4.201 -0.2128  0.0111 -0.6533
 3859TIP3    H133068   4.524   0.960   4.116 -1.2088  0.1743 -0.1644
 3859TIP3    H233069   4.498   0.991   4.262  0.1657 -1.8334  0.5443
 3860TIP3   OH233070   0.231   3.166  11.771 -0.4065  1.2453 -0.1266
 3860TIP3    H133071   0.184   3.109  11.710  0.2275  0.6217 -0.0318
 3860TIP3    H233072   0.161   3.209  11.821 -0.8925  0.7210 -0.3402
 3861TIP3   OH233073   0.310   1.493   1.574  0.4578  0.2025 -0.3101
 3861TIP3    H133074   0.263   1.502   1.656  0.8756  0.1046 -0.0556
 3861TIP3    H233075   0.278   1.410   1.536  0.9272 -0.2163  0.1940
 3862TIP3   OH233076   6.325   3.760   3.223 -0.1732 -0.0005  0.6936
 3862TIP3    H133077   6.235   3.789   3.231  0.1197  0.7982  1.2336
 3862TIP3    H233078   6.375   3.821   3.278  0.6142 -0.7990  0.8915
 3863TIP3   OH233079   4.300   4.378  12.653 -0.1865  0.1485  0.6414
 3863TIP3    H133080   4.354   4.336  12.585 -2.4003  0.0571 -1.1831
 3863TIP3    H233081   4.358   4.442  12.693  1.3192  0.0208 -1.1769
 3864TIP3   OH233082   4.309   6.393  10.702 -0.3783  0.3235 -0.3522
 3864TIP3    H133083   4.317   6.482  10.668  0.5348 -0.1005 -1.3188
 3864TIP3    H233084   4.250   6.350  10.640 -0.5049  0.1508 -0.1112
 3865TIP3   OH233085   2.391   4.019  11.913 -0.4312 -0.1395  0.0146
 3865TIP3    H133086   2.398   4.054  11.825 -1.1467 -0.3971 -0.1516
 3865TIP3    H233087   2.478   3.983  11.932 -0.2204  0.0932 -0.5065
 3866TIP3   OH233088   5.843   2.336  15.261 -0.0592  0.0524 -0.6036
 3866TIP3    H133089   5.857   2.263  15.200 -1.3446 -1.6758  1.0422
 3866TIP3    H233090   5.748   2.348  15.262  0.0539  0.9698  0.0433
 3867TIP3   OH233091   3.125   1.432   2.268 -0.5797  0.3082 -0.2602
 3867TIP3    H133092   3.039   1.409   2.231 -0.6405  0.7189 -0.3795
 3867TIP3    H233093   3.119   1.408   2.360 -0.5110 -0.5037 -0.4593
 3868TIP3   OH233094   1.772   4.150   4.134 -0.1530 -0.5246 -0.1633
 3868TIP3    H133095   1.686   4.113   4.154 -0.1344  0.0891  1.1127
 3868TIP3    H233096   1.771   4.161   4.039 -1.4676 -0.5682 -0.1782
 3869TIP3   OH233097   6.350   5.098  16.561  0.3933 -0.2223 -0.1440
 3869TIP3    H133098   6.436   5.139  16.572  0.2654  0.4391 -1.3668
 3869TIP3    H233099   6.334   5.053  16.643  2.9349 -2.3390 -0.6664
 3870TIP3   OH233100   3.205   4.133   5.486 -0.0599  0.1685  0.2201
 3870TIP3    H133101   3.259   4.055   5.477  1.3649  1.1590  0.0197
 3870TIP3    H233102   3.188   4.162   5.397 -1.4802 -0.4631  0.2446
 3871TIP3   OH233103   4.782   4.128  11.257  0.1017 -0.6240 -0.5049
 3871TIP3    H133104   4.721   4.061  11.226 -0.3181 -0.0455 -0.9400
 3871TIP3    H233105   4.834   4.151  11.180  0.8925 -1.1296 -0.1331
 3872TIP3   OH233106   6.670   0.205  14.365 -1.0495 -0.0441  0.0569
 3872TIP3    H133107   6.645   0.188  14.456  1.5704 -1.3889  0.5964
 3872TIP3    H233108   6.764   0.221  14.368 -0.7683 -0.7924 -2.5175
 3873TIP3   OH233109   6.177   0.181  15.439  0.0235 -0.4765  0.0002
 3873TIP3    H133110   6.164   0.092  15.406  1.2806 -0.7979  0.3034
 3873TIP3    H233111   6.222   0.169  15.523  1.5538  0.4665 -0.6341
 3874TIP3   OH233112   4.811   2.196   6.012 -0.2368 -0.0313 -0.3953
 3874TIP3    H133113   4.905   2.208   5.998  0.2852 -0.9938  1.7988
 3874TIP3    H233114   4.783   2.275   6.057 -0.4613  0.1970 -0.9309
 3875TIP3   OH233115   0.054   6.642  12.979 -0.1466 -0.6264 -0.3809
 3875TIP3    H133116   0.082   6.706  13.045 -1.3600  1.6073 -1.9029
 3875TIP3    H233117   0.105   6.665  12.901 -0.8362 -1.3330 -1.0529
 3876TIP3   OH233118   5.534   5.567   0.353  0.0085 -0.5050  0.4432
 3876TIP3    H133119   5.485   5.642   0.386 -0.2267 -1.0349  1.3368
 3876TIP3    H233120   5.619   5.572   0.397  0.2916 -0.3055 -0.1231
 3877TIP3   OH233121   5.470   0.137   2.211 -0.4041  0.1951  0.3627
 3877TIP3    H133122   5.531   0.195   2.257 -1.7368  0.4110  1.9588
 3877TIP3    H233123   5.436   0.079   2.279 -1.7425 -0.1097 -0.5210
 3878TIP3   OH233124   2.558   6.484  15.029 -0.3987 -0.4305  0.2404
 3878TIP3    H133125   2.544   6.397  15.066 -2.0040 -0.0424  0.6369
 3878TIP3    H233126   2.568   6.542  15.104  0.1929 -0.2033 -0.0088
 3879TIP3   OH233127   4.613   3.482  15.399 -0.3390  0.1930 -0.0535
 3879TIP3    H133128   4.634   3.466  15.491  0.0071 -0.8711 -0.3050
 3879TIP3    H233129   4.582   3.398  15.366  1.6498 -0.0567 -1.4681
 3880TIP3   OH233130   0.655   4.275   6.004  0.1196  0.1712 -0.0810
 3880TIP3    H133131   0.599   4.351   5.985 -3.0268 -1.5559  1.5499
 3880TIP3    H233132   0.738   4.314   6.033 -0.9187  2.9597 -0.5200
 3881TIP3   OH233133   3.175   5.369  13.557  0.2333 -0.5362  0.2421
 3881TIP3    H133134   3.201   5.451  13.597  0.3201  0.4370 -1.7129
 3881TIP3    H233135   3.086   5.354  13.590 -0.3487  1.1093 -0.4594
 3882TIP3   OH233136   0.488   5.935  12.119  0.4341  0.6169  0.4693
 3882TIP3    H133137   0.402   5.963  12.151 -1.0056 -0.6511 -2.0111
 3882TIP3    H233138   0.549   5.998  12.157 -1.4225  1.0200  3.0881
 3883TIP3   OH233139   3.595   3.373  10.531  0.2121 -0.0288 -0.0880
 3883TIP3    H133140   3.631   3.394  10.445  2.2422 -0.4381  0.6196
 3883TIP3    H233141   3.666   3.391  10.592 -0.8868 -0.6072  1.4273
 3884TIP3   OH233142   5.936   1.818   3.406  0.0374  0.0140 -0.2710
 3884TIP3    H133143   5.999   1.879   3.445  0.4418 -0.3326 -0.3786
 3884TIP3    H233144   5.872   1.875   3.364  0.0465  0.3767  0.1984
 3885TIP3   OH233145   1.015   6.478  12.527 -0.4225 -0.0211  0.2520
 3885TIP3    H133146   1.088   6.490  12.466 -1.2701  3.2126 -0.3387
 3885TIP3    H233147   1.056   6.447  12.608  1.4268  0.4914 -0.4337
 3886TIP3   OH233148   0.771   3.951  14.252 -0.0832  0.1300  0.2867
 3886TIP3    H133149   0.714   3.950  14.330  1.1720 -2.3450  1.2655
 3886TIP3    H233150   0.842   4.010  14.275 -1.0439  1.5100 -0.0983
 3887TIP3   OH233151   0.303   4.453   1.307 -0.1433  0.4168  0.4019
 3887TIP3    H133152   0.391   4.471   1.273  0.0311  1.3704  1.3330
 3887TIP3    H233153   0.298   4.357   1.311  0.9113  0.3577  0.4957
 3888TIP3   OH233154   5.949   0.859   1.797 -0.5497 -0.1761 -0.0131
 3888TIP3    H133155   5.876   0.875   1.857 -0.5995 -0.0191 -0.1169
 3888TIP3    H233156   6.011   0.929   1.815 -1.1588  0.6606 -1.0822
 3889TIP3   OH233157   1.964   5.487   5.271  0.2925  0.4694  0.2799
 3889TIP3    H133158   1.954   5.560   5.210  0.4034  0.3333  0.0990
 3889TIP3    H233159   2.040   5.512   5.325  1.9915 -0.6680 -1.4545
 3890TIP3   OH233160   1.353   1.969   2.990 -0.0471  0.3112  0.7817
 3890TIP3    H133161   1.354   1.972   3.086 -1.6437 -1.0190  0.8805
 3890TIP3    H233162   1.419   1.903   2.968  1.0484  1.3375  0.8821
 3891TIP3   OH233163   2.325   2.386  17.172  0.2879  0.1171  0.1212
 3891TIP3    H133164   2.379   2.438  17.112  0.0175 -0.5708 -0.7439
 3891TIP3    H233165   2.316   2.301  17.128 -2.3906  0.5540 -0.3066
 3892TIP3   OH233166   6.031   0.332   1.146  1.4871 -0.3874  0.2392
 3892TIP3    H133167   6.040   0.381   1.063  0.2959 -0.9111 -0.2160
 3892TIP3    H233168   6.042   0.399   1.214  0.3648  0.4520 -0.3660
 3893TIP3   OH233169   1.935   4.968   0.243  0.5153  0.2105  0.5251
 3893TIP3    H133170   2.002   4.900   0.255  0.0074 -0.3819  0.0771
 3893TIP3    H233171   1.888   4.970   0.327 -0.3428 -0.9752  0.1108
 3894TIP3   OH233172   4.850   2.864  10.632 -0.1305 -0.9391 -0.8168
 3894TIP3    H133173   4.765   2.827  10.655  0.4168 -1.8735 -0.2327
 3894TIP3    H233174   4.910   2.790  10.636  0.5708 -0.4834 -2.0991
 3895TIP3   OH233175   6.319   3.563   5.311 -0.1765 -0.0129 -0.1888
 3895TIP3    H133176   6.359   3.478   5.332 -1.2987 -0.3591  0.6097
 3895TIP3    H233177   6.225   3.547   5.314 -0.4391  0.6244 -2.7281
 3896TIP3   OH233178   4.618   3.335   2.889  0.0579  0.7407 -0.1195
 3896TIP3    H133179   4.530   3.370   2.878  0.0694  0.4064 -1.4142
 3896TIP3    H233180   4.605   3.243   2.912  0.0668  0.9085  0.5798
 3897TIP3   OH233181   5.399   5.235   1.773 -0.1282  0.9519 -0.2771
 3897TIP3    H133182   5.388   5.211   1.865 -1.5870  2.7884  0.0814
 3897TIP3    H233183   5.465   5.304   1.774  2.1247 -1.0619 -1.0106
 3898TIP3   OH233184   5.049   2.425   4.904 -0.0074  0.1054  0.0271
 3898TIP3    H133185   5.019   2.418   4.995 -2.3968 -2.5323 -0.8113
 3898TIP3    H233186   5.092   2.341   4.887  0.6811  0.6868 -1.2265
 3899TIP3   OH233187   1.443   1.641  12.319 -0.4983 -0.0552  0.0607
 3899TIP3    H133188   1.351   1.663  12.313 -0.6186 -0.1742  1.2015
 3899TIP3    H233189   1.466   1.659  12.411  0.4590 -0.5724 -0.0631
 3900TIP3   OH233190   3.970   6.779  11.965  0.0878 -0.4315  0.0086
 3900TIP3    H133191   4.055   6.736  11.956  0.7776  0.3756  2.1285
 3900TIP3    H233192   3.919   6.720  12.021 -0.0015  0.0765  0.4739
 3901TIP3   OH233193   6.778   1.995  13.346  0.1713  0.2904  0.4531
 3901TIP3    H133194   6.774   1.993  13.442 -0.8081 -1.5733  0.4017
 3901TIP3    H233195   6.783   2.089  13.325  0.3207  0.7390  2.3056
 3902TIP3   OH233196   0.346   5.549  12.944 -0.5833  0.8943 -0.1136
 3902TIP3    H133197   0.254   5.574  12.949 -1.0267 -0.7924  0.8471
 3902TIP3    H233198   0.360   5.491  13.019  0.6394 -0.7264 -1.4999
 3903TIP3   OH233199   4.989   2.096   0.453 -0.4875 -0.0561  0.0454
 3903TIP3    H133200   5.049   2.044   0.399  1.8660  0.3418  2.1489
 3903TIP3    H233201   5.039   2.173   0.479 -2.5139  1.1968  0.4964
 3904TIP3   OH233202   4.584   2.047   3.999  0.0857 -0.0573  0.3689
 3904TIP3    H133203   4.670   2.006   3.998  0.0383 -0.3206  2.5358
 3904TIP3    H233204   4.590   2.113   4.067 -0.4368  2.3293 -1.7316
 3905TIP3   OH233205   4.462   5.127   0.205 -0.3345 -0.2366 -0.0370
 3905TIP3    H133206   4.378   5.107   0.163  0.1432 -1.3068 -0.5126
 3905TIP3    H233207   4.519   5.156   0.134 -0.3842  0.8418  0.3370
 3906TIP3   OH233208   5.956   4.144   2.190  0.6630  0.2559  0.5350
 3906TIP3    H133209   6.026   4.084   2.164  0.8929  0.8722 -0.3085
 3906TIP3    H233210   5.997   4.231   2.188 -0.4509  0.8079 -1.3908
 3907TIP3   OH233211   6.494   2.117   2.158  0.1958 -0.0642  0.4679
 3907TIP3    H133212   6.577   2.166   2.162  0.7950 -1.0880  1.0241
 3907TIP3    H233213   6.458   2.138   2.072 -0.1341  2.2240  1.0909
 3908TIP3   OH233214   4.879   2.420  12.067 -0.2459 -0.5079  0.0221
 3908TIP3    H133215   4.860   2.506  12.105  0.6198 -0.6063  0.7033
 3908TIP3    H233216   4.800   2.369  12.084 -0.9542  0.2783 -0.8032
 3909TIP3   OH233217   3.478   4.042   0.159  0.1067 -0.8559  0.3557
 3909TIP3    H133218   3.454   4.121   0.111 -1.5103 -1.0107  0.8512
 3909TIP3    H233219   3.528   3.990   0.096 -2.0606 -1.1086 -1.2672
 3910TIP3   OH233220   5.220   6.635  11.643  0.6028 -0.6291 -0.3218
 3910TIP3    H133221   5.174   6.663  11.722  1.1664 -2.5520  0.7631
 3910TIP3    H233222   5.180   6.551  11.621  1.5283 -0.8734 -1.1500
 3911TIP3   OH233223   3.490   2.553  14.827  0.3149  0.4012  0.3008
 3911TIP3    H133224   3.413   2.604  14.800  0.3472  0.3564  0.1249
 3911TIP3    H233225   3.459   2.501  14.901  0.1023  0.1810  0.0577
 3912TIP3   OH233226   3.713   1.978  11.921 -0.1260  0.0801 -0.2336
 3912TIP3    H133227   3.662   1.993  12.001  0.3944 -0.2567  0.1635
 3912TIP3    H233228   3.737   1.885  11.924  2.0860  0.6193  0.5249
 3913TIP3   OH233229   5.975   6.604  13.250 -0.4405 -0.1265  0.1083
 3913TIP3    H133230   5.888   6.642  13.240  0.1339  1.0325 -0.7272
 3913TIP3    H233231   5.977   6.531  13.189 -0.9259 -0.3641  0.3680
 3914TIP3   OH233232   2.930   3.664  14.294 -0.0381 -0.2781  0.2630
 3914TIP3    H133233   2.951   3.758  14.290  2.2439 -0.6551  1.5147
 3914TIP3    H233234   3.004   3.621  14.252  0.6596 -1.6228  2.6516
 3915TIP3   OH233235   3.159   1.690  11.400 -0.5040  0.1849  0.0111
 3915TIP3    H133236   3.100   1.763  11.383 -0.9759 -0.3897 -0.8854
 3915TIP3    H233237   3.155   1.678  11.495 -0.3521  1.3688  0.1789
 3916TIP3   OH233238   4.767   3.919  12.758  0.1324 -0.1159  0.0807
 3916TIP3    H133239   4.796   3.828  12.760  0.4642 -0.0047  0.7210
 3916TIP3    H233240   4.672   3.915  12.768 -0.1250 -0.4913 -2.0531
 3917TIP3   OH233241   2.975   2.900  11.355  0.2599  0.0991  0.7257
 3917TIP3    H133242   2.913   2.837  11.390  0.0796 -0.5145 -0.6534
 3917TIP3    H233243   2.921   2.968  11.314  0.4907 -0.1696 -0.0259
 3918TIP3   OH233244   2.996   3.843  14.860  0.4960  0.1327  0.3193
 3918TIP3    H133245   3.077   3.852  14.810  1.1588  0.6452  1.4715
 3918TIP3    H233246   3.022   3.846  14.951 -0.8248  0.3310  0.7176
 3919TIP3   OH233247   6.440   0.831   0.670  0.3743  0.4031  0.5721
 3919TIP3    H133248   6.528   0.830   0.633 -0.4728 -1.0520 -1.6342
 3919TIP3    H233249   6.398   0.907   0.631  0.5233  0.8858  1.3367
 3920TIP3   OH233250   2.521   5.580  15.950  0.1855 -0.3497 -0.0552
 3920TIP3    H133251   2.456   5.560  15.882 -0.5803  0.3233  0.4656
 3920TIP3    H233252   2.469   5.602  16.027  1.0347  0.5094  0.2870
 3921TIP3   OH233253   3.175   5.558   5.683 -0.2855  0.4621 -0.4196
 3921TIP3    H133254   3.265   5.563   5.714 -0.8345  0.6374  1.2658
 3921TIP3    H233255   3.157   5.464   5.678  0.1016  0.4219 -1.1344
 3922TIP3   OH233256   5.571   0.252  13.511  0.2987 -0.3531 -0.2955
 3922TIP3    H133257   5.600   0.334  13.551  0.8025  0.5177 -2.3561
 3922TIP3    H233258   5.477   0.247  13.532  0.5411  0.0084  1.0063
 3923TIP3   OH233259   6.780   2.099  15.401 -0.2295  0.1814  0.6752
 3923TIP3    H133260   6.798   2.132  15.313 -0.3124 -3.2730 -0.8316
 3923TIP3    H233261   6.866   2.084  15.440 -0.0898 -1.1889 -0.1071
 3924TIP3   OH233262   5.664   0.425   5.192 -0.3360  0.0479 -0.4294
 3924TIP3    H133263   5.571   0.403   5.195 -0.2504 -0.2945 -0.0203
 3924TIP3    H233264   5.676   0.475   5.112 -0.6992 -0.7111 -0.9644
 3925TIP3   OH233265   0.297   0.733  15.838  0.2607  0.2321  0.1504
 3925TIP3    H133266   0.288   0.798  15.907  0.8283 -0.0751  0.5211
 3925TIP3    H233267   0.291   0.783  15.756 -0.3983  0.5957  0.4141
 3926TIP3   OH233268   0.231   2.843  13.324 -0.0084  0.2777  0.0297
 3926TIP3    H133269   0.167   2.783  13.286 -0.0978  0.0564  0.5153
 3926TIP3    H233270   0.186   2.927  13.329  0.2225  0.4637 -0.9431
 3927TIP3   OH233271   0.176   6.755   2.692  0.2672  0.0053 -0.3240
 3927TIP3    H133272   0.196   6.848   2.689 -1.7551  0.4650 -1.5889
 3927TIP3    H233273   0.201   6.722   2.605  0.7786 -0.6090  0.0410
 3928TIP3   OH233274   1.139   4.210  11.105  0.4405  0.6394 -0.0549
 3928TIP3    H133275   1.120   4.160  11.026 -1.0386 -1.7120  1.6897
 3928TIP3    H233276   1.176   4.292  11.072  1.3314 -0.8349 -3.1156
 3929TIP3   OH233277   5.870   3.177   1.746 -0.4795 -0.4447 -0.2100
 3929TIP3    H133278   5.891   3.108   1.809 -0.4720 -0.1118  0.1578
 3929TIP3    H233279   5.924   3.252   1.773 -2.1498  0.4652  0.8300
 3930TIP3   OH233280   0.752   1.135  12.125 -0.3511  0.5102  0.4038
 3930TIP3    H133281   0.719   1.202  12.185  1.1068  2.2579 -0.6544
 3930TIP3    H233282   0.831   1.102  12.167 -1.4238 -1.1006  1.2447
 3931TIP3   OH233283   0.436   2.601   3.312  0.3653  0.1141  0.3603
 3931TIP3    H133284   0.524   2.613   3.348 -0.4572  1.5174  2.0515
 3931TIP3    H233285   0.428   2.507   3.298  1.6772 -0.1696  1.4110
 3932TIP3   OH233286   0.886   4.439   3.333 -0.2083 -0.0093  0.2760
 3932TIP3    H133287   0.960   4.382   3.310 -0.0869  0.9149 -1.9035
 3932TIP3    H233288   0.919   4.528   3.320 -1.2488  0.4682  0.7932
 3933TIP3   OH233289   2.819   3.113   0.950 -0.0851  0.0302 -0.4320
 3933TIP3    H133290   2.792   3.032   0.993  1.7088 -0.3980 -0.0325
 3933TIP3    H233291   2.884   3.152   1.009  0.5195  0.7596 -1.5222
 3934TIP3   OH233292   3.955   5.963  11.873  0.0530 -0.2202 -0.3896
 3934TIP3    H133293   3.897   5.962  11.797 -2.1897 -0.7016  1.2368
 3934TIP3    H233294   3.970   6.056  11.890 -2.6522  0.0907  0.8112
 3935TIP3   OH233295   3.833   5.083  11.611 -0.4401  0.2248 -0.5882
 3935TIP3    H133296   3.840   5.173  11.644 -1.4622  0.1417 -0.0902
 3935TIP3    H233297   3.843   5.092  11.517 -0.8113  0.9127 -0.5752
 3936TIP3   OH233298   2.228   0.312   1.832 -0.4598  0.0759 -0.5511
 3936TIP3    H133299   2.135   0.334   1.818 -0.5902 -0.9127 -1.3097
 3936TIP3    H233300   2.231   0.276   1.920 -0.7220  0.4952 -0.3652
 3937TIP3   OH233301   1.367   1.857  16.969  0.2522 -0.1078  0.1686
 3937TIP3    H133302   1.317   1.779  16.995  3.0672 -2.2444 -0.3163
 3937TIP3    H233303   1.363   1.914  17.046 -3.7284  0.4696 -0.2146
 3938TIP3   OH233304   5.862   0.897  15.065  0.9521  0.4292  0.1875
 3938TIP3    H133305   5.781   0.889  15.115  0.0927 -0.5724 -1.2834
 3938TIP3    H233306   5.930   0.861  15.122  0.0413 -0.5139  0.7004
 3939TIP3   OH233307   3.928   4.666  12.175  0.4348 -0.0293  0.0396
 3939TIP3    H133308   3.912   4.761  12.169  0.8478  0.1081  1.0323
 3939TIP3    H233309   3.855   4.627  12.126 -1.0610  0.6990  1.5931
 3940TIP3   OH233310   1.451   1.934   2.233  0.5036  0.0847 -0.9089
 3940TIP3    H133311   1.514   1.903   2.298  0.0765 -2.7825 -1.7360
 3940TIP3    H233312   1.366   1.908   2.269 -0.1544  2.5826 -0.5149
 3941TIP3   OH233313   4.269   0.742  13.394  0.3354  0.0003 -0.2448
 3941TIP3    H133314   4.314   0.729  13.477 -0.2377  0.6046  0.1652
 3941TIP3    H233315   4.251   0.653  13.362  0.4610 -0.2288  0.3172
 3942TIP3   OH233316   5.443   4.731  13.024 -0.1327  0.7369 -0.0991
 3942TIP3    H133317   5.359   4.705  12.987 -0.9391  0.7739  1.5697
 3942TIP3    H233318   5.421   4.805  13.081  1.2564  1.5951 -0.6465
 3943TIP3   OH233319   3.158   1.932  16.377  0.2683 -0.5156  0.3587
 3943TIP3    H133320   3.071   1.891  16.374 -0.1647  0.2821  1.1635
 3943TIP3    H233321   3.206   1.893  16.304 -0.2845 -2.0488  0.7663
 3944TIP3   OH233322   1.273   2.407  16.898  0.6018 -0.3354  0.3463
 3944TIP3    H133323   1.277   2.317  16.865  0.9521 -1.0510  2.2199
 3944TIP3    H233324   1.199   2.446  16.852 -1.2812 -2.4305  1.4018
 3945TIP3   OH233325   0.925   3.424   0.027 -0.3079 -0.5141  0.1033
 3945TIP3    H133326   1.003   3.393   0.073  0.2609 -1.6461 -1.5364
 3945TIP3    H233327   0.892   3.496   0.081  0.7288 -1.3004  1.8518
 3946TIP3   OH233328   4.319   3.301  10.867  0.2269  0.3701 -0.0199
 3946TIP3    H133329   4.340   3.317  10.775  2.5781  1.1423  0.5837
 3946TIP3    H233330   4.333   3.386  10.909 -1.1546  0.1124  1.0228
 3947TIP3   OH233331   4.568   5.023   2.013  0.2182  0.0888 -0.0719
 3947TIP3    H133332   4.618   4.948   2.044 -0.0201 -0.0540 -0.0294
 3947TIP3    H233333   4.477   4.992   2.011  0.1808  0.2273 -0.5110
 3948TIP3   OH233334   3.464   2.779  13.073  0.0669  0.4819  0.4028
 3948TIP3    H133335   3.516   2.834  13.131  0.3497  1.0661 -0.3768
 3948TIP3    H233336   3.392   2.835  13.045 -1.2052 -0.4153  1.7218
 3949TIP3   OH233337   4.337   3.928   4.379  0.3162  0.6619  0.0121
 3949TIP3    H133338   4.280   3.851   4.375  0.5426  0.4940  0.0083
 3949TIP3    H233339   4.410   3.901   4.434  1.5226  0.1378 -1.7501
 3950TIP3   OH233340   6.681   1.313   2.699 -0.2401 -0.8699 -0.2768
 3950TIP3    H133341   6.667   1.305   2.604  1.0789  0.0005 -0.5816
 3950TIP3    H233342   6.769   1.276   2.713 -0.2993 -0.7055  0.5642
 3951TIP3   OH233343   2.635   4.516  14.261  0.2418 -0.0253  0.5278
 3951TIP3    H133344   2.592   4.596  14.291 -1.0613  1.0313 -3.5673
 3951TIP3    H233345   2.564   4.453  14.249  0.6661 -0.3840 -0.1913
 3952TIP3   OH233346   6.681   6.648   3.706 -0.3585 -0.0238 -0.0447
 3952TIP3    H133347   6.664   6.564   3.747 -0.6982  0.0729  0.0159
 3952TIP3    H233348   6.712   6.626   3.618  2.6209 -0.3150  0.9705
 3953TIP3   OH233349   2.855   3.224   3.368 -0.5389 -0.5279 -0.0659
 3953TIP3    H133350   2.946   3.252   3.371  0.4790 -3.4982  1.4728
 3953TIP3    H233351   2.840   3.201   3.277  1.2792 -2.6245  0.0576
 3954TIP3   OH233352   5.766   0.740  12.114 -0.7233  0.2951 -0.0517
 3954TIP3    H133353   5.680   0.783  12.111 -1.0949 -0.4792 -2.0036
 3954TIP3    H233354   5.776   0.700  12.028  1.3417 -0.1861  0.3546
 3955TIP3   OH233355   1.906   2.753   2.756 -0.5898 -0.0107  0.3997
 3955TIP3    H133356   1.937   2.833   2.714  1.1031 -0.0736  1.4433
 3955TIP3    H233357   1.910   2.686   2.687 -0.0679  0.3702  0.0575
 3956TIP3   OH233358   2.806   2.438  11.269 -0.3164 -0.1779 -0.3160
 3956TIP3    H133359   2.811   2.379  11.193  1.6368  0.2805 -0.6063
 3956TIP3    H233360   2.849   2.389  11.340 -1.4909 -0.3160  0.3297
 3957TIP3   OH233361   1.757   4.617   3.734 -0.1334 -0.0373  0.5484
 3957TIP3    H133362   1.685   4.606   3.671  0.5043  0.9630 -0.3856
 3957TIP3    H233363   1.713   4.637   3.817 -0.9461  1.0316 -0.1103
 3958TIP3   OH233364   4.858   5.171  11.033  0.7424 -0.0428 -0.1000
 3958TIP3    H133365   4.841   5.082  11.002  1.1089 -0.2401  0.2589
 3958TIP3    H233366   4.899   5.159  11.119 -1.3230  0.5011  1.0334
 3959TIP3   OH233367   1.187   3.671  17.213 -0.0457 -0.2216 -0.1917
 3959TIP3    H133368   1.249   3.598  17.205  0.3472  0.1346 -0.4672
 3959TIP3    H233369   1.224   3.727  17.282 -2.9124 -2.7691  3.8123
 3960TIP3   OH233370   0.796   5.731   5.761  0.1593 -0.1580  0.2852
 3960TIP3    H133371   0.728   5.672   5.793  0.4381  0.0826  1.3500
 3960TIP3    H233372   0.754   5.817   5.759  0.4783  0.0265  1.1440
 3961TIP3   OH233373   1.333   0.760  15.356  0.0543  0.1624  0.2062
 3961TIP3    H133374   1.340   0.807  15.273  1.0846 -0.5121 -0.1066
 3961TIP3    H233375   1.271   0.689  15.338 -0.6022  0.6826  0.3533
 3962TIP3   OH233376   3.523   4.210   1.422 -0.1149 -0.3317 -0.0821
 3962TIP3    H133377   3.516   4.251   1.336 -1.6629 -1.7268 -0.6831
 3962TIP3    H233378   3.608   4.166   1.422  0.4002  0.6315 -0.4280
 3963TIP3   OH233379   2.294   0.973  14.004  0.0448 -0.5601  0.5120
 3963TIP3    H133380   2.279   1.042  14.069  3.0823  2.0084 -1.2262
 3963TIP3    H233381   2.247   1.004  13.927  0.0192 -1.3609  0.2036
 3964TIP3   OH233382   5.698   2.265  12.886  0.3123 -0.2904  0.3109
 3964TIP3    H133383   5.783   2.274  12.928  1.1782 -1.6456 -1.0699
 3964TIP3    H233384   5.699   2.178  12.846 -1.3708  0.0113 -0.5059
 3965TIP3   OH233385   2.043   4.185   1.533 -0.1517 -0.2126 -0.1629
 3965TIP3    H133386   1.953   4.176   1.563 -0.5284 -2.1871 -1.6611
 3965TIP3    H233387   2.094   4.133   1.594 -0.6382 -2.4713 -1.5519
 3966TIP3   OH233388   0.051   1.565   5.674  0.0966 -0.1883 -0.8415
 3966TIP3    H133389   0.083   1.509   5.604 -0.4421 -0.5532 -0.8058
 3966TIP3    H233390  -0.003   1.631   5.630  0.6525  0.2543 -0.8743
 3967TIP3   OH233391   6.024   0.742  12.881 -0.0281 -0.1604 -0.4982
 3967TIP3    H133392   6.065   0.725  12.796  3.2320  1.4462  0.5588
 3967TIP3    H233393   6.081   0.698  12.944 -1.2729  0.2726  1.0000
 3968TIP3   OH233394   4.596   6.362  13.218  0.0040 -0.4060 -0.2229
 3968TIP3    H133395   4.585   6.288  13.157 -0.3343  0.3345 -1.0811
 3968TIP3    H233396   4.686   6.354  13.249 -0.3385 -1.7695  0.4973
 3969TIP3   OH233397   6.290   1.837   3.888 -0.1275 -0.6007  0.6027
 3969TIP3    H133398   6.272   1.930   3.872  0.6867 -0.4176  0.7176
 3969TIP3    H233399   6.344   1.836   3.967 -0.2155 -1.1781  0.6592
 3970TIP3   OH233400   5.114   3.301   0.566 -0.1273 -0.1513 -0.2648
 3970TIP3    H133401   5.166   3.322   0.644 -0.9368 -2.0709  0.8743
 3970TIP3    H233402   5.093   3.208   0.576 -1.6774 -0.0395 -1.9474
 3971TIP3   OH233403   3.477   1.161   4.063  0.1556 -0.4303 -0.3133
 3971TIP3    H133404   3.536   1.121   4.128  2.2870 -0.1624 -1.9957
 3971TIP3    H233405   3.437   1.235   4.110  2.0249  0.0785  0.5700
 3972TIP3   OH233406   4.128   4.470  16.699 -0.2078  0.2727  0.2705
 3972TIP3    H133407   4.074   4.395  16.673 -1.0555  1.0530 -0.3110
 3972TIP3    H233408   4.126   4.470  16.794  0.3074 -0.7908  0.2951
 3973TIP3   OH233409   4.307   3.228   4.744  0.3003 -0.2883  0.0162
 3973TIP3    H133410   4.272   3.206   4.658 -0.3051 -0.7586  0.3785
 3973TIP3    H233411   4.307   3.145   4.792  2.7682 -0.5336 -0.2547
 3974TIP3   OH233412   0.328   6.132  12.434 -0.1991  0.1774 -0.1968
 3974TIP3    H133413   0.373   6.094  12.510  0.7200 -0.1584 -0.8985
 3974TIP3    H233414   0.243   6.161  12.469 -0.2611 -1.0144  0.7149
 3975TIP3   OH233415   5.861   3.743  16.620 -0.6786  0.3040 -0.5296
 3975TIP3    H133416   5.772   3.745  16.585 -1.1223 -0.5009  0.4987
 3975TIP3    H233417   5.865   3.662  16.672  0.4144  0.7171  0.0632
 3976TIP3   OH233418   1.746   1.044  14.576 -0.3519  0.5932 -0.8961
 3976TIP3    H133419   1.697   1.123  14.596  2.0055  2.0771 -0.6107
 3976TIP3    H233420   1.772   1.054  14.484  1.6770  1.2273 -0.3145
 3977TIP3   OH233421   2.930   5.573  13.511  0.4032  0.2050 -0.3874
 3977TIP3    H133422   2.905   5.608  13.597 -0.6237 -0.9240 -0.1962
 3977TIP3    H233423   2.859   5.600  13.452  1.2628  1.2505 -0.9765
 3978TIP3   OH233424   4.699   1.972  16.902  0.1558  0.3187 -0.1471
 3978TIP3    H133425   4.636   1.991  16.972  0.7974 -1.2414  0.9141
 3978TIP3    H233426   4.663   1.895  16.858  0.7785  0.0645 -0.2196
 3979TIP3   OH233427   1.221   0.088  16.295 -0.1631  0.7493  0.1326
 3979TIP3    H133428   1.172   0.036  16.231  1.6937 -0.4373 -0.3885
 3979TIP3    H233429   1.169   0.083  16.375 -0.5368 -1.0842 -0.1908
 3980TIP3   OH233430   5.825   6.797   1.823  0.8195 -0.0078  0.0850
 3980TIP3    H133431   5.762   6.867   1.838  0.5776 -0.5218  1.6584
 3980TIP3    H233432   5.822   6.781   1.729 -0.5486  0.7483 -0.0168
 3981TIP3   OH233433   3.495   0.213   2.446 -0.1857 -0.1284  0.0283
 3981TIP3    H133434   3.414   0.229   2.495 -1.0018 -0.8882 -0.9998
 3981TIP3    H233435   3.518   0.298   2.410 -0.3924  0.1447  0.5239
 3982TIP3   OH233436   2.128   5.591  13.757 -0.2388  0.3772  0.1864
 3982TIP3    H133437   2.077   5.657  13.804 -2.2556 -1.1354  0.2368
 3982TIP3    H233438   2.070   5.558  13.689  1.0435 -0.7027 -0.4486
 3983TIP3   OH233439   2.049   0.861  12.171  0.1639 -0.3492  0.2271
 3983TIP3    H133440   1.993   0.937  12.157  2.8142  1.7560  0.1862
 3983TIP3    H233441   1.990   0.792  12.201 -2.8983  0.6076 -3.0428
 3984TIP3   OH233442   4.251   0.841   5.172 -0.3919 -0.8046  0.1933
 3984TIP3    H133443   4.333   0.889   5.183  0.1707 -1.5024 -0.7850
 3984TIP3    H233444   4.183   0.902   5.200  0.4155 -0.0112  0.4739
 3985TIP3   OH233445   1.349   3.139  11.221 -0.1905 -0.0576  0.2767
 3985TIP3    H133446   1.405   3.165  11.293  0.4483  0.9293 -0.5389
 3985TIP3    H233447   1.317   3.222  11.184 -3.0085 -0.5626  1.2912
 3986TIP3   OH233448   2.996   4.233   6.367  0.2638 -0.2483 -0.3408
 3986TIP3    H133449   2.941   4.165   6.405  0.1307  0.5009  0.8986
 3986TIP3    H233450   2.935   4.288   6.318  0.2390 -0.5665 -0.6652
 3987TIP3   OH233451   1.938   5.190   2.313  0.1541  0.0764  0.1871
 3987TIP3    H133452   1.945   5.135   2.235  0.4996 -0.6844  0.7358
 3987TIP3    H233453   2.009   5.253   2.304  0.5858 -0.4025  0.1798
 3988TIP3   OH233454   6.578   5.503   4.743  0.6431 -0.1209  0.7122
 3988TIP3    H133455   6.571   5.412   4.772 -0.7709 -0.1457  0.3581
 3988TIP3    H233456   6.655   5.504   4.687  0.6454 -1.1139  0.6774
 3989TIP3   OH233457   5.296   1.056  15.996  0.2616  0.2419  0.8678
 3989TIP3    H133458   5.313   1.017  15.910  1.3368 -1.2797  1.7506
 3989TIP3    H233459   5.319   1.149  15.984  0.8744 -0.0399 -0.3418
 3990TIP3   OH233460   0.180   1.487   3.309  0.3219 -0.1030  0.3920
 3990TIP3    H133461   0.211   1.407   3.266 -0.1594 -0.8329  1.3582
 3990TIP3    H233462   0.144   1.540   3.238  1.6748 -0.2288 -0.4220
 3991TIP3   OH233463   1.316   6.385  15.333  0.1398  0.2695 -0.0346
 3991TIP3    H133464   1.235   6.434  15.318 -0.2356 -0.5248 -0.7049
 3991TIP3    H233465   1.371   6.445  15.383 -0.7405  0.9417  0.1683
 3992TIP3   OH233466   6.320   5.933  14.717 -0.1284 -0.0010 -0.1418
 3992TIP3    H133467   6.288   5.875  14.786 -0.3834  1.0249  0.6478
 3992TIP3    H233468   6.406   5.963  14.750 -0.5849  1.0845  0.1249
 3993TIP3   OH233469   2.458   2.946  15.061 -0.1949  0.1198  0.0516
 3993TIP3    H133470   2.383   3.004  15.048  0.2177  0.7061  0.2730
 3993TIP3    H233471   2.424   2.858  15.043 -0.5451  0.5312 -1.4280
 3994TIP3   OH233472   0.705   0.356  10.989  0.3011  0.0860 -0.3739
 3994TIP3    H133473   0.750   0.409  10.923  0.9045  0.8351  0.6058
 3994TIP3    H233474   0.696   0.414  11.065 -1.4826 -0.3537 -0.1945
 3995TIP3   OH233475   0.868   2.773   0.446 -0.4458  0.1545 -0.3495
 3995TIP3    H133476   0.791   2.754   0.391 -1.4433 -0.6771  1.2707
 3995TIP3    H233477   0.940   2.726   0.402 -1.5937 -2.0984  0.0026
 3996TIP3   OH233478   6.527   4.806   2.930  0.0411 -0.0477 -0.0519
 3996TIP3    H133479   6.463   4.774   2.866 -0.1238  0.5950 -0.2196
 3996TIP3    H233480   6.578   4.729   2.954  0.0006 -0.3330 -0.8463
 3997TIP3   OH233481   3.755   5.491  13.201 -0.1589  0.2032  0.3726
 3997TIP3    H133482   3.677   5.535  13.167  0.5949  0.7947 -0.6409
 3997TIP3    H233483   3.757   5.407  13.155  0.6795  0.8662 -0.8370
 3998TIP3   OH233484   3.189   0.062   1.568 -0.0901  0.2413  0.2632
 3998TIP3    H133485   3.143   0.137   1.605  1.0560  0.5229  1.1815
 3998TIP3    H233486   3.247   0.099   1.502 -1.0314 -0.0937 -0.7812
 3999TIP3   OH233487   5.519   1.342   4.503 -0.6470 -0.1664  0.0690
 3999TIP3    H133488   5.502   1.435   4.520  1.1025  0.9394 -3.3943
 3999TIP3    H233489   5.434   1.306   4.477 -0.6972  1.4971 -2.3260
 4000TIP3   OH233490   6.736   4.556   5.043  0.5050 -0.4328  0.2605
 4000TIP3    H133491   6.696   4.515   5.120  0.1935 -0.7851 -0.0823
 4000TIP3    H233492   6.752   4.484   4.983 -0.6181  0.0142 -0.6072
 4001TIP3   OH233493   0.884   4.586  11.472  0.4650  0.2342 -0.9365
 4001TIP3    H133494   0.894   4.682  11.476  0.7167  0.2044 -0.7985
 4001TIP3    H233495   0.954   4.558  11.413  0.3785  0.1363 -0.9926
 4002TIP3   OH233496   1.047   6.624   5.818 -0.4466  0.0810 -0.2870
 4002TIP3    H133497   1.141   6.622   5.801 -0.2587  0.3225  0.6633
 4002TIP3    H233498   1.025   6.717   5.822 -0.2708  0.0905  1.7149
 4003TIP3   OH233499   6.334   5.092  14.164 -0.2702  0.0393 -0.3681
 4003TIP3    H133500   6.269   5.069  14.231 -0.4832 -0.4243 -0.7287
 4003TIP3    H233501   6.283   5.107  14.085  0.0929 -0.7450 -0.7592
 4004TIP3   OH233502   5.975   1.033   3.831  0.8870  0.4091 -0.0087
 4004TIP3    H133503   5.994   0.939   3.824 -0.7963 -0.0213  0.5943
 4004TIP3    H233504   6.014   1.058   3.915  3.2147  0.8019 -1.1295
 4005TIP3   OH233505   5.567   0.367  11.150  0.2816 -0.0823 -0.3581
 4005TIP3    H133506   5.515   0.355  11.230  0.4338  0.7005 -0.1280
 4005TIP3    H233507   5.513   0.422  11.094  0.3773 -0.2292 -0.5940
 4006TIP3   OH233508   6.744   5.067   2.174 -0.2098 -0.1118 -0.4300
 4006TIP3    H133509   6.712   5.066   2.084  1.6345 -1.7307 -1.1389
 4006TIP3    H233510   6.665   5.061   2.228 -1.3000  0.1622 -1.9411
 4007TIP3   OH233511   6.344   1.183   5.110 -0.1546 -0.1415  0.2161
 4007TIP3    H133512   6.322   1.122   5.039 -1.3118 -0.5344  0.8835
 4007TIP3    H233513   6.261   1.197   5.155  0.2154  1.4655  0.4530
 4008TIP3   OH233514   2.212   2.141   4.289  0.0957  0.0148  0.8795
 4008TIP3    H133515   2.261   2.221   4.272  1.4182 -1.3144 -2.6159
 4008TIP3    H233516   2.121   2.164   4.272  0.5351  0.6898 -0.7685
 4009TIP3   OH233517   1.942   2.934  14.296 -0.0954 -0.3003 -0.3069
 4009TIP3    H133518   1.849   2.953  14.285 -0.0537  0.3348  0.3557
 4009TIP3    H233519   1.981   2.955  14.211  0.0252  3.1807  0.4623
 4010TIP3   OH233520   3.308   2.811   3.766 -0.3215 -0.4984  0.5085
 4010TIP3    H133521   3.214   2.819   3.753 -0.2527 -1.5099 -0.7969
 4010TIP3    H233522   3.318   2.756   3.844 -0.7919  0.4216  1.2299
 4011TIP3   OH233523   3.089   1.116   4.796  0.0841 -0.3495 -0.0699
 4011TIP3    H133524   3.170   1.123   4.847  0.3898 -1.1836 -0.4195
 4011TIP3    H233525   3.114   1.141   4.707 -0.8689  3.0177  0.4977
 4012TIP3   OH233526   3.420   5.113  16.360 -0.5020  0.0652  0.4210
 4012TIP3    H133527   3.465   5.128  16.277 -2.5947 -0.1276 -0.8206
 4012TIP3    H233528   3.420   5.018  16.370  0.5342  0.1240  1.1381
 4013TIP3   OH233529   1.869   2.123  16.569  0.6112  0.2966  0.4677
 4013TIP3    H133530   1.864   2.031  16.541 -0.1002  0.8629 -1.3544
 4013TIP3    H233531   1.781   2.142  16.601 -0.5129  1.4398 -2.9365
 4014TIP3   OH233532   0.213   6.206  13.487  0.3120  0.5357  0.0608
 4014TIP3    H133533   0.219   6.289  13.534 -1.2681  1.6523 -1.5310
 4014TIP3    H233534   0.227   6.231  13.395  0.0223 -0.9964 -0.4172
 4015TIP3   OH233535   3.345   0.948  16.806 -1.1058 -0.6175 -0.3670
 4015TIP3    H133536   3.255   0.971  16.828 -0.7321  1.8191 -1.0692
 4015TIP3    H233537   3.398   1.004  16.862 -0.0981  0.3152 -2.1654
 4016TIP3   OH233538   2.466   5.861   3.933  0.6792 -0.1043  0.0291
 4016TIP3    H133539   2.459   5.912   3.852 -0.8741  0.8642  0.7225
 4016TIP3    H233540   2.437   5.773   3.909  1.2912 -0.1181 -0.7012
 4017TIP3   OH233541   6.231   2.988   5.932  0.1192 -0.1922 -0.3962
 4017TIP3    H133542   6.158   2.950   5.981  0.8872 -1.4160 -0.1586
 4017TIP3    H233543   6.196   3.001   5.844 -1.3234  2.1456  0.4121
 4018TIP3   OH233544   3.462   2.287  14.366 -0.6424  0.7154  0.3597
 4018TIP3    H133545   3.405   2.357  14.334 -3.3151 -0.8275  1.3301
 4018TIP3    H233546   3.489   2.316  14.453  0.1512  1.4992 -0.1406
 4019TIP3   OH233547   0.319   0.041  15.032 -0.1579  0.1803  0.7988
 4019TIP3    H133548   0.299   0.079  15.118 -2.3045  0.2002  0.3488
 4019TIP3    H233549   0.257  -0.031  15.023 -1.2873  1.3376 -1.4747
 4020TIP3   OH233550   3.575   2.497  10.579  0.6984 -0.3578  0.1302
 4020TIP3    H133551   3.653   2.499  10.522  0.6178 -0.5760  0.0103
 4020TIP3    H233552   3.519   2.566  10.545 -0.6363 -2.3223 -1.9159
 4021TIP3   OH233553   3.315   0.313   0.028  0.0446 -0.3497  0.0248
 4021TIP3    H133554   3.268   0.324   0.111  0.0201 -3.4336  0.5212
 4021TIP3    H233555   3.248   0.285  -0.034  0.6649 -1.7269 -0.0538
 4022TIP3   OH233556   3.002   0.657   2.267 -0.1931 -0.1575 -0.2380
 4022TIP3    H133557   2.950   0.647   2.347  0.6586 -2.3476  0.1198
 4022TIP3    H233558   3.052   0.737   2.281 -1.4063  0.4894  0.6038
 4023TIP3   OH233559   6.141   4.665  14.933  0.4108 -0.0137  0.2915
 4023TIP3    H133560   6.177   4.750  14.956 -1.6717  1.2052 -0.6577
 4023TIP3    H233561   6.151   4.612  15.012  2.0990  0.9589  0.7743
 4024TIP3   OH233562   4.623   3.060  17.085 -0.0961 -0.4203  0.0614
 4024TIP3    H133563   4.712   3.034  17.061  0.0955  0.8086 -0.6831
 4024TIP3    H233564   4.634   3.145  17.129 -0.8066 -0.7955  0.9923
 4025TIP3   OH233565   2.852   6.540  11.203  0.6138 -0.2041  0.1308
 4025TIP3    H133566   2.926   6.597  11.187 -1.1802  2.0091 -0.7980
 4025TIP3    H233567   2.825   6.509  11.117  0.9631 -1.7154  0.5382
 4026TIP3   OH233568   0.520   5.840  15.973  0.4661  0.2709 -0.0323
 4026TIP3    H133569   0.461   5.771  16.003  0.4814 -0.3433 -1.3498
 4026TIP3    H233570   0.463   5.912  15.947  0.3449  0.0364 -0.4186
 4027TIP3   OH233571   1.571   2.038   2.674 -0.3724  0.6728  0.1319
 4027TIP3    H133572   1.477   2.023   2.690 -0.1466 -0.2455  0.6819
 4027TIP3    H233573   1.612   1.954   2.692  0.6506  1.2583  0.6248
 4028TIP3   OH233574   5.676   1.040  14.740  0.2690  0.4188  0.2909
 4028TIP3    H133575   5.676   1.043  14.835  1.9669 -0.5901  0.3648
 4028TIP3    H233576   5.710   1.125  14.713  0.7990  0.3183  0.6305
 4029TIP3   OH233577   5.867   2.879  13.683  0.5644  0.2402 -0.2038
 4029TIP3    H133578   5.833   2.801  13.727  1.3861 -0.1259 -0.2023
 4029TIP3    H233579   5.796   2.906  13.625  0.1653 -0.3425 -0.0010
 4030TIP3   OH233580   5.584   3.401  16.148  0.0315  1.1158 -0.4487
 4030TIP3    H133581   5.573   3.340  16.076  1.2645  0.3321  0.0028
 4030TIP3    H233582   5.521   3.372  16.214 -0.1764  1.0368 -0.6802
 4031TIP3   OH233583   2.765   5.679   3.342  0.4597 -0.5975  0.5757
 4031TIP3    H133584   2.681   5.704   3.303  0.2208  1.8908  2.4021
 4031TIP3    H233585   2.829   5.692   3.272 -0.3145  0.5048  0.0442
 4032TIP3   OH233586   1.921   6.773   0.971  0.0082  0.4879 -0.4027
 4032TIP3    H133587   1.886   6.853   1.009 -3.1895 -1.0655  0.3097
 4032TIP3    H233588   1.844   6.723   0.944  1.9309 -1.1627 -3.4786
 4033TIP3   OH233589   5.187   4.425  15.158 -0.1115 -0.3009  0.6724
 4033TIP3    H133590   5.136   4.430  15.239  0.6535  2.1759  1.0690
 4033TIP3    H233591   5.271   4.464  15.180  0.6153 -0.8499 -0.9749
 4034TIP3   OH233592   6.039   5.440  14.933  0.3916  0.0859  0.0315
 4034TIP3    H133593   6.013   5.487  15.012  1.7830 -0.5991  0.9395
 4034TIP3    H233594   6.023   5.348  14.953 -0.8546  0.0150 -1.1539
 4035TIP3   OH233595   6.380   1.820  15.236  0.4288  0.5021  0.0799
 4035TIP3    H133596   6.349   1.833  15.325 -0.6291  1.2150 -0.3695
 4035TIP3    H233597   6.312   1.767  15.195  0.3989  1.0437 -0.5887
 4036TIP3   OH233598   0.935   5.042   2.066 -0.6136  0.4994 -0.8293
 4036TIP3    H133599   0.977   5.074   2.146 -1.2932  2.1481 -1.0782
 4036TIP3    H233600   0.978   5.090   1.995 -0.2655 -0.6766 -1.4343
 4037TIP3   OH233601   2.442   6.351  14.444 -0.2161 -0.2438 -0.2816
 4037TIP3    H133602   2.356   6.391  14.433 -0.2524 -0.0208  0.6917
 4037TIP3    H233603   2.503   6.423  14.427 -0.2262 -0.3663 -0.8332
 4038TIP3   OH233604   6.753   0.419   6.163  0.5906  0.6607 -0.1367
 4038TIP3    H133605   6.841   0.424   6.200  0.7824  0.6606 -0.5885
 4038TIP3    H233606   6.757   0.348   6.099  0.4663  1.1493 -0.6980
 4039TIP3   OH233607   6.564   2.523   3.718 -0.1342 -0.4609 -0.1971
 4039TIP3    H133608   6.600   2.467   3.786 -0.1260 -0.2757 -0.0457
 4039TIP3    H233609   6.552   2.466   3.643  0.8748 -0.4394 -0.3906
 4040TIP3   OH233610   4.285   5.629  12.191 -0.4681 -0.1846 -0.1303
 4040TIP3    H133611   4.311   5.625  12.283 -0.4040 -0.2619 -0.1524
 4040TIP3    H233612   4.227   5.706  12.187 -1.0278 -0.5807  0.1110
 4041TIP3   OH233613   1.781   4.292   1.229 -0.0247 -0.4883 -0.8382
 4041TIP3    H133614   1.873   4.305   1.250  0.0202  0.6953 -1.7092
 4041TIP3    H233615   1.782   4.231   1.154  0.0998  0.1609 -1.3738
 4042TIP3   OH233616   6.156   4.494  14.110 -0.1101 -0.1500 -0.6292
 4042TIP3    H133617   6.122   4.469  14.024  0.6575 -1.3738 -0.6100
 4042TIP3    H233618   6.223   4.560  14.090 -0.8028  0.4965 -0.8565
 4043TIP3   OH233619   4.953   2.079   3.448 -0.3942  0.0330 -0.1634
 4043TIP3    H133620   4.981   1.997   3.490 -1.9191 -0.3587  0.1605
 4043TIP3    H233621   4.979   2.147   3.510 -2.9563 -0.5548  1.7361
 4044TIP3   OH233622   3.587   5.505  14.475 -0.0070 -0.0961  0.5082
 4044TIP3    H133623   3.540   5.579  14.437  0.8722 -0.2042 -0.8411
 4044TIP3    H233624   3.605   5.532  14.566  0.3548  1.3693  0.0234
 4045TIP3   OH233625   6.540   3.832   2.685 -0.4515  0.8315 -0.0170
 4045TIP3    H133626   6.493   3.824   2.768 -1.6210  0.7821 -0.6673
 4045TIP3    H233627   6.551   3.926   2.672 -2.9879  1.0129 -1.2626
 4046TIP3   OH233628   3.547   2.230  12.339  0.5932 -0.3347 -0.3191
 4046TIP3    H133629   3.630   2.224  12.386  0.5268  0.0168 -0.1541
 4046TIP3    H233630   3.530   2.324  12.331 -0.5986 -0.3696  1.1086
 4047TIP3   OH233631   1.876   0.707  12.314  0.3458 -0.2374  0.0590
 4047TIP3    H133632   1.787   0.685  12.285  0.7797 -0.5451 -1.1251
 4047TIP3    H233633   1.921   0.623  12.316  0.6564 -0.0597  0.4941
 4048TIP3   OH233634   6.029   2.172  12.704 -0.1587 -0.6785  0.5821
 4048TIP3    H133635   5.937   2.195  12.693  0.4813  1.3701 -1.3607
 4048TIP3    H233636   6.065   2.244  12.756  0.3139 -1.5914  1.5435
 4049TIP3   OH233637   2.998   1.303  15.820 -0.9309 -0.4680 -0.0184
 4049TIP3    H133638   2.988   1.392  15.785 -0.5124 -0.1806  0.5653
 4049TIP3    H233639   2.991   1.246  15.744 -1.4379  0.0494 -0.3712
 4050TIP3   OH233640   4.764   3.896   0.107  0.5852 -0.0280  0.8734
 4050TIP3    H133641   4.746   3.990   0.103  0.6989 -0.0462 -1.9297
 4050TIP3    H233642   4.685   3.855   0.072  2.4841 -0.5581 -3.3639
 4051TIP3   OH233643   1.696   6.144   2.749  0.3617  0.0813 -0.2155
 4051TIP3    H133644   1.639   6.144   2.671  1.9057  0.7137 -1.3846
 4051TIP3    H233645   1.728   6.054   2.754 -0.7346 -0.2885  0.4710
 4052TIP3   OH233646   0.355   5.748  14.119 -0.0324 -0.2402 -0.2504
 4052TIP3    H133647   0.342   5.816  14.054  1.4685  2.3137  1.8955
 4052TIP3    H233648   0.434   5.702  14.091  1.4308  1.7618  0.3536
 4053TIP3   OH233649   4.795   3.738  15.221  0.5450  0.4259  0.4102
 4053TIP3    H133650   4.776   3.746  15.315 -1.0267  1.9150  0.0188
 4053TIP3    H233651   4.748   3.811  15.181  1.3107 -0.0912 -1.5396
 4054TIP3   OH233652   4.918   2.949   2.325 -0.0335 -0.3041 -0.4945
 4054TIP3    H133653   4.863   2.872   2.314  0.7890 -0.6748 -2.6941
 4054TIP3    H233654   4.869   3.020   2.282  0.1377 -0.0804 -0.3230
 4055TIP3   OH233655   4.155   3.868  12.707  0.2998 -0.3357 -0.0131
 4055TIP3    H133656   4.247   3.848  12.725  0.8512 -0.8357 -2.9499
 4055TIP3    H233657   4.111   3.783  12.706  0.3540 -0.3592 -1.2334
 4056TIP3   OH233658   2.757   3.305   5.921  0.5070 -0.8957  0.2134
 4056TIP3    H133659   2.758   3.377   5.984 -0.0290 -1.5112  0.9549
 4056TIP3    H233660   2.806   3.235   5.964  0.6074 -1.1391 -0.2941
 4057TIP3   OH233661   2.835   3.265   4.624 -0.3800  0.2956 -0.0088
 4057TIP3    H133662   2.819   3.171   4.611 -2.5099  0.7610 -1.2319
 4057TIP3    H233663   2.840   3.276   4.718 -0.4991 -1.0165  0.1647
 4058TIP3   OH233664   6.345   0.642  13.789 -0.3455 -0.1470 -0.7545
 4058TIP3    H133665   6.268   0.589  13.766 -0.6726  0.0589 -0.1628
 4058TIP3    H233666   6.363   0.618  13.880  1.3921 -1.5358 -1.4023
 4059TIP3   OH233667   1.224   2.762  14.855 -0.7650  0.0754 -0.2536
 4059TIP3    H133668   1.238   2.850  14.820  0.7115 -0.2073 -0.4630
 4059TIP3    H233669   1.184   2.714  14.783  0.1621  0.1046 -0.8146
 4060TIP3   OH233670   2.017   1.193   5.455 -0.1812 -0.2828 -0.0261
 4060TIP3    H133671   2.072   1.125   5.416  1.3238  1.0453 -0.3397
 4060TIP3    H233672   2.020   1.265   5.392 -3.4482 -0.5949 -0.7182
 4061TIP3   OH233673   3.841   0.298  14.971  0.3219  0.1476  0.1442
 4061TIP3    H133674   3.760   0.337  15.005  0.2807 -0.6459  0.9901
 4061TIP3    H233675   3.827   0.290  14.877 -0.8905 -0.7090  0.3893
 4062TIP3   OH233676   3.650   1.751  11.374  0.0809 -0.6401 -0.4676
 4062TIP3    H133677   3.622   1.796  11.454 -3.5896 -2.6202 -0.4272
 4062TIP3    H233678   3.626   1.811  11.304 -2.9478 -1.5019 -0.3113
 4063TIP3   OH233679   3.378   3.836  12.511 -0.1805 -0.0582 -0.4668
 4063TIP3    H133680   3.370   3.762  12.571 -0.5651 -0.3947 -0.9234
 4063TIP3    H233681   3.421   3.904  12.562 -0.1536 -0.4734  0.0699
 4064TIP3   OH233682   2.681   0.019  14.015  0.6066  0.1530 -0.2699
 4064TIP3    H133683   2.692   0.026  14.109  1.1340 -2.9784  0.0008
 4064TIP3    H233684   2.705  -0.071  13.994 -1.1612  0.2045 -3.1553
 4065TIP3   OH233685   1.275   6.761  11.774 -0.0849 -0.6655  0.0140
 4065TIP3    H133686   1.231   6.677  11.762 -1.6791  0.3087 -1.4863
 4065TIP3    H233687   1.368   6.740  11.771 -0.4412 -2.2899 -1.1994
 4066TIP3   OH233688   0.704   1.960   3.159 -0.4579 -0.2274 -0.1021
 4066TIP3    H133689   0.705   1.890   3.094  0.8816  0.2102 -0.5882
 4066TIP3    H233690   0.780   1.942   3.215 -0.7121  0.2560  0.4150
 4067TIP3   OH233691   5.218   0.048  12.472 -0.6883 -0.4051  0.2578
 4067TIP3    H133692   5.222  -0.031  12.418  0.4763 -0.6812  0.7264
 4067TIP3    H233693   5.147   0.030  12.534  1.9629 -2.8391  2.9359
 4068TIP3   OH233694   5.710   3.971   3.733  0.3515  0.1121 -0.5566
 4068TIP3    H133695   5.731   4.064   3.732 -0.2234  0.2928  0.9793
 4068TIP3    H233696   5.741   3.940   3.818  0.6144 -1.1278 -1.0780
 4069TIP3   OH233697   2.966   5.532  12.843 -0.0809  0.2288  0.4409
 4069TIP3    H133698   2.998   5.442  12.849 -0.2624  0.1982  1.0770
 4069TIP3    H233699   2.893   5.535  12.905 -0.4640  0.6541 -0.0256
 4070TIP3   OH233700   4.301   2.802  15.118  0.2895  0.0343 -0.2271
 4070TIP3    H133701   4.236   2.767  15.178 -0.3591  3.4837  1.3145
 4070TIP3    H233702   4.252   2.858  15.058  1.2040 -1.7440 -2.8491
 4071TIP3   OH233703   3.983   6.152   0.108 -0.4738 -0.2062 -0.9371
 4071TIP3    H133704   3.932   6.101   0.044 -2.0876 -0.2117  0.2929
 4071TIP3    H233705   3.990   6.094   0.184  0.0759  0.3897 -0.5295
 4072TIP3   OH233706   5.677   1.808   5.441 -0.3438  0.8807  0.2159
 4072TIP3    H133707   5.650   1.803   5.349 -0.5079 -0.3373  0.3119
 4072TIP3    H233708   5.602   1.847   5.486 -0.4936  0.9474 -0.0881
 4073TIP3   OH233709   3.668   6.681   0.725  0.2521 -0.0949  0.3138
 4073TIP3    H133710   3.681   6.650   0.815  0.8985  1.4170  0.7741
 4073TIP3    H233711   3.705   6.612   0.670  2.9257  0.4058  1.3254
 4074TIP3   OH233712   1.736   6.460  16.946 -0.2407 -0.6543  0.4489
 4074TIP3    H133713   1.690   6.542  16.962  0.3615 -0.6508  2.4058
 4074TIP3    H233714   1.773   6.436  17.031  2.8174 -0.9879 -0.8497
 4075TIP3   OH233715   5.110   3.604  14.857 -0.1689  0.1994 -0.3390
 4075TIP3    H133716   5.022   3.641  14.859 -0.4473 -0.4578 -0.2664
 4075TIP3    H233717   5.122   3.566  14.944  0.5666  1.1315 -0.0093
 4076TIP3   OH233718   1.896   1.766   6.072  0.2238 -0.0057  0.2667
 4076TIP3    H133719   1.897   1.674   6.044 -0.8724 -0.2037  0.8010
 4076TIP3    H233720   1.972   1.775   6.129 -0.9712 -1.2730  2.1990
 4077TIP3   OH233721   2.496   4.537   1.516  0.2484  0.6339 -0.4295
 4077TIP3    H133722   2.449   4.454   1.528 -0.1052  0.3698 -3.0625
 4077TIP3    H233723   2.430   4.604   1.531 -0.0464  0.3755 -0.5687
 4078TIP3   OH233724   1.710   6.013  16.817  0.2698 -0.2337 -0.0100
 4078TIP3    H133725   1.687   6.042  16.729 -1.0420 -1.2518 -0.0374
 4078TIP3    H233726   1.762   5.934  16.804  0.1980 -0.3025  0.1160
 4079TIP3   OH233727   3.835   2.867   1.564  0.4195 -0.0239  0.4461
 4079TIP3    H133728   3.901   2.820   1.616 -1.3456 -2.0988  0.9730
 4079TIP3    H233729   3.751   2.836   1.598 -0.8381  1.0034 -1.5161
 4080TIP3   OH233730   3.903   3.487  16.790 -0.4183  0.0744  0.2756
 4080TIP3    H133731   3.968   3.449  16.730 -0.3104  0.0863  0.3847
 4080TIP3    H233732   3.936   3.467  16.877  0.4351  1.7092  0.3639
 4081TIP3   OH233733   2.945   6.649   0.230  0.6285  0.1385 -0.0764
 4081TIP3    H133734   2.959   6.743   0.243  0.7780 -0.0255  1.0953
 4081TIP3    H233735   2.959   6.635   0.137  0.0574  1.3701 -0.3738
 4082TIP3   OH233736   1.126   6.570   4.196 -0.1539  0.3685  0.1287
 4082TIP3    H133737   1.181   6.500   4.231  0.0293  1.3990  2.0235
 4082TIP3    H233738   1.062   6.525   4.140 -1.1063 -1.5541  2.5770
 4083TIP3   OH233739   4.188   2.877   6.422 -0.2979  0.2424 -0.0552
 4083TIP3    H133740   4.272   2.909   6.455 -0.3887  0.0728  0.3400
 4083TIP3    H233741   4.126   2.948   6.442 -0.0731  0.8022 -1.2360
 4084TIP3   OH233742   6.603   2.124   0.908 -0.0868  0.1992 -0.1093
 4084TIP3    H133743   6.674   2.165   0.859  0.2188 -1.0648 -0.7357
 4084TIP3    H233744   6.586   2.042   0.863 -1.2912  0.0274  0.6161
 4085TIP3   OH233745   5.503   4.481   2.460 -0.1918  0.6575  0.0265
 4085TIP3    H133746   5.459   4.397   2.474  0.4224 -0.4796 -3.6955
 4085TIP3    H233747   5.432   4.545   2.456 -0.9223 -0.1199  0.2663
 4086TIP3   OH233748   2.307   2.860   2.824  0.8530 -0.1812 -0.3212
 4086TIP3    H133749   2.247   2.819   2.887  0.1011 -5.5354 -3.8734
 4086TIP3    H233750   2.385   2.881   2.875 -1.7278  1.5148  3.3396
 4087TIP3   OH233751   2.932   4.464  13.056  0.4612  0.2839 -0.6598
 4087TIP3    H133752   2.898   4.516  12.983  0.2383 -1.9062 -2.1925
 4087TIP3    H233753   2.859   4.409  13.083  1.4513 -1.2522 -0.9911
 4088TIP3   OH233754   4.554   0.662  15.379 -0.0387 -0.2053 -0.3466
 4088TIP3    H133755   4.562   0.647  15.285 -0.8175 -2.1306 -0.1444
 4088TIP3    H233756   4.613   0.736  15.397  0.8774 -0.4504 -2.1630
 4089TIP3   OH233757   0.298   0.109  11.628 -0.4911 -0.0632 -0.0833
 4089TIP3    H133758   0.261   0.139  11.545 -0.0543  0.3674 -0.1296
 4089TIP3    H233759   0.236   0.044  11.661 -0.0263 -1.2394 -1.4047
 4090TIP3   OH233760   3.235   4.632  13.867  0.5764  0.1791  0.4221
 4090TIP3    H133761   3.260   4.718  13.834  0.1770  0.2398  0.2718
 4090TIP3    H233762   3.309   4.575  13.847  0.0667  0.0553 -1.2222
 4091TIP3   OH233763   2.603   2.862  14.821  0.4501  0.2211  0.2529
 4091TIP3    H133764   2.621   2.926  14.890  1.1838 -1.9548  2.1926
 4091TIP3    H233765   2.511   2.837  14.835  0.9459 -1.1325  1.3186
 4092TIP3   OH233766   2.253   4.502  11.131  0.0168 -0.5190 -0.4003
 4092TIP3    H133767   2.293   4.418  11.149  2.1588  0.5314  0.0655
 4092TIP3    H233768   2.159   4.484  11.128  0.4458 -3.0044 -0.9551
 4093TIP3   OH233769   1.838   0.185   1.544  0.0550  0.9826 -0.2508
 4093TIP3    H133770   1.860   0.260   1.599  1.9721  0.7893 -0.6794
 4093TIP3    H233771   1.920   0.163   1.499 -0.4748 -1.2807 -0.2440
 4094TIP3   OH233772   4.831   4.328  14.616 -0.3078  0.4182 -0.1776
 4094TIP3    H133773   4.850   4.386  14.542 -1.0569 -0.5287 -1.1540
 4094TIP3    H233774   4.814   4.243  14.575 -0.5432 -0.1719  1.1126
 4095TIP3   OH233775   5.413   6.762   4.877 -0.3084 -0.2927  0.1435
 4095TIP3    H133776   5.409   6.724   4.965 -1.9866  0.7966  0.5761
 4095TIP3    H233777   5.323   6.761   4.846 -0.2730  2.3025 -0.2451
 4096TIP3   OH233778   3.715   3.729   0.697  0.5742 -0.7110  0.1832
 4096TIP3    H133779   3.673   3.692   0.619 -0.6646 -0.9245  0.9285
 4096TIP3    H233780   3.654   3.710   0.768  2.1372 -1.3846  1.3870
 4097TIP3   OH233781   4.514   1.738  12.969  0.4616 -0.8554 -0.0250
 4097TIP3    H133782   4.542   1.788  13.045  0.5465 -1.0529  0.0738
 4097TIP3    H233783   4.480   1.656  13.004  2.1871 -1.7206 -0.3027
 4098TIP3   OH233784   4.167   4.023   2.082  0.1071 -0.2304  0.0385
 4098TIP3    H133785   4.144   3.978   2.164 -0.4509  0.3210  0.1936
 4098TIP3    H233786   4.092   4.080   2.065  0.2915 -0.2182 -0.7742
 4099TIP3   OH233787   3.490   2.324  10.792  0.2102 -0.1997  0.5243
 4099TIP3    H133788   3.410   2.363  10.828  2.3780  1.8307  3.5940
 4099TIP3    H233789   3.507   2.374  10.712  0.0298  1.5082  1.5115
 4100TIP3   OH233790   5.788   6.242  16.258 -0.4803  0.1551  0.3137
 4100TIP3    H133791   5.870   6.259  16.211 -0.4139 -0.0815  0.3419
 4100TIP3    H233792   5.729   6.206  16.191  0.2219 -2.0136  0.7769
 4101TIP3   OH233793   1.148   2.919  12.224  0.3199  0.1605  0.2466
 4101TIP3    H133794   1.083   2.850  12.239 -1.1768  0.9564 -1.9230
 4101TIP3    H233795   1.095   2.999  12.217  1.4794  0.8036 -1.8319
 4102TIP3   OH233796   0.248   3.998   2.833  0.2700 -0.1400 -0.4258
 4102TIP3    H133797   0.190   4.073   2.819  1.1108  0.3293 -1.5671
 4102TIP3    H233798   0.336   4.033   2.816  1.1544 -0.3380  3.0332
 4103TIP3   OH233799   5.418   4.099  14.897 -0.5722 -0.0267 -0.3156
 4103TIP3    H133800   5.477   4.119  14.969 -0.1275  0.9545 -0.9294
 4103TIP3    H233801   5.370   4.180  14.882 -1.1441 -0.4237 -0.6867
 4104TIP3   OH233802   4.757   2.198  12.495 -0.1386 -0.3511 -0.1200
 4104TIP3    H133803   4.775   2.202  12.589 -0.2330  1.7419 -0.1333
 4104TIP3    H233804   4.815   2.129  12.463 -0.4680 -1.4463  1.5340
 4105TIP3   OH233805   1.474   1.834  15.901  0.0205 -0.3020 -0.2819
 4105TIP3    H133806   1.519   1.819  15.984 -0.2868  0.0478 -0.0431
 4105TIP3    H233807   1.537   1.880  15.846  0.6116 -1.5167 -0.6532
 4106TIP3   OH233808   3.566   3.648   5.370  0.2003 -0.0923  0.6462
 4106TIP3    H133809   3.509   3.675   5.442  1.5654 -0.4857  1.9299
 4106TIP3    H233810   3.654   3.670   5.400  0.8546 -0.8154 -0.6586
 4107TIP3   OH233811   3.152   6.392   4.531  0.1131 -0.0045 -0.2227
 4107TIP3    H133812   3.071   6.393   4.581  0.9470 -0.9704  1.2257
 4107TIP3    H233813   3.170   6.299   4.516  1.1846  0.1708 -0.0959
 4108TIP3   OH233814   3.306   1.008  12.377 -0.1706 -0.2092  0.6626
 4108TIP3    H133815   3.289   0.914  12.369  0.3971 -0.2856  0.2483
 4108TIP3    H233816   3.249   1.048  12.311 -0.0442 -0.3132  0.4867
 4109TIP3   OH233817   3.115   1.057   4.223  0.0725 -0.2085  0.1877
 4109TIP3    H133818   3.189   1.044   4.283 -0.7501  0.6958  1.4383
 4109TIP3    H233819   3.153   1.048   4.136  1.7324  0.5758  0.7958
 4110TIP3   OH233820   1.702   0.590   4.772  0.8535  0.3269  0.5687
 4110TIP3    H133821   1.730   0.542   4.694  1.4498  0.7926  0.4894
 4110TIP3    H233822   1.644   0.658   4.737  1.9236  1.1845  0.3937
 4111TIP3   OH233823   6.659   3.959  12.381 -0.3482  0.2693 -0.5360
 4111TIP3    H133824   6.700   3.901  12.444 -0.4843  0.7411 -0.0116
 4111TIP3    H233825   6.731   4.014  12.348 -0.5099  0.9675  0.2431
 4112TIP3   OH233826   3.001   5.821   0.658  0.0390 -0.3263 -0.1706
 4112TIP3    H133827   2.951   5.792   0.735 -1.1239 -2.0271 -1.4778
 4112TIP3    H233828   2.965   5.770   0.585  0.8378  1.4879 -1.9422
 4113TIP3   OH233829   2.952   0.215  11.683  0.4402 -0.1976  0.4162
 4113TIP3    H133830   2.895   0.276  11.637 -0.3168 -1.1097  0.1069
 4113TIP3    H233831   2.948   0.242  11.774 -0.6811 -0.3772  0.4347
 4114TIP3   OH233832   2.489   1.746  15.094 -0.0408 -0.2175 -0.8738
 4114TIP3    H133833   2.468   1.712  15.007  0.2608 -0.7707 -0.7380
 4114TIP3    H233834   2.551   1.682  15.130 -0.3115 -0.0963 -0.1812
 4115TIP3   OH233835   6.166   2.334  13.948  0.2526 -0.1605 -0.0364
 4115TIP3    H133836   6.173   2.420  13.989 -1.5041 -0.6824  1.5029
 4115TIP3    H233837   6.076   2.306  13.967  1.0515 -2.7207  0.3021
 4116TIP3   OH233838   5.331   0.174   2.786 -0.3761  0.2959  0.6887
 4116TIP3    H133839   5.395   0.182   2.715 -1.6345  0.3547 -0.4980
 4116TIP3    H233840   5.279   0.255   2.780 -2.4371 -1.0027 -0.3537
 4117TIP3   OH233841   0.644   6.049   2.032  0.2997  0.5350  0.2673
 4117TIP3    H133842   0.615   6.000   1.955 -2.0420  1.6333  0.3614
 4117TIP3    H233843   0.617   5.994   2.106  0.2084  0.6750  0.3367
 4118TIP3   OH233844   6.302   3.694  13.022  0.1540 -0.5950 -0.0528
 4118TIP3    H133845   6.251   3.615  13.041 -0.4436 -0.0858  0.5150
 4118TIP3    H233846   6.236   3.762  13.006  0.6488  0.1051  0.7973
 4119TIP3   OH233847   1.635   5.959   6.039 -0.1458 -0.2027 -0.0062
 4119TIP3    H133848   1.712   5.907   6.063 -0.7378 -1.3644 -0.5374
 4119TIP3    H233849   1.631   6.027   6.105  1.5861  0.1511 -0.1956
 4120TIP3   OH233850   2.962   1.213  15.563 -0.2637  0.4769  0.7890
 4120TIP3    H133851   3.020   1.261  15.505  1.1751 -2.5502 -0.5037
 4120TIP3    H233852   2.875   1.226  15.526  0.0052  2.3280  0.7341
 4121TIP3   OH233853   2.917   3.844   1.834  0.5777  0.0229  0.4681
 4121TIP3    H133854   2.884   3.901   1.904  0.1835  0.0278  0.2836
 4121TIP3    H233855   2.838   3.815   1.789  0.5743 -2.4153  1.8954
 4122TIP3   OH233856   4.176   5.353   1.313 -0.6166 -0.0220  0.1291
 4122TIP3    H133857   4.169   5.447   1.300 -2.5071 -0.0503  0.7095
 4122TIP3    H233858   4.098   5.317   1.272 -1.5065 -1.0227  2.4978
 4123TIP3   OH233859   4.761   4.756   3.279  0.1487 -0.1497 -0.4816
 4123TIP3    H133860   4.765   4.764   3.374 -0.1919 -0.9709 -0.3951
 4123TIP3    H233861   4.809   4.832   3.247  1.0098 -0.3343  0.3506
 4124TIP3   OH233862   1.533   1.976   1.426  0.4139 -0.2513 -0.0159
 4124TIP3    H133863   1.562   1.887   1.408  0.7288 -0.6285  2.0976
 4124TIP3    H233864   1.589   2.006   1.499  1.1954  2.1528 -1.4695
 4125TIP3   OH233865   2.393   4.618  12.354 -0.1586 -0.0698 -0.0219
 4125TIP3    H133866   2.464   4.597  12.415  1.4351  0.4643 -1.5984
 4125TIP3    H233867   2.372   4.710  12.374 -0.4061 -0.2208  0.4312
 4126TIP3   OH233868   4.477   6.091  14.903 -0.1005 -0.6116 -0.3425
 4126TIP3    H133869   4.474   6.170  14.850 -1.3958 -0.9765 -0.8564
 4126TIP3    H233870   4.447   6.021  14.844  3.2478 -1.9720 -0.6623
 4127TIP3   OH233871   4.339   0.732  11.458 -0.0950 -0.2104 -0.3701
 4127TIP3    H133872   4.390   0.654  11.480 -1.6134 -2.1105 -2.9639
 4127TIP3    H233873   4.395   0.782  11.399  0.5955  0.3372  0.7133
 4128TIP3   OH233874   5.380   3.469  11.837  0.4388 -0.3405  0.3260
 4128TIP3    H133875   5.405   3.470  11.745 -2.0923  0.0765 -0.4246
 4128TIP3    H233876   5.402   3.557  11.868 -1.7997  0.7574 -0.8929
 4129TIP3   OH233877   0.617   0.631  14.212  0.6661  0.1558 -0.0979
 4129TIP3    H133878   0.524   0.629  14.190  0.8365  0.9691 -0.9984
 4129TIP3    H233879   0.656   0.686  14.144  1.8103 -0.1926  0.2529
 4130TIP3   OH233880   4.428   2.573  15.795  0.5398  0.0943 -0.0359
 4130TIP3    H133881   4.390   2.491  15.827 -1.0147  0.5881 -0.5105
 4130TIP3    H233882   4.357   2.614  15.745  1.4728  1.4602 -0.2941
 4131TIP3   OH233883   2.532   1.101  14.487  0.8222 -0.0599  0.6021
 4131TIP3    H133884   2.471   1.035  14.455  1.3505 -0.5597  0.5954
 4131TIP3    H233885   2.600   1.051  14.532  1.8716  0.3755 -0.4355
 4132TIP3   OH233886   2.361   6.654   3.119  0.1263  0.6120 -0.1697
 4132TIP3    H133887   2.314   6.678   3.199 -0.8636 -0.6031 -0.3573
 4132TIP3    H233888   2.373   6.559   3.126 -0.2532  0.4348 -1.5965
 4133TIP3   OH233889   4.241   0.093  13.926  0.2885  0.2412 -0.5980
 4133TIP3    H133890   4.238   0.080  14.021  0.1814 -1.6863 -0.8260
 4133TIP3    H233891   4.259   0.186  13.915  1.8737  0.2240  1.3188
 4134TIP3   OH233892   5.672   4.475  13.322  0.0298 -0.2889  0.2793
 4134TIP3    H133893   5.591   4.453  13.275 -0.3195  1.8866 -0.2504
 4134TIP3    H233894   5.647   4.472  13.414 -0.7253  0.4808  0.1183
 4135TIP3   OH233895   3.818   3.104   5.713  0.1355 -0.4027  0.0473
 4135TIP3    H133896   3.827   3.009   5.720 -2.4053 -0.7707 -0.7766
 4135TIP3    H233897   3.724   3.120   5.711  0.4268  1.8893 -2.4697
 4136TIP3   OH233898   0.692   1.711   1.785  0.7077  0.6290 -0.0956
 4136TIP3    H133899   0.639   1.737   1.710  2.2925  0.3948 -1.3326
 4136TIP3    H233900   0.632   1.661   1.840 -0.7161  1.5599 -0.7433
 4137TIP3   OH233901   3.161   1.704   3.135  0.3312  0.5176  0.4895
 4137TIP3    H133902   3.238   1.753   3.108  0.7617  0.1513  1.0215
 4137TIP3    H233903   3.098   1.715   3.063  0.6320  1.3550  0.3503
 4138TIP3   OH233904   2.513   1.479   3.769 -0.0196  0.7003  0.0172
 4138TIP3    H133905   2.466   1.408   3.812 -0.2751  1.8744  1.8008
 4138TIP3    H233906   2.451   1.552   3.768  0.9387  1.5497  0.2293
 4139TIP3   OH233907   5.905   2.793   4.362 -0.6885 -0.1401  0.2120
 4139TIP3    H133908   5.923   2.826   4.450  0.4548 -0.6689  0.1851
 4139TIP3    H233909   5.847   2.718   4.375 -1.9141  0.8097  0.3842
 4140TIP3   OH233910   4.205   4.776  15.569 -0.3473  0.2917  0.4564
 4140TIP3    H133911   4.233   4.685  15.570  0.5103  0.5048 -0.8445
 4140TIP3    H233912   4.174   4.790  15.479  1.3439  1.7593  0.0283
 4141TIP3   OH233913   4.674   2.398  16.078  0.2220  0.1843 -0.2617
 4141TIP3    H133914   4.636   2.317  16.043 -0.5481  0.3729  0.1101
 4141TIP3    H233915   4.651   2.397  16.170 -0.5543  1.2431 -0.4235
 4142TIP3   OH233916   1.962   2.389  16.820  0.7041  0.4005 -0.3323
 4142TIP3    H133917   2.023   2.447  16.865 -0.1747 -2.1356  4.8574
 4142TIP3    H233918   1.880   2.437  16.819  0.7922  0.6038  0.7663
 4143TIP3   OH233919   3.121   6.348  12.122  0.7295  0.2272 -0.2248
 4143TIP3    H133920   3.089   6.367  12.211 -0.2386  1.5920 -0.8318
 4143TIP3    H233921   3.210   6.383  12.121  1.3869 -1.3105  0.6990
 4144TIP3   OH233922   3.421   6.359   1.504 -0.0004  0.1496  0.5531
 4144TIP3    H133923   3.331   6.375   1.533 -0.6106 -0.7736 -0.7487
 4144TIP3    H233924   3.437   6.267   1.522  0.2031 -0.0254 -0.4591
 4145TIP3   OH233925   3.503   4.972  14.540 -0.3644 -0.3383 -0.0755
 4145TIP3    H133926   3.478   4.887  14.577 -0.6311  0.3916  1.5263
 4145TIP3    H233927   3.592   4.960  14.508  1.1779 -0.2888  3.6762
 4146TIP3   OH233928   0.350   6.565  16.666  0.0265 -0.6820  0.0944
 4146TIP3    H133929   0.397   6.505  16.724 -0.8463 -0.5842  0.9215
 4146TIP3    H233930   0.304   6.625  16.725  1.6976  1.5148 -0.6608
 4147TIP3   OH233931   2.623   6.316   0.906 -0.3704  0.0612  0.1975
 4147TIP3    H133932   2.684   6.259   0.860  1.5410  0.8152  1.6716
 4147TIP3    H233933   2.591   6.376   0.838 -0.0319 -0.8033 -0.7480
 4148TIP3   OH233934   1.702   5.155   5.811 -0.4127  0.3913 -0.1219
 4148TIP3    H133935   1.628   5.095   5.826  0.6259 -1.0101 -0.4034
 4148TIP3    H233936   1.743   5.122   5.731  0.5969  1.0753  0.1037
 4149TIP3   OH233937   2.098   5.950   6.444 -0.5645  0.5687  0.1182
 4149TIP3    H133938   2.019   6.004   6.435 -0.1027  1.5665  1.6883
 4149TIP3    H233939   2.149   5.993   6.512  0.1461 -1.4742  0.9708
 4150TIP3   OH233940   1.722   6.805   2.041  0.1323 -0.2849 -0.5784
 4150TIP3    H133941   1.734   6.895   2.072 -0.3737 -0.6622  0.7645
 4150TIP3    H233942   1.631   6.801   2.012  0.1249 -0.3838 -0.5426
 4151TIP3   OH233943   2.766   0.063  15.098  0.0440 -0.1219  0.1412
 4151TIP3    H133944   2.761  -0.029  15.073  0.0001  0.1193 -0.7794
 4151TIP3    H233945   2.684   0.101  15.067 -0.3047  0.0702  1.2479
 4152TIP3   OH233946   6.192   3.492   1.289 -0.3425 -0.1747  0.1066
 4152TIP3    H133947   6.108   3.517   1.252 -0.6452 -0.6852  0.4387
 4152TIP3    H233948   6.248   3.474   1.214 -0.4409  0.4390 -0.1187
 4153TIP3   OH233949   5.959   0.221   2.895  0.3093  0.1517  0.1186
 4153TIP3    H133950   5.922   0.169   2.824  0.1401  0.0881  0.2511
 4153TIP3    H233951   5.955   0.312   2.863  2.2316 -0.0449 -0.8388
 4154TIP3   OH233952   4.090   1.963   0.726  0.2047  0.5347  0.3355
 4154TIP3    H133953   4.073   2.021   0.652  0.4336 -0.7031 -0.7268
 4154TIP3    H233954   4.095   1.875   0.688 -1.4407 -0.3866  2.0669
 4155TIP3   OH233955   1.317   2.676  10.764 -0.4870  0.4803  0.1968
 4155TIP3    H133956   1.321   2.745  10.697 -0.4771  0.3090  0.0194
 4155TIP3    H233957   1.374   2.607  10.731 -1.4324 -0.1254 -0.2247
 4156TIP3   OH233958   2.949   0.428  15.709 -0.0806  0.0977 -0.4544
 4156TIP3    H133959   2.909   0.348  15.674 -0.2755 -0.4672  0.9927
 4156TIP3    H233960   2.937   0.493  15.640  0.1049 -1.1168 -1.6768
 4157TIP3   OH233961   6.307   1.160  13.175 -0.5697  0.2650 -0.3352
 4157TIP3    H133962   6.357   1.127  13.100 -1.6393  1.0270 -1.4223
 4157TIP3    H233963   6.271   1.081  13.216  1.4626 -0.3039  0.4775
 4158TIP3   OH233964   0.174   1.992  14.939  0.3003  0.8254  0.2812
 4158TIP3    H133965   0.187   1.928  14.869  2.0364  1.0928  0.3170
 4158TIP3    H233966   0.137   1.941  15.011  1.9453 -0.2555  0.4193
 4159TIP3   OH233967   4.924   4.758  13.700  0.3683  0.7119  0.3521
 4159TIP3    H133968   4.887   4.812  13.770  0.8147  0.7511  0.5650
 4159TIP3    H233969   4.948   4.821  13.631  1.0390  0.8107  0.6679
 4160TIP3   OH233970   1.083   3.315  17.054 -0.3058  0.3987  0.6320
 4160TIP3    H133971   1.096   3.249  16.985 -0.9751  0.1549  0.7309
 4160TIP3    H233972   1.016   3.374  17.019 -1.7363 -0.5619  1.6309
 4161TIP3   OH233973   0.302   6.389   4.403  0.1199  0.1549  0.0474
 4161TIP3    H133974   0.356   6.312   4.385 -1.3759 -0.6714 -1.1268
 4161TIP3    H233975   0.330   6.454   4.338 -1.4440 -0.9010 -1.7973
 4162TIP3   OH233976   0.370   4.380   0.900 -0.5125 -0.2770 -0.1009
 4162TIP3    H133977   0.388   4.385   0.993  0.2725  1.2302 -0.2994
 4162TIP3    H233978   0.297   4.440   0.886  0.6017  0.9934 -0.7041
 4163TIP3   OH233979   5.309   1.736  15.851  0.3715  0.2470  0.1363
 4163TIP3    H133980   5.357   1.771  15.926  3.0194  0.5794 -1.5915
 4163TIP3    H233981   5.232   1.793  15.843  0.9447  1.2680  1.5658
 4164TIP3   OH233982   2.415   2.506   1.114 -0.0177 -0.3044 -0.2885
 4164TIP3    H133983   2.409   2.601   1.122 -3.8749 -0.4114 -0.1116
 4164TIP3    H233984   2.347   2.483   1.050 -0.1376 -3.0372  0.7043
 4165TIP3   OH233985   2.189   5.243   1.490  0.1528 -0.5034  0.0295
 4165TIP3    H133986   2.237   5.251   1.573  0.2147 -0.4199 -0.0133
 4165TIP3    H233987   2.236   5.301   1.430 -1.5580  1.7086  0.6848
 4166TIP3   OH233988   1.009   1.815  16.515 -0.5757  0.3390  0.0074
 4166TIP3    H133989   1.052   1.743  16.562 -1.3568 -0.0324  0.1757
 4166TIP3    H233990   1.035   1.802  16.424 -1.3373 -0.6509 -0.0942
 4167TIP3   OH233991   4.038   3.629  12.757 -1.1324  0.1361  0.0332
 4167TIP3    H133992   4.085   3.593  12.832 -1.8563  1.5656  1.2403
 4167TIP3    H233993   3.955   3.661  12.793 -2.1557 -0.4245 -1.6530
 4168TIP3   OH233994   2.954   1.918  16.689  0.1174 -0.1593  0.1572
 4168TIP3    H133995   2.869   1.924  16.646  1.0275 -1.6043 -2.0158
 4168TIP3    H233996   2.983   1.828  16.674  2.4351  0.5416 -0.0349
 4169TIP3   OH233997   0.355   5.859  12.385  0.8356  0.1940  0.2629
 4169TIP3    H133998   0.331   5.951  12.399 -2.5985 -0.9019  2.8230
 4169TIP3    H233999   0.314   5.836  12.302  1.0165  0.7312  0.0144
 4170TIP3   OH234000   3.942   2.335  15.074 -0.9634  0.6722  0.0189
 4170TIP3    H134001   3.917   2.246  15.100 -1.4755  0.8150  0.0278
 4170TIP3    H234002   4.037   2.335  15.078 -1.0044  0.7959  2.3194
 4171TIP3   OH234003   1.854   3.956   4.290 -0.1389  0.2053  0.1474
 4171TIP3    H134004   1.800   3.877   4.290 -1.4461  0.9786 -2.7250
 4171TIP3    H234005   1.813   4.013   4.226  3.3919  1.3644 -1.3275
 4172TIP3   OH234006   4.062   1.501  14.036  0.5710  0.3431  0.0658
 4172TIP3    H134007   4.101   1.550  13.964  0.1220 -0.1648 -0.5327
 4172TIP3    H234008   3.969   1.524  14.034  0.0555 -1.6362 -1.1777
 4173TIP3   OH234009   3.385   4.687   5.438  0.0922 -0.6151  0.5708
 4173TIP3    H134010   3.399   4.662   5.347 -2.5283  1.1504 -0.4544
 4173TIP3    H234011   3.464   4.735   5.462 -0.4133  1.7801 -1.9764
 4174TIP3   OH234012   1.429   3.790  16.888 -0.1934 -0.0614  0.3815
 4174TIP3    H134013   1.339   3.770  16.860  0.2256 -0.3637 -0.7815
 4174TIP3    H234014   1.482   3.779  16.809  0.7958  0.6567  0.9292
 4175TIP3   OH234015   1.627   6.585   5.258  0.1011 -0.3983  0.2126
 4175TIP3    H134016   1.578   6.605   5.178  0.6083 -0.0751 -0.0214
 4175TIP3    H234017   1.640   6.669   5.300 -0.0147 -0.5488  0.5500
 4176TIP3   OH234018   4.766   4.375   3.441 -0.3679 -0.2947  0.4908
 4176TIP3    H134019   4.780   4.393   3.348 -0.1139 -0.0548  0.5732
 4176TIP3    H234020   4.679   4.338   3.445 -1.5941  2.3236  0.4648
 4177TIP3   OH234021   2.941   4.184  13.662  0.0220 -0.3221 -0.4751
 4177TIP3    H134022   2.963   4.108  13.716  0.3444  0.8293  1.1131
 4177TIP3    H234023   2.944   4.152  13.572  2.3170 -1.6790 -0.0056
 4178TIP3   OH234024   0.373   4.634   2.509 -0.0577  0.3575 -0.2040
 4178TIP3    H134025   0.371   4.724   2.477 -0.4819  0.0332 -1.1176
 4178TIP3    H234026   0.281   4.610   2.519  0.0389 -0.1980 -0.6145
 4179TIP3   OH234027   3.430   3.614  13.279 -0.5166 -0.1533 -0.0418
 4179TIP3    H134028   3.494   3.681  13.304 -1.3658  0.9751 -0.7992
 4179TIP3    H234029   3.392   3.586  13.363  0.0721  0.0612  0.3092
 4180TIP3   OH234030   2.544   1.795   2.363  0.5665  0.3505  0.6799
 4180TIP3    H134031   2.458   1.791   2.404 -0.7483  0.4416 -1.8821
 4180TIP3    H234032   2.571   1.886   2.372 -0.6517  0.8474 -0.3913
 4181TIP3   OH234033   6.678   3.380  13.386 -0.0570  0.2989 -0.0767
 4181TIP3    H134034   6.669   3.299  13.437 -0.1854  0.1859 -0.2762
 4181TIP3    H234035   6.721   3.441  13.446  2.0017 -0.5446 -0.6062
 4182TIP3   OH234036   0.705   2.119   3.561  0.4381 -0.1871 -0.6639
 4182TIP3    H134037   0.694   2.181   3.489 -0.2660  0.5558  0.0523
 4182TIP3    H234038   0.767   2.055   3.528  0.2269  0.1990 -1.8881
 4183TIP3   OH234039   5.238   0.719  13.036 -0.0229  0.2911  0.2415
 4183TIP3    H134040   5.312   0.659  13.025  1.0848  1.7269 -0.5161
 4183TIP3    H234041   5.161   0.667  13.013  0.9011 -0.8503 -0.3581
 4184TIP3   OH234042   1.360   5.520   3.867  0.4483  0.0490 -0.2719
 4184TIP3    H134043   1.393   5.448   3.922 -0.2380 -0.1532 -0.1094
 4184TIP3    H234044   1.435   5.547   3.815  1.1853  0.3971  0.9329
 4185TIP3   OH234045   6.138   5.048  10.988 -0.3986 -0.1005  0.2261
 4185TIP3    H134046   6.204   4.980  10.999 -0.9778 -0.3211  2.9944
 4185TIP3    H234047   6.183   5.129  11.013 -0.7394 -0.0208  0.5867
 4186TIP3   OH234048   3.102   0.029   4.829  0.0590  1.0383 -0.3866
 4186TIP3    H134049   3.085   0.111   4.876  0.4946  0.2972  1.1251
 4186TIP3    H234050   3.152  -0.024   4.891 -1.9492 -1.1655 -0.4985
 4187TIP3   OH234051   0.520   6.670   6.408 -0.1389  0.2578 -0.5595
 4187TIP3    H134052   0.531   6.678   6.313  0.5775  3.3435 -0.2997
 4187TIP3    H234053   0.600   6.625   6.437  0.6320  1.1527 -1.2278
 4188TIP3   OH234054   3.524   2.312  15.021 -0.2604  0.1061 -0.0840
 4188TIP3    H134055   3.443   2.358  15.041 -0.5232 -0.0529 -0.7463
 4188TIP3    H234056   3.495   2.228  14.985  0.1882  0.2127 -0.7161
 4189TIP3   OH234057   1.755   1.544  13.964  0.2865  0.4530  0.3071
 4189TIP3    H134058   1.828   1.511  14.017  0.4766 -2.2026 -1.4313
 4189TIP3    H234059   1.679   1.493  13.993 -0.1245  0.7056 -0.3091
 4190TIP3   OH234060   1.649   1.392   3.091 -0.7136 -0.1393  0.8702
 4190TIP3    H134061   1.644   1.297   3.103 -1.6433 -0.3527 -0.8249
 4190TIP3    H234062   1.584   1.411   3.024  0.7979  1.4259 -0.2496
 4191TIP3   OH234063   3.476   2.556   2.863 -0.2772  0.1013 -0.0771
 4191TIP3    H134064   3.437   2.469   2.855 -1.6551  0.4834  1.7252
 4191TIP3    H234065   3.515   2.573   2.778 -0.8851 -1.8515 -0.7974
 4192TIP3   OH234066   4.640   4.925   4.258  0.4510 -0.0840 -0.3222
 4192TIP3    H134067   4.591   5.007   4.265 -0.6593 -0.8193  1.4426
 4192TIP3    H234068   4.725   4.951   4.224  0.0623  1.7776 -0.0137
 4193TIP3   OH234069   0.655   1.396  14.027 -0.2158  0.0413 -0.4616
 4193TIP3    H134070   0.582   1.365  13.974  0.5469  0.4939 -1.8176
 4193TIP3    H234071   0.733   1.377  13.975  0.5541  0.6376  0.4324
 4194TIP3   OH234072   3.979   4.632  17.212  0.2004 -0.1064  0.5756
 4194TIP3    H134073   3.934   4.549  17.201  0.9813 -0.4076 -0.6572
 4194TIP3    H234074   3.926   4.695  17.161 -0.5997  0.2561  1.8176
 4195TIP3   OH234075   1.060   3.655   1.622 -0.0467  0.3675 -0.0713
 4195TIP3    H134076   1.127   3.716   1.592  0.2679  0.5187  0.8916
 4195TIP3    H234077   0.998   3.710   1.671 -1.5975  0.4578 -2.0027
 4196TIP3   OH234078   4.404   5.224  12.941  0.5680 -0.0332  0.2533
 4196TIP3    H134079   4.442   5.261  13.020 -0.3573  0.6797  0.3760
 4196TIP3    H234080   4.365   5.299  12.895 -0.1059 -0.6345 -0.1872
 4197TIP3   OH234081   5.249   1.224   0.190 -0.0735 -0.1512  0.6779
 4197TIP3    H134082   5.244   1.260   0.102 -0.5805 -2.1670 -0.1793
 4197TIP3    H234083   5.335   1.251   0.223  0.9268 -0.9090 -1.1778
 4198TIP3   OH234084   2.655   6.410   0.280 -0.5801 -0.0191 -0.8035
 4198TIP3    H134085   2.615   6.490   0.314 -0.1321 -0.6014  1.2499
 4198TIP3    H234086   2.693   6.436   0.196 -0.7687  1.8282 -0.3635
 4199TIP3   OH234087   6.023   1.154   1.674 -0.0146  0.0605 -0.6655
 4199TIP3    H134088   6.099   1.206   1.699 -0.6650  0.6846  0.0532
 4199TIP3    H234089   5.962   1.163   1.747 -0.4637 -1.0859 -0.8735
 4200TIP3   OH234090   3.361   2.208   5.575  0.0655 -0.0549  0.2597
 4200TIP3    H134091   3.331   2.203   5.665  0.5471  3.0812  0.6988
 4200TIP3    H234092   3.281   2.220   5.523 -0.0642  0.1072  0.4977
 4201TIP3   OH234093   0.498   5.427   0.558 -0.3839 -0.4709  0.3184
 4201TIP3    H134094   0.497   5.348   0.612 -0.1862 -1.5619 -1.1914
 4201TIP3    H234095   0.590   5.455   0.558 -0.4576 -0.2282  0.8729
 4202TIP3   OH234096   2.913   2.820   3.282 -0.8662  0.4028 -0.0622
 4202TIP3    H134097   2.867   2.897   3.252  1.3616  2.4880  1.4968
 4202TIP3    H234098   2.942   2.842   3.370 -0.4058 -2.3628  0.5732
 4203TIP3   OH234099   3.542   0.720   4.409 -0.6033 -0.1271  0.7324
 4203TIP3    H134100   3.454   0.719   4.371 -0.9652  1.7204  1.4082
 4203TIP3    H234101   3.580   0.802   4.378  0.9204 -0.9074  0.4292
 4204TIP3   OH234102   2.564   0.391   4.286 -0.6733 -0.1126  0.0206
 4204TIP3    H134103   2.658   0.398   4.302 -0.8873  0.4811  1.0663
 4204TIP3    H234104   2.552   0.429   4.199  0.1981 -1.2562 -0.6258
 4205TIP3   OH234105   5.579   6.466   5.946 -0.0839  0.3692 -0.1128
 4205TIP3    H134106   5.666   6.482   5.983  0.3318  0.7156 -1.1952
 4205TIP3    H234107   5.582   6.375   5.915 -0.3044  0.2042  0.3305
 4206TIP3   OH234108   5.532   5.516   2.182  0.7717 -0.1107  0.3180
 4206TIP3    H134109   5.448   5.471   2.176  1.5373 -1.5698 -0.0103
 4206TIP3    H234110   5.534   5.573   2.106  0.7588 -1.3132 -0.6120
 4207TIP3   OH234111   0.275   1.723  15.808  0.2268  0.1881 -0.2292
 4207TIP3    H134112   0.329   1.647  15.786 -1.2385 -1.1084  0.4516
 4207TIP3    H234113   0.185   1.696  15.789 -0.5406  1.0338  1.8246
 4208TIP3   OH234114   6.718   3.524   1.654 -0.0010 -0.0157  0.1591
 4208TIP3    H134115   6.704   3.438   1.614  0.3581 -0.5171  1.0879
 4208TIP3    H234116   6.728   3.583   1.579  3.9327 -1.4190 -0.7209
 4209TIP3   OH234117   6.500   1.332   6.546  0.5692  0.1114 -0.2350
 4209TIP3    H134118   6.458   1.363   6.626  0.0054  1.3973 -0.9937
 4209TIP3    H234119   6.588   1.306   6.574  0.0137 -0.5373  0.9825
 4210TIP3   OH234120   3.977   4.741  13.238  0.3797  0.3681  0.4013
 4210TIP3    H134121   3.926   4.794  13.299  2.4176  1.7330  0.9970
 4210TIP3    H234122   3.955   4.777  13.152 -1.3380 -0.5749  0.3854
 4211TIP3   OH234123   1.415   3.982   3.787 -0.0689  0.3313  0.4331
 4211TIP3    H134124   1.323   4.000   3.807 -0.0907  0.6876  0.0118
 4211TIP3    H234125   1.430   3.893   3.820 -0.7547 -0.0036 -0.1607
 4212TIP3   OH234126   4.434   1.193  12.153 -0.0420  0.3492  0.1323
 4212TIP3    H134127   4.462   1.279  12.124  2.4556  0.4427  2.3874
 4212TIP3    H234128   4.513   1.139  12.149 -1.1573 -1.4054  0.3474
 4213TIP3   OH234129   0.644   3.871  16.263  1.0067  0.0225  0.4315
 4213TIP3    H134130   0.679   3.828  16.185  0.0657 -1.1654  0.6517
 4213TIP3    H234131   0.649   3.965  16.243  1.0211 -0.2601 -0.9477
 4214TIP3   OH234132   1.031   2.578   4.578 -0.1541 -0.2198 -0.1222
 4214TIP3    H134133   0.961   2.548   4.636  0.4265 -1.1186  0.1343
 4214TIP3    H234134   1.046   2.504   4.519  0.4606  0.0357 -0.2875
 4215TIP3   OH234135   4.516   5.034  15.074 -0.0503  0.4997  0.4412
 4215TIP3    H134136   4.462   5.017  15.151  0.3539  1.0719  0.8571
 4215TIP3    H234137   4.605   5.036  15.107  0.3686 -1.5266 -0.4087
 4216TIP3   OH234138   1.542   3.952  12.187  0.0318 -0.4824  0.2268
 4216TIP3    H134139   1.521   3.968  12.095 -2.3761 -1.1290  0.5869
 4216TIP3    H234140   1.457   3.956  12.232  1.1746  0.1929  2.4967
 4217TIP3   OH234141   2.824   6.622  16.558 -0.3042  0.4170 -0.0681
 4217TIP3    H134142   2.807   6.716  16.554  1.1629  0.7110 -0.1788
 4217TIP3    H234143   2.752   6.582  16.511 -2.9920  1.1674  3.0115
 4218TIP3   OH234144   2.197   1.749   0.794 -0.4135 -0.1714 -0.2839
 4218TIP3    H134145   2.289   1.768   0.809 -0.7012  0.1901  1.1509
 4218TIP3    H234146   2.192   1.653   0.792  0.1215 -0.1999 -1.4354
 4219TIP3   OH234147   0.364   2.102   5.376  0.0510  0.0920 -0.4926
 4219TIP3    H134148   0.372   2.179   5.320  1.1066  0.6104  0.3481
 4219TIP3    H234149   0.427   2.116   5.446  0.5966 -1.7614 -0.5626
 4220TIP3   OH234150   0.120   0.584  11.527 -0.3016 -0.5904  0.0774
 4220TIP3    H134151   0.210   0.563  11.552 -0.3324  0.1752  0.8747
 4220TIP3    H234152   0.124   0.676  11.499 -1.2817  0.3251  2.6735
 4221TIP3   OH234153   0.467   6.279  17.028 -0.4473 -0.0166  0.1330
 4221TIP3    H134154   0.526   6.341  17.070 -1.5074  0.9284  0.2893
 4221TIP3    H234155   0.380   6.304  17.060 -0.9877 -1.0476 -0.4732
 4222TIP3   OH234156   3.971   1.170  14.306  0.1007  0.5871 -0.9371
 4222TIP3    H134157   3.882   1.161  14.340  0.3754  0.0858 -0.3392
 4222TIP3    H234158   3.995   1.261  14.326  0.9667 -0.1668  2.0693
 4223TIP3   OH234159   6.513   0.828  15.874 -0.0203  0.5996 -0.0412
 4223TIP3    H134160   6.497   0.915  15.839 -0.0464  0.8033  0.4661
 4223TIP3    H234161   6.462   0.770  15.818  2.7988  0.4494 -2.7108
 4224TIP3   OH234162   6.419   6.734   2.682 -0.2392  0.1128  0.2920
 4224TIP3    H134163   6.399   6.737   2.589  0.5182  0.1132  0.1260
 4224TIP3    H234164   6.339   6.764   2.725 -0.1202  1.4799 -0.4148
 4225TIP3   OH234165   0.013   0.089   2.286  0.0422 -0.2340 -0.1730
 4225TIP3    H134166  -0.082   0.100   2.296 -0.2143 -0.1656 -2.2779
 4225TIP3    H234167   0.027   0.085   2.191  2.2780  0.8416  0.0530
 4226TIP3   OH234168   5.082   1.526  15.136 -0.0030  0.1561  0.5370
 4226TIP3    H134169   5.011   1.589  15.134 -0.1088  0.2865  3.3365
 4226TIP3    H234170   5.147   1.560  15.075 -1.1698  1.5271  0.0181
 4227TIP3   OH234171   6.393   1.765  15.581 -0.0996 -0.5205  0.5016
 4227TIP3    H134172   6.477   1.796  15.547 -0.6695  0.6524  0.0969
 4227TIP3    H234173   6.414   1.688  15.633  0.8900 -2.1575 -2.1396
 4228TIP3   OH234174   0.328   0.005   0.336 -0.6858 -0.0533  0.4230
 4228TIP3    H134175   0.393   0.013   0.406 -0.2102 -4.1482  0.6889
 4228TIP3    H234176   0.371   0.042   0.259  1.0889 -0.5951  1.0969
 4229TIP3   OH234177   1.200   3.327   0.160  0.1010  0.3492 -0.0012
 4229TIP3    H134178   1.258   3.255   0.184 -0.6461 -0.6613 -1.1180
 4229TIP3    H234179   1.232   3.356   0.074 -0.0260  0.8883  0.1285
 4230TIP3   OH234180   4.205   4.152   0.492  0.2161  0.3013  0.6634
 4230TIP3    H134181   4.290   4.194   0.483 -0.2218  1.0953  0.0399
 4230TIP3    H234182   4.215   4.067   0.449  0.7264  0.3242  0.7326
 4231TIP3   OH234183   4.062   1.189   1.464 -0.0536  0.5314 -0.0796
 4231TIP3    H134184   4.024   1.277   1.467 -2.5873 -0.2186 -3.6596
 4231TIP3    H234185   4.069   1.169   1.370  4.6442 -1.5092  0.3873
 4232TIP3   OH234186   4.832   1.783  12.712  0.0699 -0.4091  0.0177
 4232TIP3    H134187   4.804   1.726  12.782  0.2665  1.4440  1.6999
 4232TIP3    H234188   4.752   1.830  12.685  0.1653 -0.4711 -0.3899
 4233TIP3   OH234189   1.179   2.861  11.263 -0.3016  0.2124  0.0886
 4233TIP3    H134190   1.171   2.832  11.354  0.0891  1.1243  0.4266
 4233TIP3    H234191   1.105   2.821  11.218  0.0565 -1.0639  0.5838
 4234TIP3   OH234192   5.506   5.643   1.406  0.2100 -0.0559  0.4364
 4234TIP3    H134193   5.465   5.686   1.330  0.6770 -0.5130 -0.0876
 4234TIP3    H234194   5.433   5.601   1.451  0.1615 -1.4776 -0.8954
 4235TIP3   OH234195   0.102   1.244   4.641 -0.3323 -0.3756 -0.3150
 4235TIP3    H134196   0.155   1.324   4.644 -0.5699 -0.2376  0.8422
 4235TIP3    H234197   0.016   1.272   4.672 -0.1492 -1.2689  1.0665
 4236TIP3   OH234198   6.181   5.696   1.389 -0.0939 -0.0289 -0.3727
 4236TIP3    H134199   6.206   5.640   1.316 -1.0929 -0.7362 -0.1911
 4236TIP3    H234200   6.107   5.748   1.356  0.1784  0.4599 -0.2232
 4237TIP3   OH234201   2.224   2.907  17.302  0.1056  0.0839 -0.4898
 4237TIP3    H134202   2.129   2.914  17.289  0.3119 -0.0440 -2.2207
 4237TIP3    H234203   2.261   2.969  17.239  1.1897 -0.0155  0.0340
 4238TIP3   OH234204   5.337   6.140  13.828  0.2058  0.0238  0.4999
 4238TIP3    H134205   5.424   6.159  13.863 -0.1477 -1.3537  2.2874
 4238TIP3    H234206   5.326   6.201  13.755  1.7777  1.7450  1.6256
 4239TIP3   OH234207   2.541   1.749   4.444 -0.2119 -0.0161 -0.1265
 4239TIP3    H134208   2.510   1.723   4.357  0.8466 -0.6333 -0.3415
 4239TIP3    H234209   2.499   1.688   4.504 -0.1324 -0.2582 -0.3155
 4240TIP3   OH234210   5.405   4.882   5.601 -0.0690 -0.5910  0.0490
 4240TIP3    H134211   5.430   4.871   5.693  2.6702  1.9237 -0.2217
 4240TIP3    H234212   5.381   4.974   5.594  0.7337 -0.4802 -1.9131
 4241TIP3   OH234213   1.865   5.776  10.820  0.4044 -0.4774 -0.1293
 4241TIP3    H134214   1.878   5.794  10.913  1.0446 -2.2762  0.1610
 4241TIP3    H234215   1.770   5.766  10.810  0.2343  0.7042  0.0986
 4242TIP3   OH234216   5.255   3.221  14.571  0.0009 -0.2405  0.9335
 4242TIP3    H134217   5.289   3.213  14.661  0.3724  0.6842  0.8843
 4242TIP3    H234218   5.332   3.209  14.516 -0.4214 -1.9881  0.6791
 4243TIP3   OH234219   2.109   3.889  10.942 -0.7166  0.4486 -0.5984
 4243TIP3    H134220   2.084   3.967  10.993 -3.4968  0.7870 -2.3192
 4243TIP3    H234221   2.027   3.848  10.919  0.6380 -1.9082 -1.5070
 4244TIP3   OH234222   3.537   1.638  13.372 -0.5091 -0.1175 -0.0749
 4244TIP3    H134223   3.468   1.687  13.327 -0.6456  1.4747  1.7692
 4244TIP3    H234224   3.618   1.679  13.343 -0.3756 -1.1119 -1.1943
 4245TIP3   OH234225   3.146   5.985   1.747  0.3676 -0.4472 -0.0733
 4245TIP3    H134226   3.155   5.895   1.718  0.8296 -0.6514  0.6649
 4245TIP3    H234227   3.200   6.036   1.686 -2.6930 -0.1343 -2.7632
 4246TIP3   OH234228   0.724   4.974  14.542  0.5279 -0.1814 -0.5951
 4246TIP3    H134229   0.801   4.917  14.551 -0.0503 -0.9453 -0.4405
 4246TIP3    H234230   0.760   5.063  14.547  1.2414 -0.5205  1.0338
 4247TIP3   OH234231   5.731   5.061  12.028  0.5627  0.1513  0.4724
 4247TIP3    H134232   5.704   5.079  12.118 -1.0543 -1.0648  0.2706
 4247TIP3    H234233   5.827   5.063  12.031  0.6026 -1.4245  2.5982
 4248TIP3   OH234234   0.598   1.985   1.765 -0.0630  0.1393  0.2037
 4248TIP3    H134235   0.671   1.988   1.827 -0.0818 -0.8641  0.2791
 4248TIP3    H234236   0.640   1.987   1.679  0.3693 -4.1824  0.1302
 4249TIP3   OH234237   4.186   5.934  14.434  0.0526 -0.0319 -0.3195
 4249TIP3    H134238   4.197   5.857  14.378  2.0377  1.8332 -2.7239
 4249TIP3    H234239   4.179   6.007  14.373 -1.9859  1.7502  1.8600
 4250TIP3   OH234240   2.922   0.874  13.047 -0.1395 -0.1294 -0.4239
 4250TIP3    H134241   2.989   0.935  13.075 -1.4460  2.1565 -1.9646
 4250TIP3    H234242   2.929   0.872  12.951 -2.9457  1.1338 -0.7482
 4251TIP3   OH234243   3.418   6.218  14.339  0.0630 -0.2341  0.0433
 4251TIP3    H134244   3.457   6.140  14.378  1.8967  1.0352  0.8886
 4251TIP3    H234245   3.326   6.194  14.325 -0.3236 -1.3725  3.5440
 4252TIP3   OH234246   0.295   6.087  16.260  0.4515 -0.1878  0.0892
 4252TIP3    H134247   0.263   6.175  16.242  1.1326 -0.0209 -0.3456
 4252TIP3    H234248   0.389   6.092  16.243  0.5845 -0.8590  0.5950
 4253TIP3   OH234249   3.727   0.896   5.509 -0.8950 -0.2538  0.2254
 4253TIP3    H134250   3.812   0.939   5.518 -0.4563 -0.7181 -1.3143
 4253TIP3    H234251   3.700   0.914   5.419 -1.6294 -1.4902  0.1671
 4254TIP3   OH234252   5.798   5.822   4.968  0.0907 -0.8867 -0.3444
 4254TIP3    H134253   5.835   5.852   5.051 -0.3737  0.8439 -0.7204
 4254TIP3    H234254   5.703   5.827   4.981  0.0073 -0.1460 -1.0987
 4255TIP3   OH234255   2.915   4.922   6.074  0.3893 -0.6464 -0.5131
 4255TIP3    H134256   2.890   4.964   5.991  0.1327  0.6645  0.1974
 4255TIP3    H234257   2.849   4.854   6.087 -3.0646  2.6682  1.2756
 4256TIP3   OH234258   4.451   5.431  13.146 -0.3303  0.3972  0.4666
 4256TIP3    H134259   4.361   5.423  13.178  0.1445 -0.7516  1.6414
 4256TIP3    H234260   4.503   5.377  13.207  0.9666 -0.0315 -0.9377
 4257TIP3   OH234261   3.715   4.973  15.112 -0.6820 -0.2294  0.1540
 4257TIP3    H134262   3.625   4.993  15.087  0.0728  1.5582 -1.4167
 4257TIP3    H234263   3.767   5.001  15.037  1.3883  1.2639  1.9925
 4258TIP3   OH234264   6.501   2.226   3.647  0.6833  0.1658 -0.0306
 4258TIP3    H134265   6.531   2.135   3.648 -0.1044 -0.1050  1.2738
 4258TIP3    H234266   6.512   2.256   3.737  0.1440  1.0913 -0.2616
 4259TIP3   OH234267   0.503   1.062   2.437 -0.2403 -0.1422 -0.0934
 4259TIP3    H134268   0.547   1.118   2.501 -1.8314  0.6299  0.3838
 4259TIP3    H234269   0.542   0.976   2.449  0.4746  0.3126  0.9317
 4260TIP3   OH234270   5.039   1.120   3.505 -0.7832 -0.5184 -0.0664
 4260TIP3    H134271   5.016   1.056   3.438 -0.1372 -0.3159 -0.4941
 4260TIP3    H234272   4.964   1.178   3.510 -0.7848 -0.4651 -0.6999
 4261TIP3   OH234273   3.700   1.272  11.412 -0.1110 -0.7505  0.1540
 4261TIP3    H134274   3.752   1.209  11.361  0.5425 -0.3191  0.2642
 4261TIP3    H234275   3.760   1.345  11.426 -0.9587  0.0380 -0.2353
 4262TIP3   OH234276   5.988   6.238  11.379 -0.4544 -0.2282 -0.1344
 4262TIP3    H134277   6.010   6.328  11.405 -2.3131  0.1845  0.1187
 4262TIP3    H234278   5.986   6.241  11.283 -0.2255 -0.0894 -0.1376
 4263TIP3   OH234279   6.290   0.847   5.573 -0.3816  0.2446 -0.0991
 4263TIP3    H134280   6.313   0.770   5.520  2.2148 -0.7128  2.1406
 4263TIP3    H234281   6.263   0.810   5.658 -0.2480  1.7755  0.6341
 4264TIP3   OH234282   3.982   3.898  10.808 -0.3021 -0.0840 -0.4790
 4264TIP3    H134283   4.035   3.976  10.787 -0.6744 -0.0761 -1.4283
 4264TIP3    H234284   3.957   3.863  10.723 -1.3464 -0.4219 -0.0427
 4265TIP3   OH234285   2.908   3.518   4.954 -0.2161  0.4851 -0.1954
 4265TIP3    H134286   2.954   3.561   5.027  0.7624  2.3056 -1.8103
 4265TIP3    H234287   2.968   3.450   4.925 -0.8178 -0.5750  0.9667
 4266TIP3   OH234288   3.509   0.861  13.868 -0.0366 -0.3103  0.3333
 4266TIP3    H134289   3.596   0.880  13.903 -0.3887  1.7372  0.1901
 4266TIP3    H234290   3.517   0.873  13.773 -0.4085 -0.3703  0.2907
 4267TIP3   OH234291   1.537   5.490  16.057 -0.0264 -0.7296  0.1702
 4267TIP3    H134292   1.575   5.436  16.127  1.3070  1.0894  0.9466
 4267TIP3    H234293   1.443   5.488  16.074  0.0736 -2.1198  0.6682
 4268TIP3   OH234294   3.866   0.774  15.428  0.2164 -0.0867 -0.2928
 4268TIP3    H134295   3.855   0.858  15.472  2.3052  0.1744 -0.1697
 4268TIP3    H234296   3.930   0.791  15.359  0.2233 -1.4385 -0.6567
 4269TIP3   OH234297   1.163   0.973   6.266  0.0209 -0.2423 -0.2840
 4269TIP3    H134298   1.216   0.920   6.326  0.3390  1.3896  0.9661
 4269TIP3    H234299   1.084   0.993   6.316 -0.2851  0.0909 -0.8943
 4270TIP3   OH234300   4.461   0.533   1.667 -0.3081  0.5854  0.4417
 4270TIP3    H134301   4.397   0.479   1.713 -2.1614  0.8631 -1.6523
 4270TIP3    H234302   4.443   0.622   1.697 -0.7960  0.6455 -0.0321
 4271TIP3   OH234303   2.426   3.698  15.027  0.2166  0.1711 -0.2756
 4271TIP3    H134304   2.510   3.671  15.064  0.1608 -0.1309 -0.3672
 4271TIP3    H234305   2.391   3.761  15.090  0.1119 -0.3505  0.1995
 4272TIP3   OH234306   4.464   3.987   4.067 -0.2508  0.5583 -0.2147
 4272TIP3    H134307   4.521   3.963   4.140 -0.2099  1.1084 -0.0651
 4272TIP3    H234308   4.484   3.922   3.999 -1.0091 -0.5843  0.6065
 4273TIP3   OH234309   6.674   5.459  17.109  0.4665  0.3677 -1.0231
 4273TIP3    H134310   6.619   5.451  17.031  1.3920 -0.5327 -1.6109
 4273TIP3    H234311   6.680   5.369  17.143 -0.9755  0.9102  0.8601
 4274TIP3   OH234312   4.097   2.645  17.232 -0.3664 -0.4628 -0.6498
 4274TIP3    H134313   4.170   2.608  17.283 -0.9368 -0.7574 -0.0274
 4274TIP3    H234314   4.073   2.576  17.170 -0.4869 -0.5942 -0.4603
 4275TIP3   OH234315   4.517   3.334  17.036  0.2895  0.1838 -0.2234
 4275TIP3    H134316   4.569   3.337  16.955  1.2343 -0.4992  0.3339
 4275TIP3    H234317   4.582   3.335  17.106 -0.2123 -3.3399  0.5075
 4276TIP3   OH234318   6.295   6.115   5.292 -0.3424 -0.3736  0.0978
 4276TIP3    H134319   6.368   6.079   5.242 -1.2551 -0.4758 -1.2397
 4276TIP3    H234320   6.262   6.187   5.237 -0.7273  0.1997  1.0589
 4277TIP3   OH234321   5.517   1.455  11.765  0.4466 -0.3790  0.2925
 4277TIP3    H134322   5.567   1.391  11.815  0.5091  0.1459  0.9010
 4277TIP3    H234323   5.433   1.461  11.811  0.6001  0.2964  0.4829
 4278TIP3   OH234324   4.963   6.292   2.148 -0.4160  0.0589 -0.1569
 4278TIP3    H134325   4.971   6.379   2.108  0.9208  0.5167  1.0339
 4278TIP3    H234326   5.011   6.234   2.090 -0.1320  0.3632 -0.2296
 4279TIP3   OH234327   6.415   2.990   3.438  0.1143  0.5154 -0.6915
 4279TIP3    H134328   6.456   2.905   3.453  0.5046  0.8901  0.4826
 4279TIP3    H234329   6.328   2.968   3.404  0.3057 -0.3523 -0.6575
 4280TIP3   OH234330   5.482   3.657  14.288 -0.3390 -0.0568 -0.6157
 4280TIP3    H134331   5.427   3.659  14.210 -1.1831  1.0130 -0.0260
 4280TIP3    H234332   5.509   3.748  14.301  1.6262 -0.5548 -0.9021
 4281TIP3   OH234333   1.117   3.605   4.836 -1.4071 -0.1880 -0.0347
 4281TIP3    H134334   1.142   3.513   4.843 -0.9176 -0.1153 -0.7172
 4281TIP3    H234335   1.078   3.626   4.921 -1.7175 -1.0797  0.0581
 4282TIP3   OH234336   3.968   4.296  11.113  0.1847  0.3020  0.0925
 4282TIP3    H134337   3.985   4.297  11.019 -1.0359  1.3707 -0.1518
 4282TIP3    H234338   3.981   4.387  11.140  0.1776  0.0720  0.9026
 4283TIP3   OH234339   1.914   4.680   4.684 -0.3494  0.4611  0.2352
 4283TIP3    H134340   1.968   4.758   4.672 -0.7775  0.7026 -0.1364
 4283TIP3    H234341   1.835   4.711   4.727  0.8784 -0.3025  3.2929
 4284TIP3   OH234342   3.512   0.099   3.510 -0.1242 -0.1463  0.4763
 4284TIP3    H134343   3.555   0.171   3.556 -1.2981 -0.0880  1.4978
 4284TIP3    H234344   3.429   0.136   3.479 -1.1349 -1.2622  1.7572
 4285TIP3   OH234345   3.256   4.294  13.365  0.8118  0.0761  0.1129
 4285TIP3    H134346   3.237   4.356  13.435  1.2438 -0.7618  0.9907
 4285TIP3    H234347   3.351   4.301  13.352  0.5988  0.9931 -1.1438
 4286TIP3   OH234348   6.244   3.775   1.869  0.5204 -0.0268  0.2331
 4286TIP3    H134349   6.295   3.832   1.811  1.0280  1.5781  2.1356
 4286TIP3    H234350   6.285   3.689   1.860 -0.2007 -0.1393 -2.6450
 4287TIP3   OH234351   2.103   0.467  15.766 -0.1575  0.3682 -0.4458
 4287TIP3    H134352   2.056   0.489  15.685 -0.8851 -0.6889 -0.3345
 4287TIP3    H234353   2.052   0.509  15.835 -0.5137 -0.1570 -0.3893
 4288TIP3   OH234354   6.263   4.690   1.249 -0.0626  0.4731  0.6030
 4288TIP3    H134355   6.318   4.620   1.214  1.3369  3.1519 -3.2012
 4288TIP3    H234356   6.318   4.731   1.317 -0.7035 -1.5972  2.5027
 4289TIP3   OH234357   3.436   1.399   4.456 -0.2751  0.6365  0.3786
 4289TIP3    H134358   3.530   1.400   4.436 -0.3445  1.1302  0.0575
 4289TIP3    H234359   3.424   1.466   4.522  0.1958 -2.0086  3.3870
 4290TIP3   OH234360   0.863   3.345   6.442  0.3194  0.1591 -0.4874
 4290TIP3    H134361   0.915   3.316   6.517  0.7199  0.2679 -0.7166
 4290TIP3    H234362   0.852   3.439   6.456  0.2269  0.1446 -0.4651
 4291TIP3   OH234363   2.365   5.453  14.507  0.3288  0.3630  0.4102
 4291TIP3    H134364   2.438   5.509  14.482  0.7473 -0.4718 -0.2673
 4291TIP3    H234365   2.394   5.411  14.589 -0.2649  1.6239  1.3048
 4292TIP3   OH234366   2.535   5.120  13.516  0.1696 -0.0174  0.1752
 4292TIP3    H134367   2.566   5.057  13.582  0.1110 -0.8305 -0.5550
 4292TIP3    H234368   2.607   5.183  13.509 -0.5576  1.1489  2.3129
 4293TIP3   OH234369   0.845   4.670  15.903 -0.1237  0.4307 -0.3460
 4293TIP3    H134370   0.778   4.617  15.947 -0.0816 -1.1825 -2.0622
 4293TIP3    H234371   0.829   4.759  15.933 -1.9913 -0.1514  0.5627
 4294TIP3   OH234372   5.012   6.284   0.158 -0.0490 -0.3473 -0.3570
 4294TIP3    H134373   4.943   6.232   0.199 -0.1566 -1.6834 -2.1391
 4294TIP3    H234374   4.966   6.356   0.116 -0.0777  0.1808  0.5408
 4295TIP3   OH234375   4.581   5.734  11.789  0.1553  0.0223 -0.2879
 4295TIP3    H134376   4.487   5.728  11.772  0.0372  0.6141  0.1373
 4295TIP3    H234377   4.606   5.818  11.752  0.2660  0.4502  0.7433
 4296TIP3   OH234378   0.959   3.363   0.861  0.5806  0.1857  0.1159
 4296TIP3    H134379   0.963   3.359   0.766  2.0283  0.2674  0.1572
 4296TIP3    H234380   1.036   3.414   0.887 -0.9365  2.0837  1.2194
 4297TIP3   OH234381   1.382   6.214  16.186  0.8818 -0.4501 -0.4004
 4297TIP3    H134382   1.387   6.119  16.175  3.7311 -0.4205 -0.1193
 4297TIP3    H234383   1.463   6.237  16.230 -0.3770  1.9960  0.8625
 4298TIP3   OH234384   0.824   2.521  15.199  0.7447 -0.4242  0.2988
 4298TIP3    H134385   0.864   2.584  15.259  1.2007 -0.8536  0.4496
 4298TIP3    H234386   0.811   2.571  15.118 -0.6944  0.4014  1.0149
 4299TIP3   OH234387   3.093   6.104   4.536 -0.0256  0.2708 -0.2947
 4299TIP3    H134388   3.005   6.102   4.572 -0.0155 -1.7722 -0.2516
 4299TIP3    H234389   3.147   6.060   4.602  0.9895  1.2658 -0.4333
 4300TIP3   OH234390   6.375   2.373  17.056 -0.0139 -0.0391 -0.4077
 4300TIP3    H134391   6.310   2.441  17.072 -1.4148 -1.3150 -0.4816
 4300TIP3    H234392   6.347   2.332  16.975  1.9026  0.4860 -1.4115
 4301TIP3   OH234393   0.210   4.341  14.743 -0.3711  0.2704 -0.4370
 4301TIP3    H134394   0.276   4.283  14.707 -0.2269  0.0375  0.1835
 4301TIP3    H234395   0.149   4.283  14.789 -0.1771  0.5988  0.2595
 4302TIP3   OH234396   5.086   5.328  13.551  0.1268 -0.6634  0.0937
 4302TIP3    H134397   5.095   5.275  13.472 -0.6770 -0.1691 -0.3412
 4302TIP3    H234398   4.993   5.328  13.570  0.3897 -1.3381  1.4565
 4303TIP3   OH234399   5.166   0.772   5.704  0.0674  0.6131 -0.3798
 4303TIP3    H134400   5.182   0.800   5.614 -0.8231 -0.4036 -0.8767
 4303TIP3    H234401   5.229   0.700   5.718  1.1499  1.6516  0.2993
 4304TIP3   OH234402   6.492   2.546   5.564 -0.0754  0.2511  0.9319
 4304TIP3    H134403   6.559   2.540   5.632  0.1354  0.3886  0.7381
 4304TIP3    H234404   6.446   2.628   5.583  1.6419  1.6564 -0.5726
 4305TIP3   OH234405   5.684   3.157  14.632 -0.0320  0.0305  0.4268
 4305TIP3    H134406   5.768   3.111  14.634 -0.3519 -0.5990  2.3404
 4305TIP3    H234407   5.668   3.179  14.724 -1.3449  1.2989 -0.0762
 4306TIP3   OH234408   4.725   2.696   1.927  0.1886 -0.0881  0.6187
 4306TIP3    H134409   4.809   2.736   1.905 -0.4162  1.1196  0.3737
 4306TIP3    H234410   4.729   2.608   1.891  0.4774  0.7219 -1.4758
 4307TIP3   OH234411   2.167   6.214  11.660 -0.3276 -0.4286  0.1600
 4307TIP3    H134412   2.198   6.167  11.737 -0.6788 -3.1094 -1.1937
 4307TIP3    H234413   2.137   6.298  11.693 -0.8482 -1.6162  3.0236
 4308TIP3   OH234414   6.810   5.570   1.328  0.4632  0.2977  0.1434
 4308TIP3    H134415   6.890   5.575   1.275  0.6691 -1.3965  0.2350
 4308TIP3    H234416   6.794   5.660   1.357  0.6172  1.2074 -2.3744
 4309TIP3   OH234417   3.246   6.242   3.512  0.0011  0.0929  0.2045
 4309TIP3    H134418   3.172   6.221   3.568  0.2756  0.3525  0.6758
 4309TIP3    H234419   3.222   6.209   3.426 -1.2360  1.3531  0.0328
 4310TIP3   OH234420   6.135   2.204  14.457  0.4460  0.4273  0.0708
 4310TIP3    H134421   6.136   2.114  14.491  0.3600  0.3273 -0.1800
 4310TIP3    H234422   6.227   2.229  14.451  0.5022  0.1324 -0.4168
 4311TIP3   OH234423   3.613   4.355  11.541  0.2523  0.0572 -0.5297
 4311TIP3    H134424   3.520   4.359  11.560  0.2959 -1.1557  0.0713
 4311TIP3    H234425   3.626   4.415  11.467 -1.2403 -0.7630 -1.5020
 4312TIP3   OH234426   4.710   4.080  14.523  0.4099  0.3052 -0.5190
 4312TIP3    H134427   4.750   4.045  14.443 -0.1432  0.6615 -0.9586
 4312TIP3    H234428   4.619   4.051  14.518  0.0390  1.4470 -0.6892
 4313TIP3   OH234429   6.125   1.367  14.236 -0.4447 -0.2996 -0.3706
 4313TIP3    H134430   6.217   1.356  14.210 -0.3480  0.6743 -0.4806
 4313TIP3    H234431   6.124   1.342  14.329  0.6193  2.6632  0.5407
 4314TIP3   OH234432   0.873   0.586   2.678 -0.4590 -0.6781  0.2184
 4314TIP3    H134433   0.859   0.517   2.614 -1.1281  1.3873 -2.0212
 4314TIP3    H234434   0.957   0.626   2.654  0.5719 -1.4320  2.2777
 4315TIP3   OH234435   4.896   6.162  14.804 -0.3395 -0.0586  0.2071
 4315TIP3    H134436   4.954   6.124  14.738  0.5781  2.2893 -0.4361
 4315TIP3    H234437   4.955   6.211  14.862 -1.6176  2.6116 -0.6148
 4316TIP3   OH234438   1.904   4.064   3.752 -0.1539 -0.4577 -0.7407
 4316TIP3    H134439   1.896   4.126   3.680 -1.6530 -1.0083 -1.0760
 4316TIP3    H234440   1.815   4.055   3.786  0.3871 -0.8716  0.6269
 4317TIP3   OH234441   2.433   3.806   1.392  0.8018  0.4303  0.1715
 4317TIP3    H134442   2.480   3.804   1.308  1.2432  0.2199  0.4169
 4317TIP3    H234443   2.396   3.718   1.400 -0.5728  0.9101 -0.5287
 4318TIP3   OH234444   0.114   1.218   2.499 -0.2978 -0.5343  0.1485
 4318TIP3    H134445   0.148   1.129   2.494 -0.3181 -0.5329 -0.0294
 4318TIP3    H234446   0.025   1.212   2.464 -0.9042 -0.7548  1.6503
 4319TIP3   OH234447   1.024   0.107  16.477 -0.1283 -0.0693  0.1441
 4319TIP3    H134448   0.950   0.128  16.534 -0.6538 -0.9836 -0.1733
 4319TIP3    H234449   1.068   0.034  16.521  0.7152  0.5842  0.4240
 4320TIP3   OH234450   5.932   2.681  13.307 -0.1928  0.3683 -0.3950
 4320TIP3    H134451   5.865   2.689  13.239 -0.1995 -0.3043 -0.4795
 4320TIP3    H234452   5.899   2.611  13.364 -0.3554  1.1598  0.4952
 4321TIP3   OH234453   5.469   2.610  14.469  0.7950  0.0296 -0.0866
 4321TIP3    H134454   5.508   2.530  14.433 -0.1296 -0.4401 -0.0943
 4321TIP3    H234455   5.391   2.624  14.415 -0.2025 -0.2521  1.2200
 4322TIP3   OH234456   1.316   1.389  13.768  0.5159  0.2752 -0.7317
 4322TIP3    H134457   1.354   1.315  13.815  0.0583  0.4139 -0.1375
 4322TIP3    H234458   1.375   1.402  13.693  1.3732  0.1960 -0.0833
 4323TIP3   OH234459   5.757   0.068  13.552 -0.4525 -0.1969  0.3975
 4323TIP3    H134460   5.705   0.137  13.510  0.9821 -0.5097 -2.1116
 4323TIP3    H234461   5.844   0.107  13.562 -0.5088 -0.4962  2.2703
 4324TIP3   OH234462   6.332   4.166   3.378 -0.1483  0.3799 -0.0981
 4324TIP3    H134463   6.246   4.145   3.414 -0.1836  0.8521  0.1017
 4324TIP3    H234464   6.380   4.203   3.452  0.7261 -1.2071  0.1656
 4325TIP3   OH234465   0.281   4.904   5.549 -0.3262  0.3717 -0.4327
 4325TIP3    H134466   0.275   4.929   5.457 -1.2555 -0.2698 -0.5571
 4325TIP3    H234467   0.343   4.967   5.587 -0.4454  1.0572 -1.3446
 4326TIP3   OH234468   0.488   1.316  10.526 -0.1641 -0.4676  0.4951
 4326TIP3    H134469   0.525   1.237  10.487  1.3531  0.7317 -0.6053
 4326TIP3    H234470   0.562   1.374  10.539 -1.4274  1.3986 -0.1931
 4327TIP3   OH234471   2.895   1.928   0.077 -0.0486 -1.1292 -0.1110
 4327TIP3    H134472   2.935   1.948   0.161 -1.2683 -1.5072  0.5799
 4327TIP3    H234473   2.804   1.904   0.098 -0.9956  0.7773 -1.7118
 4328TIP3   OH234474   5.909   1.358   2.871  0.1767 -0.4287  0.1107
 4328TIP3    H134475   5.954   1.437   2.842 -0.2216 -0.5591 -0.8982
 4328TIP3    H234476   5.833   1.389   2.920  0.6561 -0.2015  0.7161
 4329TIP3   OH234477   5.871   3.907  12.115 -0.1096 -0.6154 -0.0572
 4329TIP3    H134478   5.833   3.987  12.079  0.8997 -0.3150 -0.5010
 4329TIP3    H234479   5.923   3.937  12.189 -1.7218 -1.1681  1.3758
 4330TIP3   OH234480   1.536   6.737   5.856 -0.1551  0.2173  0.3291
 4330TIP3    H134481   1.550   6.769   5.767  2.2256  0.7331  0.8221
 4330TIP3    H234482   1.547   6.814   5.912 -1.4196 -0.1333  1.1270
 4331TIP3   OH234483   6.044   3.063  14.497 -0.0313  0.0216  0.3926
 4331TIP3    H134484   6.022   3.156  14.490 -0.0809 -0.0622 -0.6674
 4331TIP3    H234485   6.033   3.043  14.590  0.6404  1.2375  0.7549
 4332TIP3   OH234486   2.489   4.957   1.016  0.0699  0.1970 -0.2184
 4332TIP3    H134487   2.493   4.866   1.045  1.2520  0.3641  0.1909
 4332TIP3    H234488   2.456   4.952   0.926 -0.0723 -0.6132 -0.1298
 4333TIP3   OH234489   1.212   5.595   4.778  0.1053  0.1139 -0.7371
 4333TIP3    H134490   1.148   5.642   4.832 -0.5913 -0.8162 -0.7205
 4333TIP3    H234491   1.176   5.600   4.689 -0.4473 -1.1002 -0.6091
 4334TIP3   OH234492   2.009   0.024  11.998  0.3828 -0.3675  0.4011
 4334TIP3    H134493   1.916   0.013  11.979 -0.0741  1.9115  1.0024
 4334TIP3    H234494   2.050  -0.056  11.967 -1.4545 -0.4297 -2.1309
 4335TIP3   OH234495   0.653   4.699  16.745  0.3743 -0.4540 -0.0357
 4335TIP3    H134496   0.732   4.649  16.727 -0.3719 -1.2017 -1.3622
 4335TIP3    H234497   0.684   4.787  16.766  1.5636 -0.7968 -0.3228
 4336TIP3   OH234498   5.610   0.442   5.480  0.6054  0.0017 -0.6169
 4336TIP3    H134499   5.532   0.495   5.464  0.8377  0.7155  0.5200
 4336TIP3    H234500   5.624   0.395   5.398 -1.0869 -0.2363 -0.8050
 4337TIP3   OH234501   4.180   5.970  17.009 -0.1144 -0.0160  0.2975
 4337TIP3    H134502   4.241   5.914  16.961  3.0884  1.5764  2.2069
 4337TIP3    H234503   4.182   5.936  17.099 -2.7742 -0.3825  0.3179
 4338TIP3   OH234504   5.767   3.244   0.609 -0.0422  0.8242  0.1523
 4338TIP3    H134505   5.822   3.238   0.687 -1.0156 -0.1662  0.8028
 4338TIP3    H234506   5.812   3.307   0.552  1.3381  0.6262  0.9723
 4339TIP3   OH234507   0.868   5.338  14.277  0.1001 -0.1849 -0.0293
 4339TIP3    H134508   0.891   5.268  14.339 -1.5167 -0.1624  0.6404
 4339TIP3    H234509   0.880   5.419  14.326  0.8569 -0.0330 -0.4437
 4340TIP3   OH234510   1.078   1.214   4.358  0.1410 -0.4612  0.1838
 4340TIP3    H134511   1.153   1.224   4.300 -1.2149  0.7550 -1.4667
 4340TIP3    H234512   1.060   1.303   4.390 -1.0666 -0.5902 -0.0821
 4341TIP3   OH234513   5.505   6.410  17.099 -0.0843 -0.2798 -0.2495
 4341TIP3    H134514   5.532   6.487  17.048  1.2957 -0.8569 -0.4492
 4341TIP3    H234515   5.500   6.442  17.189 -1.1609  0.4214 -0.5468
 4342TIP3   OH234516   3.084   2.288   1.519  0.4992  0.3745 -0.4066
 4342TIP3    H134517   3.176   2.310   1.534  0.2720  1.4614 -0.5345
 4342TIP3    H234518   3.056   2.348   1.450 -0.2213 -0.1845 -0.6167
 4343TIP3   OH234519   4.557   5.173   4.219 -0.0665  0.1404 -0.0288
 4343TIP3    H134520   4.505   5.141   4.146  1.0356 -0.1664 -0.6933
 4343TIP3    H234521   4.596   5.254   4.187 -2.4328  2.0312  1.4566
 4344TIP3   OH234522   4.847   3.560   1.010 -0.1386 -0.6594 -0.0029
 4344TIP3    H134523   4.798   3.489   0.970 -1.2387  0.2551 -0.3455
 4344TIP3    H234524   4.922   3.574   0.952  0.2011 -1.6571  0.1846
 4345TIP3   OH234525   0.210   1.040   5.783 -0.5951 -0.1736 -0.1211
 4345TIP3    H134526   0.285   1.032   5.725 -0.8540  1.7281 -0.7636
 4345TIP3    H234527   0.164   0.956   5.775  0.0020 -0.3672 -1.7659
 4346TIP3   OH234528   0.096   6.361   1.256  0.1390 -0.4537  0.4905
 4346TIP3    H134529   0.055   6.278   1.279  1.3121 -0.3300  3.5491
 4346TIP3    H234530   0.023   6.422   1.248 -0.6934 -1.6166 -1.2403
 4347TIP3   OH234531   2.980   1.581  13.441  0.1837 -0.2875 -0.3935
 4347TIP3    H134532   2.983   1.487  13.458  0.2206 -0.1773  0.2213
 4347TIP3    H234533   2.982   1.622  13.527  1.5248  0.3265 -0.6826
 4348TIP3   OH234534   3.575   1.565  16.400 -0.0273  0.3033 -0.2736
 4348TIP3    H134535   3.648   1.521  16.357  1.4735  0.9980  1.3789
 4348TIP3    H234536   3.517   1.495  16.428  0.1544 -0.2932 -1.3517
 4349TIP3   OH234537   1.921   2.957   1.109 -0.1859 -0.6384  0.2331
 4349TIP3    H134538   1.980   2.961   1.034 -0.6515 -1.5206 -0.1882
 4349TIP3    H234539   1.834   2.971   1.073 -0.2689  0.5620  0.8427
 4350TIP3   OH234540   4.308   5.330   5.363 -0.1306 -0.6396 -0.1993
 4350TIP3    H134541   4.355   5.348   5.444 -0.2757 -2.1375  0.2433
 4350TIP3    H234542   4.218   5.314   5.389 -1.2118  3.0530 -1.1331
 4351TIP3   OH234543   5.077   4.884  11.358 -0.3125  0.2807  0.2253
 4351TIP3    H134544   5.071   4.886  11.454 -0.8366  0.1130  0.2012
 4351TIP3    H234545   5.122   4.802  11.339  1.5269  1.2185  0.3911
 4352TIP3   OH234546   1.339   3.136   0.902 -0.0493 -0.5207 -0.6435
 4352TIP3    H134547   1.322   3.216   0.952  0.4420  0.2335 -1.6325
 4352TIP3    H234548   1.255   3.118   0.859 -0.4955 -1.2184  0.4860
 4353TIP3   OH234549   0.585   4.920  14.851 -0.1330  0.2577 -0.9283
 4353TIP3    H134550   0.550   4.874  14.928 -2.2446  0.7755 -1.5186
 4353TIP3    H234551   0.570   4.860  14.778  1.1502  0.0929 -1.0806
 4354TIP3   OH234552   2.632   5.883  15.525 -0.3521 -0.4546  0.0471
 4354TIP3    H134553   2.666   5.972  15.515 -0.6916 -0.1996  1.0144
 4354TIP3    H234554   2.680   5.847  15.600  0.1865 -1.3001 -0.6796
 4355TIP3   OH234555   2.600   0.781  15.852  0.5186 -0.1290  0.4784
 4355TIP3    H134556   2.573   0.690  15.867  0.0343 -0.3803 -1.5994
 4355TIP3    H234557   2.646   0.779  15.768  2.6008  1.1924  1.5000
 4356TIP3   OH234558   0.152   3.823   0.906  0.1091 -0.2123 -0.4079
 4356TIP3    H134559   0.131   3.743   0.954 -2.1572  0.9196  0.6331
 4356TIP3    H234560   0.137   3.893   0.968 -1.6979  1.2366 -2.3063
 4357TIP3   OH234561   1.367   3.183  13.730  0.0484 -0.2724  0.3430
 4357TIP3    H134562   1.284   3.158  13.689  0.6269 -2.1347  0.2039
 4357TIP3    H234563   1.362   3.148  13.819  1.2205 -1.7411 -0.1225
 4358TIP3   OH234564   4.287   1.967  12.396  0.7892  0.3544 -0.0502
 4358TIP3    H134565   4.346   2.024  12.445  0.1136  3.0408 -2.1082
 4358TIP3    H234566   4.343   1.921  12.334  1.0317  0.8823 -0.2260
 4359TIP3   OH234567   3.181   1.480   6.039  0.0607 -0.3325 -0.8130
 4359TIP3    H134568   3.171   1.525   6.122 -0.2938  0.5893 -1.3390
 4359TIP3    H234569   3.093   1.453   6.015 -0.1870  1.3317 -1.9210
 4360TIP3   OH234570   6.255   5.872  14.020 -0.1132  0.1072 -0.2366
 4360TIP3    H134571   6.237   5.780  14.001 -1.5796  0.3733 -0.2757
 4360TIP3    H234572   6.228   5.884  14.111  3.0982 -0.2082  0.8651
 4361TIP3   OH234573   5.832   5.685   0.793 -0.4261  0.5819  0.1063
 4361TIP3    H134574   5.879   5.716   0.870  0.6999  1.0452 -0.7283
 4361TIP3    H234575   5.777   5.759   0.767 -1.7500 -0.0010  1.1515
 4362TIP3   OH234576   3.001   5.572   4.629 -0.0357 -0.3184 -0.1172
 4362TIP3    H134577   2.963   5.498   4.581  0.0346  0.9347 -2.2653
 4362TIP3    H234578   3.061   5.613   4.566 -0.4814  1.8566  0.7693
 4363TIP3   OH234579   4.201   3.073  10.961  0.2340 -0.1198  0.6780
 4363TIP3    H134580   4.221   3.165  10.943  4.1142 -0.8759  0.2703
 4363TIP3    H234581   4.148   3.045  10.887 -2.0840  1.9654  1.3973
 4364TIP3   OH234582   0.199   5.737  11.688  0.1577 -0.0921 -0.6973
 4364TIP3    H134583   0.265   5.703  11.749  0.3054  1.9834  0.3814
 4364TIP3    H234584   0.137   5.783  11.744  0.2367  1.8112 -2.1044
 4365TIP3   OH234585   6.373   6.781  15.719  0.4348  0.3506 -0.1655
 4365TIP3    H134586   6.340   6.869  15.699  0.5801  0.6960  1.0342
 4365TIP3    H234587   6.345   6.765  15.809 -0.3818 -1.2211 -0.6559
 4366TIP3   OH234588   3.706   0.896  12.442  0.3875 -0.0005 -0.5969
 4366TIP3    H134589   3.693   0.966  12.507 -1.9222 -0.0770 -0.9112
 4366TIP3    H234590   3.758   0.831  12.488 -1.1158 -0.0161  1.2170
 4367TIP3   OH234591   2.691   5.780  15.867  0.2724  0.0451  0.2485
 4367TIP3    H134592   2.638   5.734  15.802  1.1299 -0.8108  0.1448
 4367TIP3    H234593   2.674   5.735  15.949 -0.8392  1.1501  0.6700
 4368TIP3   OH234594   4.839   2.534  15.541  0.2452  0.2454  0.6368
 4368TIP3    H134595   4.795   2.457  15.504  1.6382 -0.1299 -0.3324
 4368TIP3    H234596   4.914   2.548  15.483  0.7100  1.5900  1.5299
 4369TIP3   OH234597   1.391   5.871  16.128 -0.2090  0.2848 -0.0381
 4369TIP3    H134598   1.386   5.819  16.047 -0.4294 -0.6624  0.5679
 4369TIP3    H234599   1.329   5.829  16.187  1.0898 -0.0044  1.1688
 4370TIP3   OH234600   6.598   0.133  14.613 -0.2573  0.3309 -0.2365
 4370TIP3    H134601   6.513   0.124  14.658 -0.2796  1.1046 -0.1054
 4370TIP3    H234602   6.658   0.163  14.682  0.5746 -1.9285  0.1021
 4371TIP3   OH234603   1.742   2.260  15.344  0.1418 -0.0589 -0.5817
 4371TIP3    H134604   1.761   2.341  15.297 -0.5472  1.0905  1.0175
 4371TIP3    H234605   1.819   2.206  15.331  1.1298  1.3220 -0.7299
 4372TIP3   OH234606   2.511   0.967   3.084  0.0127  0.0334  0.2330
 4372TIP3    H134607   2.559   1.047   3.103  0.9789 -0.4774  0.0136
 4372TIP3    H234608   2.497   0.968   2.990 -0.2543  0.0943  0.2721
 4373TIP3   OH234609   1.613   5.961  12.767 -0.7684  0.7410 -0.1332
 4373TIP3    H134610   1.617   6.054  12.747 -1.6887  0.3850 -2.2253
 4373TIP3    H234611   1.520   5.941  12.771 -0.5797 -0.0964  0.3823
 4374TIP3   OH234612   3.461   2.099   4.084 -0.4055 -0.0407 -0.2020
 4374TIP3    H134613   3.531   2.052   4.130  0.6484  1.3030 -0.3745
 4374TIP3    H234614   3.430   2.037   4.018 -0.5807 -1.2824  0.9822
 4375TIP3   OH234615   2.938   6.439   6.454 -0.9096 -0.0787 -0.6309
 4375TIP3    H134616   2.866   6.387   6.418 -0.7752 -2.0503  1.7032
 4375TIP3    H234617   3.017   6.395   6.423 -0.7018  0.6845 -1.2394
 4376TIP3   OH234618   5.541   3.715  11.391  0.1079 -0.2749  0.6079
 4376TIP3    H134619   5.457   3.746  11.424  0.7347  1.0029  1.0388
 4376TIP3    H234620   5.519   3.666  11.312 -0.9884  0.4755  0.4367
 4377TIP3   OH234621   5.362   3.180  14.819 -0.0371  0.2351  0.2274
 4377TIP3    H134622   5.433   3.125  14.852 -1.4737 -1.5860  0.4526
 4377TIP3    H234623   5.302   3.189  14.894 -2.0624 -1.7918 -1.0022
 4378TIP3   OH234624   6.272   5.059   4.573  0.5368 -0.3611  0.1048
 4378TIP3    H134625   6.356   5.050   4.618  1.3456 -0.1669 -1.3117
 4378TIP3    H234626   6.266   4.982   4.517  0.1020 -0.0212 -0.3260
 4379TIP3   OH234627   0.346   6.423   0.621  0.5562 -0.1148  0.0008
 4379TIP3    H134628   0.294   6.422   0.542 -0.2081  0.6747  0.4770
 4379TIP3    H234629   0.430   6.384   0.596  0.1042 -0.4323 -1.0270
 4380TIP3   OH234630   2.187   2.121   0.058  0.1498 -0.0844 -0.2354
 4380TIP3    H134631   2.197   2.167   0.141 -0.4791  0.9317 -0.7104
 4380TIP3    H234632   2.094   2.127   0.038  0.2282 -0.6900 -0.8099
 4381TIP3   OH234633   6.644   3.076   5.026  0.0745  0.8384 -0.0222
 4381TIP3    H134634   6.733   3.061   4.993 -0.0042 -1.2860  0.5702
 4381TIP3    H234635   6.587   3.042   4.957 -0.1304 -1.5809  1.2247
 4382TIP3   OH234636   6.705   4.699   0.359 -0.3869 -0.0446  0.2128
 4382TIP3    H134637   6.768   4.679   0.290 -1.1727 -4.1700  0.4251
 4382TIP3    H234638   6.758   4.706   0.438  0.0096 -2.8882  0.2970
 4383TIP3   OH234639   6.317   2.031   0.653 -0.3361  0.4995  0.2192
 4383TIP3    H134640   6.276   2.113   0.680 -1.2824  0.3584 -0.7254
 4383TIP3    H234641   6.331   2.041   0.558 -1.2765 -0.7533 -0.0764
 4384TIP3   OH234642   4.385   1.183  15.962 -0.3654 -0.0759 -0.4038
 4384TIP3    H134643   4.443   1.227  16.025 -1.0133 -0.6364  0.6026
 4384TIP3    H234644   4.395   1.234  15.881  1.8692 -0.4072 -0.4212
 4385TIP3   OH234645   3.399   4.502   6.226 -0.1548 -0.7390 -0.1793
 4385TIP3    H134646   3.436   4.490   6.313  1.1897 -1.0604 -0.7745
 4385TIP3    H234647   3.304   4.502   6.240  0.0114  1.3016  1.5534
 4386TIP3   OH234648   5.277   4.663   2.435 -0.9654  0.6697  0.0428
 4386TIP3    H134649   5.250   4.670   2.344 -1.6053  2.4706  0.3420
 4386TIP3    H234650   5.268   4.751   2.470 -2.0456 -0.2360  2.2267
 4387TIP3   OH234651   1.480   2.948   1.979 -0.1856  0.6651 -0.3504
 4387TIP3    H134652   1.567   2.957   1.938  0.7084  0.5552  1.4217
 4387TIP3    H234653   1.421   2.934   1.905  1.2273  1.1833 -1.6612
 4388TIP3   OH234654   6.494   2.727  12.650 -0.0363 -0.4805 -0.2069
 4388TIP3    H134655   6.519   2.819  12.665  1.9294 -1.3691  2.7000
 4388TIP3    H234656   6.554   2.698  12.581  0.5673 -0.0410  0.1231
 4389TIP3   OH234657   3.757   6.527   0.946 -0.8355 -0.6252 -0.0652
 4389TIP3    H134658   3.800   6.565   1.023 -0.1871  2.7434 -1.8995
 4389TIP3    H234659   3.665   6.520   0.971 -1.3385  3.6911  0.1600
 4390TIP3   OH234660   0.012   4.508   3.940  0.0672 -0.1219 -0.1004
 4390TIP3    H134661   0.059   4.585   3.910  2.3187 -1.7769 -1.0893
 4390TIP3    H234662   0.074   4.436   3.929 -2.0089 -2.1313  0.5499
 4391TIP3   OH234663   4.497   1.003   6.102  0.3676  0.4324  0.1209
 4391TIP3    H134664   4.486   0.922   6.052 -0.8363 -0.3455  1.5515
 4391TIP3    H234665   4.589   1.027   6.088  0.5146 -0.6734 -1.0544
 4392TIP3   OH234666   2.510   6.328  16.664  0.3055  0.4881 -0.1423
 4392TIP3    H134667   2.443   6.263  16.642 -1.5163  2.6130 -1.3080
 4392TIP3    H234668   2.488   6.356  16.753  2.1107 -1.5423  1.0534
 4393TIP3   OH234669   1.575   0.153  11.697  0.0569  0.7727  0.0469
 4393TIP3    H134670   1.571   0.057  11.703 -0.0623  0.7684 -0.0927
 4393TIP3    H234671   1.499   0.177  11.644 -0.9028  1.0719  1.4860
 4394TIP3   OH234672   5.190   2.954   3.923  0.2732  0.1471 -0.0480
 4394TIP3    H134673   5.273   2.906   3.931 -0.1599 -0.3373  2.2171
 4394TIP3    H234674   5.172   2.985   4.012 -2.2126 -0.1484 -0.3900
 4395TIP3   OH234675   6.564   0.014  11.695  0.2711  0.0614  0.2775
 4395TIP3    H134676   6.508  -0.034  11.755 -0.0545  0.3364  0.1953
 4395TIP3    H234677   6.600   0.085  11.747  0.5472 -0.1170  0.3317
 4396TIP3   OH234678   4.781   5.030  15.153 -0.0428  0.0043  0.4305
 4396TIP3    H134679   4.843   4.965  15.186  1.4629  0.1079 -1.9909
 4396TIP3    H234680   4.821   5.115  15.174 -1.5390  0.2575  2.7072
 4397TIP3   OH234681   3.674   5.655   1.004  0.3594  0.6042 -0.5773
 4397TIP3    H134682   3.608   5.590   0.981  0.1261  1.0614 -1.1959
 4397TIP3    H234683   3.638   5.738   0.976  0.8721  0.9524 -0.2304
 4398TIP3   OH234684   6.817   3.868   2.336 -0.2395  0.2522 -0.1691
 4398TIP3    H134685   6.782   3.829   2.416 -0.8974 -0.7294 -0.9033
 4398TIP3    H234686   6.781   3.814   2.266  0.9274  0.6313 -1.0901
 4399TIP3   OH234687   1.083   6.651   1.081  0.3607 -0.3229 -0.0233
 4399TIP3    H134688   1.036   6.645   0.998 -0.8279  1.6854  0.4430
 4399TIP3    H234689   1.140   6.727   1.071 -1.0075  0.9823  1.5185
 4400TIP3   OH234690   3.969   0.072  10.844 -0.2183  0.5509 -0.0649
 4400TIP3    H134691   3.999  -0.003  10.792  0.0842  0.1872  0.6223
 4400TIP3    H234692   4.039   0.136  10.837 -0.2786  0.5935 -0.2892
 4401TIP3   OH234693   2.837   2.470   1.770 -0.2787  0.0568 -0.4011
 4401TIP3    H134694   2.871   2.552   1.806 -0.4161 -0.2921  0.5601
 4401TIP3    H234695   2.744   2.472   1.789 -0.4325  0.0648 -1.1514
 4402TIP3   OH234696   5.294   2.716   5.504 -0.2069  0.5825 -0.4867
 4402TIP3    H134697   5.308   2.629   5.466  0.2304 -0.2011  1.3553
 4402TIP3    H234698   5.325   2.777   5.438  0.8402 -0.7284 -1.2366
 4403TIP3   OH234699   0.871   5.622   3.792 -0.5359  0.5717 -0.1496
 4403TIP3    H134700   0.895   5.589   3.706  1.7045  0.0652  0.5943
 4403TIP3    H234701   0.775   5.627   3.791 -0.8963 -3.4421 -1.2186
 4404TIP3   OH234702   3.758   4.542   0.759  0.6188 -0.1532 -1.0878
 4404TIP3    H134703   3.756   4.487   0.681  0.9942  0.5098 -1.5821
 4404TIP3    H234704   3.684   4.602   0.748  1.5042  0.8645 -1.6428
 4405TIP3   OH234705   6.686   6.139  12.134  0.1344  0.2157 -0.0393
 4405TIP3    H134706   6.659   6.144  12.042  1.9019 -0.5296 -0.6353
 4405TIP3    H234707   6.764   6.194  12.139  0.6006 -0.5092  0.8128
 4406TIP3   OH234708   2.547   3.531  13.963 -0.4772 -0.7193 -0.0358
 4406TIP3    H134709   2.606   3.604  13.978 -0.5686 -0.4507 -0.9232
 4406TIP3    H234710   2.592   3.476  13.898 -0.2319 -1.6653  0.9055
 4407TIP3   OH234711   5.157   1.000   1.659  0.0638  0.8634  0.3007
 4407TIP3    H134712   5.156   1.034   1.748  1.0759  1.8145 -0.0328
 4407TIP3    H234713   5.227   0.935   1.659  0.5154  1.3434  0.0390
 4408TIP3   OH234714   4.933   1.375   1.694 -0.2717  0.1096 -0.5243
 4408TIP3    H134715   4.952   1.354   1.786 -0.5881  0.9952 -0.2433
 4408TIP3    H234716   5.017   1.407   1.659  0.3474 -2.0233 -1.1017
 4409TIP3   OH234717   1.267   5.773   1.519  0.3180  0.7847  0.0965
 4409TIP3    H134718   1.211   5.702   1.548  0.2567  1.3404  1.4213
 4409TIP3    H234719   1.209   5.831   1.470 -0.2602  1.2605  1.2995
 4410TIP3   OH234720   2.927   1.757  12.335 -0.2927  0.0756  0.0330
 4410TIP3    H134721   2.847   1.706  12.349  0.0614  0.3211  3.8016
 4410TIP3    H234722   2.906   1.844  12.369  1.2973  0.3987  0.2702
 4411TIP3   OH234723   2.608   1.106   1.710 -0.1588 -0.6944 -0.5869
 4411TIP3    H134724   2.626   1.118   1.803  0.5666  1.8656 -0.9816
 4411TIP3    H234725   2.521   1.067   1.707  0.0469 -1.3697  1.1595
 4412TIP3   OH234726   2.136   0.829   2.160 -0.3085 -0.7189  0.7012
 4412TIP3    H134727   2.219   0.792   2.190 -1.3351 -2.7535  1.2504
 4412TIP3    H234728   2.100   0.762   2.102 -2.4975 -0.8514  2.0979
 4413TIP3   OH234729   4.730   1.475  15.885 -0.1721  0.1068 -0.1964
 4413TIP3    H134730   4.672   1.525  15.942 -0.4001 -0.6372  0.2434
 4413TIP3    H234731   4.793   1.539  15.853  0.9135  0.3055  2.1084
 4414TIP3   OH234732   1.666   4.417  15.165 -0.7122  0.0268 -0.1000
 4414TIP3    H134733   1.641   4.481  15.099 -1.0405 -0.8999 -0.9038
 4414TIP3    H234734   1.630   4.451  15.247  0.3058  1.5495 -0.2409
 4415TIP3   OH234735   4.461   4.386  12.963  0.1151 -0.1377 -0.1639
 4415TIP3    H134736   4.482   4.372  12.870  0.5902  0.2142 -0.1152
 4415TIP3    H234737   4.513   4.320  13.009  1.7318  1.1890  0.0081
 4416TIP3   OH234738   0.576   1.966  15.133  0.1026 -0.5170 -0.5323
 4416TIP3    H134739   0.626   1.884  15.138  1.0847  0.1780  2.8834
 4416TIP3    H234740   0.642   2.035  15.131 -0.5307  0.3622  2.7887
 4417TIP3   OH234741   0.424   4.110   6.205  0.1899  0.1798  0.6211
 4417TIP3    H134742   0.360   4.108   6.134  0.3054  2.0344  0.4132
 4417TIP3    H234743   0.509   4.115   6.161  0.4692 -1.4967  0.9019
 4418TIP3   OH234744   5.267   1.943  14.973 -0.4053 -0.1125 -0.0807
 4418TIP3    H134745   5.177   1.934  15.005  0.1552 -1.5450  1.2566
 4418TIP3    H234746   5.258   1.966  14.881 -2.1364 -0.0658  0.0666
 4419TIP3   OH234747   2.717   0.743  10.538  0.0655 -0.2344  0.4936
 4419TIP3    H134748   2.671   0.800  10.599  1.3280 -1.1711  2.4011
 4419TIP3    H234749   2.758   0.803  10.475 -1.4701  0.7253  0.3503
 4420TIP3   OH234750   0.023   3.786   3.147 -0.1835 -0.0738 -0.2004
 4420TIP3    H134751  -0.052   3.835   3.113 -0.7405  0.1137  1.2408
 4420TIP3    H234752   0.003   3.773   3.239  0.7496 -1.5480 -0.1738
 4421TIP3   OH234753   4.112   1.771  12.742  0.5657 -0.7793 -0.0554
 4421TIP3    H134754   4.099   1.715  12.819  0.6400 -0.7527 -0.0241
 4421TIP3    H234755   4.057   1.848  12.759  2.3984  0.3586  1.0893
 4422TIP3   OH234756   0.061   2.713   6.398  0.1112 -0.6101 -0.1434
 4422TIP3    H134757   0.103   2.727   6.482 -1.4126 -0.1812  0.5964
 4422TIP3    H234758  -0.031   2.699   6.420  0.0678 -2.9784 -1.5633
 4423TIP3   OH234759   4.892   2.083   4.265 -0.0146  0.5597  0.4503
 4423TIP3    H134760   4.863   2.038   4.186  0.4291 -0.1658  0.6886
 4423TIP3    H234761   4.948   2.154   4.233 -1.4085  1.5034  0.0316
 4424TIP3   OH234762   3.218   3.902  12.114  0.2107  0.5286  0.5182
 4424TIP3    H134763   3.183   3.856  12.191 -0.4251  1.3616  0.7423
 4424TIP3    H234764   3.311   3.912  12.134  1.0899 -3.2174 -0.8313
 4425TIP3   OH234765   3.304   2.274  15.412 -0.1583 -0.2977 -0.4356
 4425TIP3    H134766   3.231   2.308  15.463  0.3414  1.0808 -0.6135
 4425TIP3    H234767   3.370   2.343  15.414 -0.1942 -0.0501 -3.1311
 4426TIP3   OH234768   6.762   4.309  11.610  0.0869  0.3941  0.5598
 4426TIP3    H134769   6.747   4.400  11.586 -1.4430  0.4569  1.6640
 4426TIP3    H234770   6.692   4.260  11.568  1.4809 -0.4675 -0.8952
 4427TIP3   OH234771   2.190   0.828  13.679  0.3878 -0.3325 -0.2112
 4427TIP3    H134772   2.202   0.909  13.728  1.4012  1.4215 -3.1418
 4427TIP3    H234773   2.099   0.832  13.648  0.5510 -0.1202 -0.6675
 4428TIP3   OH234774   6.600   6.265  12.655 -0.0835  0.3282 -0.0097
 4428TIP3    H134775   6.534   6.205  12.621 -1.4165  1.9949 -0.5217
 4428TIP3    H234776   6.608   6.332  12.587  1.2868  0.7865  0.5778
 4429TIP3   OH234777   4.816   4.045  12.534 -0.2002  0.1953 -1.0302
 4429TIP3    H134778   4.782   4.012  12.617 -0.4252  0.2747 -1.0885
 4429TIP3    H234779   4.836   3.967  12.483  0.0876  0.1446 -0.8433
 4430TIP3   OH234780   6.619   4.319   3.083  0.5345  0.1636  0.0864
 4430TIP3    H134781   6.524   4.330   3.081  0.6804  2.1942  1.7246
 4430TIP3    H234782   6.637   4.283   3.169  1.2295 -0.9792 -0.5126
 4431TIP3   OH234783   3.417   1.640   4.908  0.3489 -0.2187 -0.1886
 4431TIP3    H134784   3.325   1.619   4.923  0.6107 -2.3779 -1.1213
 4431TIP3    H234785   3.422   1.735   4.912 -1.6863 -0.1278  1.0809
 4432TIP3   OH234786   3.524   4.216  15.325  0.4322  0.0830  0.1022
 4432TIP3    H134787   3.563   4.293  15.284 -1.9671  1.6753  0.5690
 4432TIP3    H234788   3.449   4.195  15.270  0.3521 -1.1879  0.6560
 4433TIP3   OH234789   5.185   0.084   5.284 -0.0059 -0.0979 -0.2770
 4433TIP3    H134790   5.181   0.037   5.201 -0.2235 -1.2121  0.3482
 4433TIP3    H234791   5.112   0.146   5.280  0.8746  0.9231 -1.5165
 4434TIP3   OH234792   6.450   2.529  16.651 -0.3219  0.0874  0.3832
 4434TIP3    H134793   6.521   2.466  16.643 -0.6574 -0.5334  1.9819
 4434TIP3    H234794   6.487   2.611  16.619 -0.1636 -1.0326 -2.6630
 4435TIP3   OH234795   5.228   5.056  13.714  0.1900  0.2357 -0.2659
 4435TIP3    H134796   5.220   5.093  13.627 -0.6796  0.3781 -0.1349
 4435TIP3    H234797   5.320   5.029  13.721  0.3659  0.6203 -1.0551
 4436TIP3   OH234798   2.035   3.234   2.315  0.0751 -0.8374  0.4698
 4436TIP3    H134799   2.077   3.315   2.344  0.3232 -1.0297  0.6589
 4436TIP3    H234800   1.953   3.230   2.363  0.1185 -0.7548  0.5510
 4437TIP3   OH234801   2.571   1.650   2.073 -0.6407  0.0865 -0.0217
 4437TIP3    H134802   2.609   1.736   2.089 -1.2768  0.5407 -0.8806
 4437TIP3    H234803   2.484   1.668   2.036 -1.7469 -0.9167  1.9104
 4438TIP3   OH234804   4.227   0.072   0.213 -0.3421 -0.5220 -0.1458
 4438TIP3    H134805   4.197  -0.016   0.190  0.9066 -1.4454  1.5722
 4438TIP3    H234806   4.149   0.116   0.248 -1.3654 -0.3317 -2.4526
 4439TIP3   OH234807   3.502   3.662  12.831 -0.0795  0.1187  0.2276
 4439TIP3    H134808   3.421   3.701  12.864 -1.4639 -1.7035 -0.8311
 4439TIP3    H234809   3.479   3.627  12.745  1.5192 -1.4315  0.3683
 4440TIP3   OH234810   0.623   6.515   0.952 -0.0943 -0.2364  0.4841
 4440TIP3    H134811   0.587   6.443   0.899  0.5400  0.0087 -0.3034
 4440TIP3    H234812   0.547   6.554   0.994 -0.4635 -1.3070  0.8495
 4441TIP3   OH234813   2.072   4.365   0.188  0.6933  0.1921 -0.5171
 4441TIP3    H134814   2.003   4.407   0.138  0.1214  0.3052  0.3362
 4441TIP3    H234815   2.050   4.272   0.187  1.6210 -0.0366 -1.8878
 4442TIP3   OH234816   5.183   0.076  14.018  0.0383  0.0070 -0.6126
 4442TIP3    H134817   5.245   0.107  14.084 -0.7571  0.5678 -0.0993
 4442TIP3    H234818   5.223   0.097  13.934 -0.3296  2.1899 -0.2905
 4443TIP3   OH234819   4.635   2.795  15.630  0.4524 -0.1397 -0.3615
 4443TIP3    H134820   4.670   2.841  15.707  1.3754 -1.0918 -0.1894
 4443TIP3    H234821   4.577   2.859  15.589  2.3144  1.5131 -0.5881
 4444TIP3   OH234822   0.970   2.793  11.074  0.0031 -0.2750 -0.2517
 4444TIP3    H134823   1.000   2.871  11.027 -0.8160 -0.1918 -0.6415
 4444TIP3    H234824   1.000   2.720  11.019  2.3672 -0.3567  1.0028
 4445TIP3   OH234825   1.780   6.114   4.993  0.5184 -1.0852 -0.2101
 4445TIP3    H134826   1.818   6.113   5.081 -0.0277 -1.0973  0.0308
 4445TIP3    H234827   1.747   6.203   4.982  0.9791 -0.9607 -0.5748
 4446TIP3   OH234828   4.352   2.088   4.314 -0.1650  0.0517 -0.2803
 4446TIP3    H134829   4.351   2.016   4.251 -0.2131 -0.9498  0.8263
 4446TIP3    H234830   4.421   2.147   4.283 -1.1925  0.3889 -2.0972
 4447TIP3   OH234831   3.797   5.340  12.726  0.1028  0.3829  0.4430
 4447TIP3    H134832   3.879   5.299  12.753  0.8016  1.5758  0.2124
 4447TIP3    H234833   3.729   5.296  12.777  1.1874  1.3115  2.8149
 4448TIP3   OH234834   0.902   2.903  15.719  0.2011 -0.2778  0.0961
 4448TIP3    H134835   0.920   2.978  15.774  1.5414 -0.7514  0.3346
 4448TIP3    H234836   0.962   2.913  15.645 -0.4332 -0.5047 -0.4572
 4449TIP3   OH234837   3.135   4.219   4.225  0.2622  0.5620 -0.1867
 4449TIP3    H134838   3.088   4.141   4.256  0.4060  1.1664  1.6573
 4449TIP3    H234839   3.089   4.244   4.145  0.9664 -2.1037 -1.5601
 4450TIP3   OH234840   0.379   2.077   3.910 -0.5856 -0.0513  0.3215
 4450TIP3    H134841   0.365   2.007   3.974  0.5620 -2.5575 -1.9559
 4450TIP3    H234842   0.301   2.076   3.855 -0.5106  0.3791  0.2030
 4451TIP3   OH234843   5.804   1.772  14.048  0.5005 -0.7444  0.0608
 4451TIP3    H134844   5.765   1.686  14.029 -2.8733  0.3695  1.1363
 4451TIP3    H234845   5.770   1.829  13.980  0.7483  0.2151  0.7228
 4452TIP3   OH234846   6.602   1.330   4.754  0.3617 -0.1532  0.2238
 4452TIP3    H134847   6.551   1.348   4.675 -0.5563 -0.5328  0.7133
 4452TIP3    H234848   6.573   1.244   4.783  0.5686  0.0389  1.0524
 4453TIP3   OH234849   4.448   5.774  11.098 -0.1163  0.4482  0.2681
 4453TIP3    H134850   4.498   5.846  11.136  1.3721  0.1223 -0.9865
 4453TIP3    H234851   4.441   5.709  11.168 -0.0359  1.0895  0.8850
 4454TIP3   OH234852   3.863   4.412  16.111 -0.1493  0.5345 -0.4797
 4454TIP3    H134853   3.850   4.505  16.126 -2.3660  0.4442 -1.5543
 4454TIP3    H234854   3.819   4.394  16.028  0.2130 -1.4835 -0.2845
 4455TIP3   OH234855   3.749   3.984  16.004 -0.0096  0.2730  0.2457
 4455TIP3    H134856   3.831   4.033  15.998 -0.5565  1.2222  0.4250
 4455TIP3    H234857   3.701   4.008  15.925 -0.7231  0.8538  0.8397
 4456TIP3   OH234858   0.524   6.800   3.330  0.7331 -0.4200  0.1171
 4456TIP3    H134859   0.560   6.847   3.406 -1.4325 -0.7249  1.4395
 4456TIP3    H234860   0.523   6.864   3.260  0.6775  0.5944  1.0157
 4457TIP3   OH234861   1.944   5.921  15.286  0.5179  0.6425 -0.1600
 4457TIP3    H134862   1.959   5.848  15.346  0.1894  1.2737  0.7011
 4457TIP3    H234863   1.949   5.999  15.341  2.5167  1.4218 -1.3379
 4458TIP3   OH234864   3.158   0.745   4.415 -0.0291 -0.4448 -0.0140
 4458TIP3    H134865   3.227   0.806   4.441  0.6842 -1.4993  0.6192
 4458TIP3    H234866   3.202   0.681   4.359 -0.3587 -1.4355  0.8338
 4459TIP3   OH234867   2.635   1.336   5.170 -0.2167  0.2381  0.6077
 4459TIP3    H134868   2.579   1.296   5.104  1.0425  0.3237 -0.5489
 4459TIP3    H234869   2.588   1.415   5.196 -0.3661  0.6456 -0.8136
 4460TIP3   OH234870   1.821   5.448  14.388  0.2293  0.2338 -0.2532
 4460TIP3    H134871   1.757   5.485  14.328 -0.7576  1.7013  1.5888
 4460TIP3    H234872   1.850   5.522  14.442  2.0252 -0.7751  0.2493
 4461TIP3   OH234873   5.804   5.696   3.596  0.3528  0.1598 -0.1873
 4461TIP3    H134874   5.854   5.643   3.658  1.1675  1.3183  0.1709
 4461TIP3    H234875   5.721   5.649   3.587  0.5133 -0.4453  1.1754
 4462TIP3   OH234876   4.934   0.103   4.477  0.0518  0.4625 -0.1038
 4462TIP3    H134877   4.864   0.113   4.413 -1.5301 -0.0505  1.4311
 4462TIP3    H234878   4.913   0.167   4.545  1.0637  0.2654  0.4103
 4463TIP3   OH234879   3.551   4.974  12.181 -0.4274  0.0390 -0.1374
 4463TIP3    H134880   3.524   5.040  12.117 -0.1653 -0.4528 -0.7531
 4463TIP3    H234881   3.535   4.890  12.139 -1.3479 -0.3267  0.8762
 4464TIP3   OH234882   5.122   0.799  15.045  0.0351  0.3685 -1.0403
 4464TIP3    H134883   5.119   0.705  15.029 -0.7255  0.0441  0.7586
 4464TIP3    H234884   5.090   0.838  14.963 -0.5296 -0.9762 -1.4876
 4465TIP3   OH234885   6.258   5.227   4.356  0.1831  0.1536 -0.6464
 4465TIP3    H134886   6.294   5.173   4.427 -0.8355  1.0621  0.6141
 4465TIP3    H234887   6.183   5.272   4.396  0.9597  2.4828 -1.6107
 4466TIP3   OH234888   6.373   4.126   1.844  0.4096 -0.3582 -0.3437
 4466TIP3    H134889   6.376   4.092   1.754 -0.8511 -2.7529  0.4355
 4466TIP3    H234890   6.302   4.191   1.842  0.6462 -0.1072 -1.1579
 4467TIP3   OH234891   1.810   0.874  14.804  0.3201 -0.6925 -0.4929
 4467TIP3    H134892   1.779   0.932  14.735 -3.1124  0.2237  1.5634
 4467TIP3    H234893   1.882   0.922  14.846  0.2901  0.1798 -1.4189
 4468TIP3   OH234894   2.660   2.465  13.942  0.1054 -0.0667  0.3970
 4468TIP3    H134895   2.663   2.385  13.891 -0.2982 -0.3324  0.7856
 4468TIP3    H234896   2.586   2.514  13.906 -1.7002 -1.3163  2.2631
 4469TIP3   OH234897   3.057   1.326  17.290 -0.2874 -0.7892 -0.2237
 4469TIP3    H134898   2.993   1.385  17.249 -0.5186 -0.3439  0.7639
 4469TIP3    H234899   3.018   1.304  17.375  1.6712  0.9254  1.2001
 4470TIP3   OH234900   0.147   5.542  14.632  0.0871 -0.4318 -0.1656
 4470TIP3    H134901   0.190   5.465  14.670 -1.0574 -0.9560  0.1039
 4470TIP3    H234902   0.107   5.585  14.707  0.8791  0.5546 -0.2901
 4471TIP3   OH234903   4.748   2.215   4.501  0.2435  0.2054  0.0588
 4471TIP3    H134904   4.808   2.189   4.432 -0.9050  0.2251 -0.9831
 4471TIP3    H234905   4.803   2.224   4.579  1.4411 -0.5641 -0.6685
 4472TIP3   OH234906   3.669   5.557  17.121 -0.1223  0.0303  0.4287
 4472TIP3    H134907   3.594   5.554  17.062  0.8468  1.4390 -0.9517
 4472TIP3    H234908   3.698   5.467  17.129 -0.7440 -0.2734 -0.6196
 4473TIP3   OH234909   3.935   2.781  12.925  0.3830 -0.2981 -0.1107
 4473TIP3    H134910   3.960   2.871  12.901  0.5409 -0.1666  0.5250
 4473TIP3    H234911   4.018   2.735  12.935  0.3352 -0.2453  0.5619
 4474TIP3   OH234912   1.211   0.197  14.158  0.3365  0.0555  0.5758
 4474TIP3    H134913   1.219   0.205  14.063  0.3343 -0.8659  0.4904
 4474TIP3    H234914   1.225   0.286  14.191 -0.2576  0.5009 -0.3226
 4475TIP3   OH234915   5.606   5.162  15.420 -1.0736 -0.1283 -0.3446
 4475TIP3    H134916   5.576   5.111  15.495 -0.2866  1.3160  1.0076
 4475TIP3    H234917   5.547   5.238  15.417  0.2312  0.9448  0.1997
 4476TIP3   OH234918   5.098   4.901  16.331  0.1302 -0.3688 -0.5144
 4476TIP3    H134919   5.113   4.953  16.410  1.5233 -2.7448  0.9310
 4476TIP3    H234920   5.165   4.832  16.335 -0.4831 -1.2444 -3.2016
 4477TIP3   OH234921   1.025   0.838  12.363  0.0250 -0.2440 -0.6241
 4477TIP3    H134922   1.048   0.874  12.278 -0.4574 -1.3071 -1.2211
 4477TIP3    H234923   1.105   0.794  12.393  0.0004 -0.4257 -0.8245
 4478TIP3   OH234924   0.778   1.766  16.731  0.0048 -0.2045  0.3088
 4478TIP3    H134925   0.835   1.822  16.678 -0.8023  0.1863 -0.1615
 4478TIP3    H234926   0.715   1.730  16.668 -1.3434  0.7358  1.0769
 4479TIP3   OH234927   3.450   4.097  16.873 -0.0867  0.3427 -0.2821
 4479TIP3    H134928   3.530   4.145  16.853 -0.4474  0.4948 -1.4341
 4479TIP3    H234929   3.470   4.006  16.851  0.6778 -0.1422  2.1301
 4480TIP3   OH234930   3.660   1.495  10.907  0.1450 -0.1249  0.2553
 4480TIP3    H134931   3.568   1.483  10.881 -0.3244 -1.1139  2.1598
 4480TIP3    H234932   3.711   1.455  10.836 -0.9059 -0.1525 -0.5105
 4481TIP3   OH234933   6.617   0.433   5.218  0.3160  0.3035 -0.0982
 4481TIP3    H134934   6.693   0.374   5.221 -1.3195 -2.0140 -0.8758
 4481TIP3    H234935   6.545   0.379   5.250 -1.1283  2.2738  0.1336
 4482TIP3   OH234936   0.912   1.490   1.793  0.1837 -0.0520  0.2738
 4482TIP3    H134937   0.887   1.583   1.792 -0.2774 -0.1684  0.5122
 4482TIP3    H234938   0.831   1.444   1.771 -0.2657 -0.5333  2.6510
 4483TIP3   OH234939   3.058   5.510  15.127 -0.3243  0.3360 -0.4009
 4483TIP3    H134940   3.107   5.428  15.114 -0.4144  0.1426  0.4320
 4483TIP3    H234941   3.012   5.497  15.209  0.1852  1.4899  0.0878
 4484TIP3   OH234942   5.828   6.397   3.413  0.3247 -0.1956  0.2534
 4484TIP3    H134943   5.881   6.337   3.361  0.6978 -0.2057  0.6433
 4484TIP3    H234944   5.765   6.434   3.350 -0.6704 -1.8484  0.2274
 4485TIP3   OH234945   1.170   5.873  15.547 -0.0544 -0.0002  0.6971
 4485TIP3    H134946   1.084   5.843  15.521  0.4637 -1.3646  0.4707
 4485TIP3    H234947   1.158   5.906  15.636 -0.8745  0.1761  0.5263
 4486TIP3   OH234948   3.537   6.772  14.309  0.5028  0.3342 -0.5698
 4486TIP3    H134949   3.481   6.816  14.245 -0.4515  0.6801  0.4582
 4486TIP3    H234950   3.592   6.713  14.258 -0.1704  0.6701 -1.7006
 4487TIP3   OH234951   0.817   3.864  12.201 -0.1325 -0.6562 -0.2642
 4487TIP3    H134952   0.821   3.938  12.261 -1.5124 -1.2149  0.5560
 4487TIP3    H234953   0.759   3.893  12.131  1.9019  0.1956 -1.6792
 4488TIP3   OH234954   0.849   4.718   4.519  0.4460  0.0152 -0.4305
 4488TIP3    H134955   0.824   4.773   4.593 -1.2311 -1.1382 -0.0593
 4488TIP3    H234956   0.780   4.732   4.454  1.7054  0.7382 -1.6553
 4489TIP3   OH234957   6.038   3.632  15.813  0.0470  0.0436 -0.1613
 4489TIP3    H134958   6.119   3.598  15.851 -0.2294 -2.4000 -1.5439
 4489TIP3    H234959   6.061   3.719  15.780  2.0271 -0.4919 -0.3000
 4490TIP3   OH234960   3.454   1.796   5.334 -0.0453 -0.0011 -0.1589
 4490TIP3    H134961   3.403   1.754   5.404 -0.7088  0.1779 -0.5244
 4490TIP3    H234962   3.469   1.725   5.270  0.2189 -0.0684 -0.0233
 4491TIP3   OH234963   0.889   6.008  12.115 -0.7005  0.0128  0.0010
 4491TIP3    H134964   0.898   6.018  12.020  3.3725 -2.9059 -0.2133
 4491TIP3    H234965   0.948   6.073  12.152 -1.4260  0.3991  0.5048
 4492TIP3   OH234966   6.626   3.886   5.048 -0.5271  0.3461  0.2735
 4492TIP3    H134967   6.544   3.930   5.070 -1.7127 -0.5604 -1.9604
 4492TIP3    H234968   6.613   3.796   5.077  0.9207  0.8113  2.5955
 4493TIP3   OH234969   0.503   4.110   3.691  0.4521  0.1546 -0.7675
 4493TIP3    H134970   0.478   4.171   3.622  1.8671 -0.6357 -2.0346
 4493TIP3    H234971   0.448   4.033   3.676 -1.4391  1.0632  0.9192
 4494TIP3   OH234972   2.430   5.818  11.676 -0.5064  0.2563  0.0057
 4494TIP3    H134973   2.474   5.738  11.707 -1.7022  0.8776  3.8043
 4494TIP3    H234974   2.483   5.889  11.711 -0.5825  1.1469 -1.6171
 4495TIP3   OH234975   0.529   4.978   0.883 -0.2300 -0.1751 -0.3450
 4495TIP3    H134976   0.478   5.046   0.927 -1.8551 -0.4383 -1.6894
 4495TIP3    H234977   0.467   4.907   0.870  0.3387 -0.3579 -2.4212
 4496TIP3   OH234978   3.458   4.537   0.472  0.1200  0.3281  0.3693
 4496TIP3    H134979   3.384   4.523   0.413  0.5690 -1.1554  0.1126
 4496TIP3    H234980   3.428   4.506   0.557  0.2668  0.2304  0.3864
 4497TIP3   OH234981   3.019   2.892   0.379 -0.4402  0.0260 -0.4631
 4497TIP3    H134982   3.083   2.911   0.311  0.6898  2.0550  1.0578
 4497TIP3    H234983   3.071   2.856   0.451 -1.1388  0.7491  0.4232
 4498TIP3   OH234984   5.504   6.348  10.666  0.9219  0.0674 -0.0432
 4498TIP3    H134985   5.573   6.414  10.674  1.5682 -0.6954  0.8822
 4498TIP3    H234986   5.499   6.307  10.752 -0.9450  0.3310  0.0241
 4499TIP3   OH234987   5.632   4.725   3.891 -0.3706 -0.0612  0.5860
 4499TIP3    H134988   5.604   4.634   3.876 -1.7020  0.1935  1.4006
 4499TIP3    H234989   5.576   4.777   3.834 -0.7725  0.3709  1.3633
 4500TIP3   OH234990   1.282   2.442  10.960 -0.2998  0.2714  0.3134
 4500TIP3    H134991   1.224   2.499  10.909 -0.1067  0.1510 -0.0435
 4500TIP3    H234992   1.309   2.373  10.899 -1.0205 -0.5588  0.9111
 4501TIP3   OH234993   6.761   1.257   6.577 -0.3225  0.1741  0.8699
 4501TIP3    H134994   6.853   1.257   6.550 -0.6631 -1.1847 -0.4563
 4501TIP3    H234995   6.729   1.170   6.552 -1.6043  0.1010  2.6138
 4502TIP3   OH234996   3.371   0.227  12.424  0.5534  0.4782 -0.2167
 4502TIP3    H134997   3.380   0.261  12.335 -1.4493  1.3604 -0.1358
 4502TIP3    H234998   3.286   0.259  12.454 -0.2179 -2.2834  0.9172
 4503TIP3   OH234999   1.247   2.294  12.269  0.3407  0.0423 -0.3068
 4503TIP3    H135000   1.155   2.274  12.283  0.6836 -0.2481  1.9190
 4503TIP3    H235001   1.249   2.343  12.187 -1.7937  0.1348 -0.3518
 4504TIP3   OH235002   3.390   5.869   3.324  0.1947 -0.2230  0.3420
 4504TIP3    H135003   3.369   5.946   3.271  0.8832 -2.3410 -3.3776
 4504TIP3    H235004   3.473   5.891   3.366  0.0892  1.2579 -0.1669
 4505TIP3   OH235005   3.564   3.129  15.594 -0.2807  0.4580  0.6329
 4505TIP3    H135006   3.627   3.196  15.619 -1.4916  1.2847  1.5880
 4505TIP3    H235007   3.500   3.175  15.539 -0.5373 -0.1531  0.4103
 4506TIP3   OH235008   5.550   4.741   5.240 -0.1046 -0.1956 -0.2206
 4506TIP3    H135009   5.560   4.814   5.302  0.5523 -1.3944  1.1520
 4506TIP3    H235010   5.634   4.695   5.244  0.3917  0.3062 -2.9057
 4507TIP3   OH235011   3.637   0.261  11.161  0.0527 -0.2159  0.5716
 4507TIP3    H135012   3.687   0.241  11.082  0.1045  0.8641  0.3173
 4507TIP3    H235013   3.606   0.175  11.192  2.9662 -1.0834  1.3762
 4508TIP3   OH235014   6.170   4.857   6.245 -0.5088 -0.4030 -0.2791
 4508TIP3    H135015   6.103   4.798   6.209 -1.8122  0.6336  0.3621
 4508TIP3    H235016   6.246   4.800   6.261 -1.3478 -1.6902 -0.6770
 4509TIP3   OH235017   5.793   3.269   4.235 -0.0436 -0.0620 -0.0217
 4509TIP3    H135018   5.768   3.193   4.286  0.4217 -1.1755 -1.3782
 4509TIP3    H235019   5.712   3.299   4.195  0.1051 -1.3432 -1.3812
 4510TIP3   OH235020   1.251   4.159   1.071 -0.2956  0.3005 -0.3250
 4510TIP3    H135021   1.271   4.252   1.062  1.4893  0.0615  0.6453
 4510TIP3    H235022   1.168   4.156   1.119 -1.2911  1.3631 -1.8987
 4511TIP3   OH235023   5.906   6.786  15.044  0.3904  0.0028  0.0269
 4511TIP3    H135024   5.869   6.875  15.040  0.6269  0.0614 -2.5407
 4511TIP3    H235025   5.832   6.731  15.069 -0.1490  0.7523  0.1356
 4512TIP3   OH235026   0.770   1.574  11.895 -0.1433  0.0686 -0.1677
 4512TIP3    H135027   0.801   1.496  11.941 -0.1314  0.6050  0.7784
 4512TIP3    H235028   0.838   1.593  11.830  1.4123  1.0179  1.6259
 4513TIP3   OH235029   6.182   2.595   5.911 -0.1374 -0.3599 -0.3348
 4513TIP3    H135030   6.112   2.534   5.889 -1.4386  1.4061 -1.3862
 4513TIP3    H235031   6.137   2.676   5.935  1.5272  0.3448  0.5932
 4514TIP3   OH235032   3.885   4.831  14.048 -0.1666 -0.3140 -0.0353
 4514TIP3    H135033   3.954   4.891  14.019 -0.4272 -1.0695 -2.4124
 4514TIP3    H235034   3.811   4.851  13.992 -0.3557 -2.6030 -0.7061
 4515TIP3   OH235035   5.454   2.537   3.813 -0.1949  0.2947  0.4439
 4515TIP3    H135036   5.545   2.516   3.794 -0.5478  0.2199 -1.3456
 4515TIP3    H235037   5.457   2.580   3.899  1.5902  0.8383  0.1602
 4516TIP3   OH235038   0.705   3.133  13.442 -0.1781  0.3852  0.0724
 4516TIP3    H135039   0.770   3.201  13.459  0.0329  0.1898  0.0470
 4516TIP3    H235040   0.681   3.145  13.350  0.5755 -0.1881 -0.2041
 4517TIP3   OH235041   3.867   0.986  13.766 -0.0009  0.2660  0.0153
 4517TIP3    H135042   3.840   1.078  13.772  0.2899  0.5590 -2.2527
 4517TIP3    H235043   3.963   0.990  13.767  0.0821  0.2671 -2.2575
 4518TIP3   OH235044   6.584   5.336   4.347  0.2888  0.1822 -0.5274
 4518TIP3    H135045   6.658   5.284   4.316  1.0569  0.9979 -0.0771
 4518TIP3    H235046   6.509   5.276   4.340  0.7524 -0.2576 -2.1485
 4519TIP3   OH235047   4.792   1.340   5.970  0.9926  0.1386 -0.0518
 4519TIP3    H135048   4.832   1.260   5.936 -2.0996 -1.7466  0.3677
 4519TIP3    H235049   4.802   1.333   6.065 -2.8910 -2.1043  0.3898
 4520TIP3   OH235050   1.815   2.676   1.059  0.3562  0.0705 -0.0146
 4520TIP3    H135051   1.777   2.763   1.052 -0.1282 -0.2639 -2.2175
 4520TIP3    H235052   1.818   2.643   0.969  2.9643 -1.1665  0.4190
 4521TIP3   OH235053   4.487   4.777  10.898 -0.2387  0.2949  0.4152
 4521TIP3    H135054   4.514   4.710  10.835  3.4508 -0.6760  2.6912
 4521TIP3    H235055   4.447   4.728  10.969 -0.9143  0.9713  0.5208
 4522TIP3   OH235056   0.320   6.100  17.300 -0.0784  0.1079 -0.5726
 4522TIP3    H135057   0.318   6.006  17.317  3.0182  0.1895  1.1857
 4522TIP3    H235058   0.389   6.111  17.234  1.2424  1.2050  0.8910
 4523TIP3   OH235059   4.539   4.090  13.447 -0.1892  0.2264 -0.0077
 4523TIP3    H135060   4.471   4.024  13.436  0.6991 -0.8574  0.8549
 4523TIP3    H235061   4.598   4.053  13.512  1.3112  1.0939 -0.8355
 4524TIP3   OH235062   2.344   4.740   2.397 -0.4080 -0.4939 -0.6508
 4524TIP3    H135063   2.416   4.713   2.454 -0.4334 -0.2810 -0.5215
 4524TIP3    H235064   2.342   4.835   2.402 -0.7788 -0.5036 -0.5590
 4525TIP3   OH235065   0.649   2.977  15.459 -0.3350  0.5717  0.1291
 4525TIP3    H135066   0.635   2.894  15.505  0.1993  0.1821 -0.3970
 4525TIP3    H235067   0.580   2.979  15.392 -0.2310  0.4643  0.0192
 4526TIP3   OH235068   1.355   4.029  14.337  0.0144 -0.2230 -0.2454
 4526TIP3    H135069   1.288   3.966  14.361  0.3136 -1.0443 -1.4412
 4526TIP3    H235070   1.309   4.113  14.331 -0.3334 -0.2484  1.6504
 4527TIP3   OH235071   0.559   2.582  15.781  0.2382 -0.5014  0.1895
 4527TIP3    H135072   0.486   2.547  15.834  1.0142 -1.9781  0.3170
 4527TIP3    H235073   0.528   2.575  15.691  0.4049 -1.6121  0.2075
 4528TIP3   OH235074   0.293   5.338  13.485  0.4583 -0.5012 -0.1952
 4528TIP3    H135075   0.261   5.366  13.570  1.7092 -1.5300  0.6515
 4528TIP3    H235076   0.264   5.248  13.476 -0.1358 -0.2343 -1.1222
 4529TIP3   OH235077   5.569   4.334   0.038 -0.2250 -0.3270 -0.3094
 4529TIP3    H135078   5.598   4.387  -0.036  1.6182 -1.0423 -0.1608
 4529TIP3    H235079   5.649   4.317   0.088 -0.9792 -2.0636  0.3867
 4530TIP3   OH235080   3.354   0.631  16.439  0.7159 -0.3044 -0.1456
 4530TIP3    H135081   3.380   0.720  16.465  1.8253 -0.7177  0.2477
 4530TIP3    H235082   3.416   0.608  16.370  0.6141 -0.8792 -0.0419
 4531TIP3   OH235083   6.553   5.473   1.482 -0.2921  0.2164 -0.1808
 4531TIP3    H135084   6.558   5.566   1.462 -2.9195  0.5897  0.5908
 4531TIP3    H235085   6.632   5.456   1.535  0.2392  1.9760 -0.3471
 4532TIP3   OH235086   2.126   5.972   3.153  0.3251  0.3670  0.3845
 4532TIP3    H135087   2.112   6.017   3.236 -0.8585  0.1570  0.3117
 4532TIP3    H235088   2.184   6.031   3.104  0.8742  0.5820  1.2685
 4533TIP3   OH235089   1.312   5.418   5.122 -0.1342 -0.4142 -0.1560
 4533TIP3    H135090   1.269   5.483   5.178 -0.8414  0.6879 -1.9154
 4533TIP3    H235091   1.241   5.377   5.073  0.5070 -1.0596 -0.5696
 4534TIP3   OH235092   6.705   0.204   2.037 -0.4831  0.6843  0.3021
 4534TIP3    H135093   6.614   0.222   2.015 -0.7403  0.5096  1.1653
 4534TIP3    H235094   6.723   0.258   2.114  0.7900  2.2866 -1.0316
 4535TIP3   OH235095   0.297   4.257   5.162  0.0051 -0.4567  0.1021
 4535TIP3    H135096   0.329   4.322   5.224  2.5143 -1.5213  0.0318
 4535TIP3    H235097   0.247   4.195   5.215  1.5145 -0.9556  0.9933
 4536TIP3   OH235098   4.910   2.886  16.429  0.4245 -0.0759 -0.3858
 4536TIP3    H135099   4.918   2.891  16.524  0.0596 -2.0327 -0.2092
 4536TIP3    H235100   5.000   2.887  16.396  0.7740 -2.5080  0.2484
 4537TIP3   OH235101   3.699   4.531  11.349 -0.1307  0.1356 -0.5650
 4537TIP3    H135102   3.774   4.558  11.296 -0.1636  2.2542  0.3846
 4537TIP3    H235103   3.669   4.611  11.391 -2.0704 -0.9267  0.1853
 4538TIP3   OH235104   6.008   0.272  13.811 -0.2031 -0.0467  0.5759
 4538TIP3    H135105   6.041   0.193  13.768 -2.1970  0.0134 -1.1787
 4538TIP3    H235106   6.074   0.292  13.877  2.6653 -0.6121 -1.8965
 4539TIP3   OH235107   1.395   5.488   3.302  0.6018  0.0874  0.1723
 4539TIP3    H135108   1.344   5.418   3.263  1.0641  1.0621 -2.4305
 4539TIP3    H235109   1.453   5.445   3.365 -1.1627 -1.4135  0.8322
 4540TIP3   OH235110   0.187   6.210   3.445 -0.4638  0.9075  0.1466
 4540TIP3    H135111   0.179   6.284   3.505  1.7428  0.8571  0.5713
 4540TIP3    H235112   0.192   6.133   3.501 -1.8259  0.4989 -0.2590
 4541TIP3   OH235113   2.911   2.250  16.135  0.2379  0.1197 -0.1313
 4541TIP3    H135114   2.898   2.298  16.053 -0.0135  1.4878  0.6688
 4541TIP3    H235115   2.822   2.234  16.167  0.3401 -0.0851  0.0499
 4542TIP3   OH235116   4.051   2.750   0.268 -0.0055 -0.1630  0.0390
 4542TIP3    H135117   4.034   2.657   0.281 -0.3648 -0.1701 -0.4555
 4542TIP3    H235118   4.138   2.764   0.306 -0.8039 -0.2502  2.0546
 4543TIP3   OH235119   3.583   0.961   3.664  0.7594 -0.1117 -0.0885
 4543TIP3    H135120   3.653   0.895   3.664 -0.0237 -0.9802 -0.8374
 4543TIP3    H235121   3.539   0.950   3.748  2.1153  1.1453  0.8485
 4544TIP3   OH235122   3.382   1.349   0.417 -0.8348  0.2373  0.3848
 4544TIP3    H135123   3.436   1.271   0.397 -0.1778  0.9414 -0.7201
 4544TIP3    H235124   3.414   1.379   0.502 -0.9361 -0.5610  0.7142
 4545TIP3   OH235125   3.745   1.870   1.225 -0.4207  0.2566  0.8881
 4545TIP3    H135126   3.811   1.831   1.167  0.5076  0.4755  1.7463
 4545TIP3    H235127   3.755   1.964   1.213 -0.5757  0.2893  1.0213
 4546TIP3   OH235128   3.808   2.535  16.875 -0.7620 -0.0355  0.2266
 4546TIP3    H135129   3.781   2.458  16.825 -1.6186 -0.1563  0.8577
 4546TIP3    H235130   3.903   2.532  16.874 -0.7842 -1.3178  0.5598
 4547TIP3   OH235131   2.557   3.558   5.570 -0.0306 -0.6767 -0.1257
 4547TIP3    H135132   2.536   3.612   5.494  0.0075  0.6230  0.7632
 4547TIP3    H235133   2.495   3.585   5.638  1.1237 -0.4896  0.8873
 4548TIP3   OH235134   5.374   1.360  12.088 -0.5196  0.3229  0.0794
 4548TIP3    H135135   5.468   1.381  12.086 -0.5017  0.2792  0.4713
 4548TIP3    H235136   5.343   1.384  12.001  0.3187 -1.7461 -0.8695
 4549TIP3   OH235137   5.469   5.806  13.168  0.2204  0.3969  0.1147
 4549TIP3    H135138   5.529   5.861  13.118  0.2564  0.6058  0.3814
 4549TIP3    H235139   5.509   5.800  13.255 -0.5866  1.3060  0.5750
 4550TIP3   OH235140   3.771   1.259   5.390  0.2244 -0.3686  0.0694
 4550TIP3    H135141   3.819   1.245   5.472 -0.4434 -0.0691  0.5167
 4550TIP3    H235142   3.798   1.346   5.360 -0.5928  0.1183  0.7129
 4551TIP3   OH235143   1.197   4.443   3.939  0.1322  0.1585 -0.7243
 4551TIP3    H135144   1.282   4.457   3.898  1.0540 -1.5631  0.4551
 4551TIP3    H235145   1.205   4.484   4.025 -0.3298  0.2218 -0.7076
 4552TIP3   OH235146   1.557   3.524  15.461 -0.3216  0.1675 -0.1569
 4552TIP3    H135147   1.467   3.494  15.468 -0.3334 -0.7344 -2.8279
 4552TIP3    H235148   1.609   3.446  15.480 -0.2843 -0.7003 -3.2661
 4553TIP3   OH235149   6.155   4.409   0.866  0.1314 -0.1384  0.2655
 4553TIP3    H135150   6.124   4.415   0.776 -1.1551  1.5356  0.7776
 4553TIP3    H235151   6.223   4.476   0.872  1.0175 -1.0118  0.2678
 4554TIP3   OH235152   6.447   3.369   2.125 -0.3173  0.2772 -0.1612
 4554TIP3    H135153   6.500   3.423   2.184  1.4425 -0.4547 -1.0094
 4554TIP3    H235154   6.496   3.287   2.117 -2.0254 -0.7792 -0.3256
 4555TIP3   OH235155   4.317   3.452  12.693  0.2533 -0.1180  0.2101
 4555TIP3    H135156   4.387   3.395  12.659  1.6990  0.4533  2.0295
 4555TIP3    H235157   4.256   3.461  12.620  1.2925 -1.8912 -0.9729
 4556TIP3   OH235158   1.427   5.432   4.735 -0.0494  0.0391  0.3248
 4556TIP3    H135159   1.478   5.512   4.724  0.3501  0.2021  2.8370
 4556TIP3    H235160   1.338   5.463   4.753 -0.2575 -0.1594 -0.3149
 4557TIP3   OH235161   5.414   0.286  11.376  0.1049  0.0157  0.2494
 4557TIP3    H135162   5.439   0.199  11.408 -1.3647 -1.9875 -3.4465
 4557TIP3    H235163   5.319   0.285  11.376  0.0705  1.3568 -0.4357
 4558TIP3   OH235164   4.161   5.389   2.627  0.5702  0.1131 -0.0606
 4558TIP3    H135165   4.219   5.452   2.584  0.8321 -0.8672 -1.1815
 4558TIP3    H235166   4.218   5.340   2.686  0.8102 -0.5322 -0.8131
 4559TIP3   OH235167   1.685   3.062  16.295  0.1526 -0.4730  0.2620
 4559TIP3    H135168   1.669   2.999  16.365  0.3458 -2.1445 -1.1241
 4559TIP3    H235169   1.623   3.038  16.226  2.1946 -1.1066 -1.4896
 4560TIP3   OH235170   2.329   4.864  16.107 -0.0893  0.0316  0.1413
 4560TIP3    H135171   2.331   4.768  16.107  0.5313  0.0382  0.5393
 4560TIP3    H235172   2.377   4.889  16.186  0.1919  0.6794 -0.2268
 4561TIP3   OH235173   3.054   4.983  15.006  0.1511 -0.1941 -0.3269
 4561TIP3    H135174   3.118   5.051  15.021  1.8352 -1.5026 -1.2354
 4561TIP3    H235175   2.977   5.029  14.973 -0.3202  1.6739  2.9935
 4562TIP3   OH235176   6.606   3.765  11.340 -0.5012  0.1846 -0.0077
 4562TIP3    H135177   6.587   3.672  11.352 -1.3616  0.3648  0.1323
 4562TIP3    H235178   6.597   3.780  11.246 -0.8455  0.2190  0.0284
 4563TIP3   OH235179   3.951   3.883  16.838 -0.2381 -0.1413 -0.7028
 4563TIP3    H135180   3.915   3.834  16.765  0.8466 -0.7158 -0.8773
 4563TIP3    H235181   4.042   3.854  16.844  0.5145  2.0161 -0.9493
 4564TIP3   OH235182   3.562   3.575  11.816  0.1810  0.4351 -0.5512
 4564TIP3    H135183   3.595   3.623  11.893 -1.6672  3.2017 -1.3670
 4564TIP3    H235184   3.537   3.643  11.754 -2.6467 -1.5685 -1.8100
 4565TIP3   OH235185   5.663   4.956  13.012 -0.4611 -0.3143  0.2470
 4565TIP3    H135186   5.639   4.885  12.952 -1.9619 -1.0676  1.6249
 4565TIP3    H235187   5.758   4.960  13.008 -0.4941 -0.3611 -2.0843
 4566TIP3   OH235188   4.102   4.788  15.119  0.5865  0.4569  0.9079
 4566TIP3    H135189   4.121   4.710  15.171  1.6062 -0.0994 -0.2456
 4566TIP3    H235190   4.055   4.755  15.043  0.8258  0.9989  0.5203
 4567TIP3   OH235191   0.287   6.269  13.226 -0.2340 -0.0017  0.8624
 4567TIP3    H135192   0.347   6.343  13.227  2.6570 -2.1534 -0.0568
 4567TIP3    H235193   0.219   6.294  13.164  1.8145  1.1087 -1.0654
 4568TIP3   OH235194   2.844   4.932  10.731 -0.2212  0.2762 -0.4991
 4568TIP3    H135195   2.799   5.015  10.717  0.4849  0.5075 -1.4132
 4568TIP3    H235196   2.937   4.952  10.719 -0.1648 -1.0440 -2.8592
 4569TIP3   OH235197   6.792   2.775   5.611  0.2463 -0.2209  0.2256
 4569TIP3    H135198   6.781   2.742   5.700  2.3069 -0.1791  0.5274
 4569TIP3    H235199   6.858   2.843   5.617  1.3016 -1.0023 -1.4762
 4570TIP3   OH235200   5.418   6.653   0.326  0.3838 -0.0365 -0.3778
 4570TIP3    H135201   5.425   6.731   0.382 -1.3612  0.7136 -1.1505
 4570TIP3    H235202   5.346   6.602   0.364  1.0552 -0.9546 -0.2951
 4571TIP3   OH235203   2.195   5.232  10.854  0.0030 -0.3149 -0.3061
 4571TIP3    H135204   2.181   5.318  10.894  0.9302 -0.4470  0.3451
 4571TIP3    H235205   2.267   5.246  10.792 -0.1770 -0.5211 -0.5647
 4572TIP3   OH235206   1.480   0.448   1.144  0.4125  0.2322 -0.0045
 4572TIP3    H135207   1.485   0.516   1.211  2.0183 -0.2726  0.4343
 4572TIP3    H235208   1.503   0.367   1.191  0.5485 -0.2871 -0.9470
 4573TIP3   OH235209   1.540   1.375  14.079  0.6852 -0.1661 -0.5282
 4573TIP3    H135210   1.629   1.343  14.063  0.4849  0.1724 -2.5580
 4573TIP3    H235211   1.485   1.321  14.023 -0.6861 -1.5568  1.9714
 4574TIP3   OH235212   3.537   5.869   5.519  0.6670  0.0543  0.2682
 4574TIP3    H135213   3.469   5.820   5.565  2.2757 -0.3612  2.3519
 4574TIP3    H235214   3.588   5.802   5.473  1.8672 -0.1006  1.7631
 4575TIP3   OH235215   5.218   5.745  13.051 -0.4813 -0.5587 -0.0522
 4575TIP3    H135216   5.212   5.827  13.003  0.2790 -1.4061 -1.6979
 4575TIP3    H235217   5.311   5.735  13.071  0.4494 -3.2466 -4.2937
 4576TIP3   OH235218   5.631   4.245   6.447 -0.0054 -0.1336  0.0195
 4576TIP3    H135219   5.687   4.289   6.511  3.0083 -1.3422 -1.5499
 4576TIP3    H235220   5.620   4.308   6.376  2.4308 -0.9166 -1.2055
 4577TIP3   OH235221   5.549   1.969   4.752 -0.4233  0.5918 -0.4040
 4577TIP3    H135222   5.591   2.016   4.825  0.0010  1.9641 -1.4882
 4577TIP3    H235223   5.619   1.920   4.711 -0.6069  0.0388 -0.0621
 4578TIP3   OH235224   5.303   3.867  13.950  0.0137  0.3116  0.1510
 4578TIP3    H135225   5.209   3.849  13.939  0.2797 -3.3077  2.3003
 4578TIP3    H235226   5.306   3.938  14.014 -1.2230  1.1965 -0.7174
 4579TIP3   OH235227   3.602   2.363   5.704  0.1158  0.0835 -0.3272
 4579TIP3    H135228   3.556   2.310   5.640 -1.2417  0.1728  0.5391
 4579TIP3    H235229   3.592   2.316   5.787  0.3064  0.8559  0.1536
 4580TIP3   OH235230   5.085   5.843   2.645  0.2055  0.0631 -0.1718
 4580TIP3    H135231   4.992   5.825   2.661  0.6199  0.6237  4.0244
 4580TIP3    H235232   5.090   5.938   2.635  0.3840  0.1362  0.5460
 4581TIP3   OH235233   2.185   3.066   0.633 -0.1185 -0.4110  0.4042
 4581TIP3    H135234   2.210   3.032   0.719  0.4518 -0.6821  0.1352
 4581TIP3    H235235   2.262   3.052   0.578  0.3902  1.8592  0.4329
 4582TIP3   OH235236   2.098   0.374  14.454 -1.1647 -0.0283 -0.2140
 4582TIP3    H135237   2.137   0.425  14.525 -0.6055  0.0551 -0.5780
 4582TIP3    H235238   2.007   0.405  14.449 -1.4945 -0.7040  1.0941
 4583TIP3   OH235239   6.266   0.949   2.185 -0.3932 -0.0847 -0.7483
 4583TIP3    H135240   6.240   0.984   2.270 -1.0791 -2.8977  0.3085
 4583TIP3    H235241   6.361   0.961   2.182 -0.4104  0.3973  0.2202
 4584TIP3   OH235242   6.220   6.308  10.586  0.1381  0.1421  0.3623
 4584TIP3    H135243   6.304   6.351  10.602  1.2291 -1.0898 -1.6729
 4584TIP3    H235244   6.227   6.223  10.630 -0.4456  0.4225  1.0140
 4585TIP3   OH235245   1.787   1.148   0.064  0.7306 -0.2769 -0.4580
 4585TIP3    H135246   1.874   1.186   0.068  0.3428  0.8314 -1.6940
 4585TIP3    H235247   1.738   1.205   0.005 -1.1508 -0.2692  1.0020
 4586TIP3   OH235248   0.477   1.068   6.130 -0.6661  0.0973  0.9704
 4586TIP3    H135249   0.408   1.081   6.064  0.8240 -0.5679 -0.8283
 4586TIP3    H235250   0.502   0.976   6.119  0.6631  0.3940  1.3903
 4587TIP3   OH235251   1.266   3.661   0.523  1.1833 -0.3848 -0.1438
 4587TIP3    H135252   1.257   3.694   0.613  0.6229  1.0503 -0.6953
 4587TIP3    H235253   1.331   3.719   0.483  0.7084 -0.3911 -0.9339
 4588TIP3   OH235254   5.629   1.994   5.949  0.0899  0.2664 -0.5178
 4588TIP3    H135255   5.604   2.025   6.036  0.1746  0.6497 -0.6293
 4588TIP3    H235256   5.725   1.995   5.950  0.2187 -2.9239  0.5392
 4589TIP3   OH235257   0.562   2.825   4.102  0.0167  0.4092 -0.5424
 4589TIP3    H135258   0.644   2.804   4.147 -0.1906  2.4914  0.9418
 4589TIP3    H235259   0.589   2.848   4.013  1.0907  1.2706 -0.0122
 4590TIP3   OH235260   3.810   6.602   5.844  0.4878 -0.7727  0.2183
 4590TIP3    H135261   3.805   6.688   5.886 -1.2570 -0.6755 -0.1198
 4590TIP3    H235262   3.902   6.593   5.820  0.8137  0.7503  0.7647
 4591TIP3   OH235263   2.752   6.158  15.468 -0.6651 -0.3261  0.0208
 4591TIP3    H135264   2.808   6.106  15.525 -1.5197  0.5287  1.7149
 4591TIP3    H235265   2.793   6.153  15.382  1.3290 -0.6918  0.9447
 4592TIP3   OH235266   6.524   1.084   1.223  0.7901  0.1449 -0.0474
 4592TIP3    H135267   6.438   1.059   1.189 -0.2059  1.7062  1.2063
 4592TIP3    H235268   6.583   1.073   1.148 -0.9287  1.3631 -1.6596
 4593TIP3   OH235269   2.121   3.141  12.970 -0.7092 -0.2107 -0.1096
 4593TIP3    H135270   2.100   3.062  13.020  1.6525 -0.4253  0.6844
 4593TIP3    H235271   2.152   3.203  13.036 -1.0608  0.8386 -0.9087
 4594TIP3   OH235272   6.762   4.053  12.069 -0.2392  0.5550  0.3246
 4594TIP3    H135273   6.847   4.058  12.113 -0.4225  1.2810  0.6296
 4594TIP3    H235274   6.709   4.120  12.114 -1.2777 -0.5560  0.8021
 4595TIP3   OH235275   5.012   0.464  14.182 -0.1606  0.0504  0.0414
 4595TIP3    H135276   5.001   0.399  14.251  0.1113 -0.4825 -0.4098
 4595TIP3    H235277   5.044   0.414  14.106 -1.4265  0.4469 -0.7850
 4596TIP3   OH235278   4.726   3.530   0.661 -0.2855 -0.1063  0.4166
 4596TIP3    H135279   4.641   3.506   0.622 -0.5150 -0.8870  1.3441
 4596TIP3    H235280   4.740   3.463   0.729  0.0603  1.2111  1.7009
 4597TIP3   OH235281   0.443   6.627  13.783  0.3126  0.2568 -0.1183
 4597TIP3    H135282   0.438   6.531  13.785 -0.0313  0.2090 -2.0271
 4597TIP3    H235283   0.360   6.655  13.745  1.0066  1.2199 -0.9917
 4598TIP3   OH235284   2.792   2.826   1.463  0.0148  0.3807  0.0141
 4598TIP3    H135285   2.833   2.815   1.548  1.0259  1.2558 -0.3349
 4598TIP3    H235286   2.745   2.909   1.470 -1.6078 -0.5219  0.3501
 4599TIP3   OH235287   0.882   1.045   6.803 -0.0581 -0.0410 -0.1516
 4599TIP3    H135288   0.976   1.028   6.818 -0.8991 -3.0513  3.1717
 4599TIP3    H235289   0.873   1.139   6.816  2.4326  0.2649  0.0157
 4600TIP3   OH235290   6.526   4.315  14.195 -0.4113 -0.2310 -0.8799
 4600TIP3    H135291   6.605   4.263  14.181  0.1654  0.6430 -0.9435
 4600TIP3    H235292   6.507   4.305  14.288 -0.0758 -0.2426 -0.8109
 4601TIP3   OH235293   6.453   4.085   0.221  0.1304  0.1486  0.2670
 4601TIP3    H135294   6.360   4.101   0.237  0.6980  1.1094  3.3474
 4601TIP3    H235295   6.475   4.012   0.280  1.3381 -0.0890 -0.4386
 4602TIP3   OH235296   5.135   6.153  14.037  0.0070  0.1048 -0.0066
 4602TIP3    H135297   5.208   6.152  13.976 -0.7780  0.5986 -0.9786
 4602TIP3    H235298   5.132   6.064  14.073  0.8422 -0.0220 -0.2308
 4603TIP3   OH235299   2.067   3.502   1.549  0.2488 -0.1195 -0.2237
 4603TIP3    H135300   2.074   3.482   1.643  1.7003  0.3364 -0.2172
 4603TIP3    H235301   2.010   3.433   1.515 -2.1037  0.9217  1.3343
 4604TIP3   OH235302   4.055   0.764   1.635 -0.3804  0.1169 -0.2300
 4604TIP3    H135303   4.061   0.782   1.729  0.1588 -3.5417  0.5928
 4604TIP3    H235304   4.124   0.818   1.596  1.2983 -0.3377  1.8917
 4605TIP3   OH235305   5.296   1.509  16.919 -0.5002  0.0189  0.1343
 4605TIP3    H135306   5.298   1.423  16.879  0.6442  0.4761 -0.8547
 4605TIP3    H235307   5.207   1.541  16.904 -0.5994 -0.5329 -0.4982
 4606TIP3   OH235308   5.618   0.311   5.952  0.7630 -0.3138 -0.0228
 4606TIP3    H135309   5.560   0.322   5.877 -1.2003 -2.5140  1.0278
 4606TIP3    H235310   5.575   0.360   6.022  0.7054 -1.1102  0.5121
 4607TIP3   OH235311   1.186   6.813   3.082 -0.1286  0.1898  0.1387
 4607TIP3    H135312   1.184   6.833   2.988 -3.2305 -1.1841 -0.2178
 4607TIP3    H235313   1.189   6.717   3.086  1.2234  0.2481  1.5285
 4608TIP3   OH235314   1.100   4.434  14.056  0.4304 -0.0354 -0.5736
 4608TIP3    H135315   1.168   4.449  14.122  1.1665 -0.0929 -1.2865
 4608TIP3    H235316   1.145   4.383  13.988 -0.6231 -0.9840 -0.5788
 4609TIP3   OH235317   5.766   5.965   4.390  0.0565 -0.1746  0.3717
 4609TIP3    H135318   5.805   5.878   4.402 -0.2822 -0.2051  1.4193
 4609TIP3    H235319   5.683   5.948   4.345  1.0030 -0.1513 -1.4715
 4610TIP3   OH235320   3.674   0.708   4.642 -0.3390  0.4798 -0.2800
 4610TIP3    H135321   3.739   0.648   4.607 -1.8823 -1.6954  0.3279
 4610TIP3    H235322   3.608   0.715   4.573 -0.5186  0.9296 -0.0712
 4611TIP3   OH235323   1.334   5.003  16.359 -0.7537 -0.2430 -0.0314
 4611TIP3    H135324   1.250   5.037  16.390 -0.4011  0.8164 -0.1986
 4611TIP3    H235325   1.352   4.928  16.415 -1.0363  0.4984  1.0883
 4612TIP3   OH235326   3.693   6.345  17.237  0.2392 -0.4810  0.7529
 4612TIP3    H135327   3.622   6.286  17.215  0.4274 -0.5593  0.3607
 4612TIP3    H235328   3.768   6.314  17.186  1.0522 -1.4708  2.4204
 4613TIP3   OH235329   3.214   0.464   2.220 -0.1653 -0.0852 -0.3820
 4613TIP3    H135330   3.203   0.386   2.166  0.3491 -0.1029 -0.4639
 4613TIP3    H235331   3.124   0.495   2.235 -0.4021 -0.8736 -0.0800
 4614TIP3   OH235332   0.367   3.600   4.874 -0.2981  1.0173 -0.5248
 4614TIP3    H135333   0.365   3.679   4.820  0.5925  1.9534  0.7611
 4614TIP3    H235334   0.361   3.528   4.811  3.0962  1.9491 -2.1804
 4615TIP3   OH235335   2.899   0.452  12.675  0.6003  0.0679 -0.8361
 4615TIP3    H135336   2.828   0.488  12.729  0.4160  0.0518 -1.0646
 4615TIP3    H235337   2.864   0.453  12.586 -0.6400 -3.4852 -0.5517
 4616TIP3   OH235338   3.346   0.726  14.434  1.0369  0.0161  0.4773
 4616TIP3    H135339   3.252   0.744  14.432  0.9873 -0.2867 -0.6153
 4616TIP3    H235340   3.354   0.640  14.393  1.8137  0.1504  0.3421
 4617TIP3   OH235341   4.323   2.519   0.879  0.5515 -0.3253  0.5946
 4617TIP3    H135342   4.330   2.613   0.865 -0.4460 -0.0786  1.6853
 4617TIP3    H235343   4.400   2.497   0.932  1.4266 -0.3553 -0.6359
 4618TIP3   OH235344   5.631   6.519  12.651  0.0129  0.1836 -0.0890
 4618TIP3    H135345   5.558   6.567  12.611  0.8417  1.5009 -0.0655
 4618TIP3    H235346   5.603   6.506  12.742 -0.4605  0.0977 -0.2405
 4619TIP3   OH235347   3.387   2.551   2.212  0.0716  0.3809  0.7179
 4619TIP3    H135348   3.423   2.639   2.200 -0.0945  0.4979  1.0643
 4619TIP3    H235349   3.362   2.548   2.304  0.0351 -0.0155  0.6960
 4620TIP3   OH235350   6.224   1.803  14.939  0.3315 -0.9604 -0.0791
 4620TIP3    H135351   6.276   1.735  14.895  0.1201 -0.9716 -0.3128
 4620TIP3    H235352   6.171   1.842  14.869  0.4260 -0.5771  0.0592
 4621TIP3   OH235353   1.431   4.873  13.691 -0.0336 -0.1862  0.5681
 4621TIP3    H135354   1.443   4.899  13.599 -1.8232 -0.3835  0.2450
 4621TIP3    H235355   1.413   4.955  13.737 -0.0848 -0.1981  0.5689
 4622TIP3   OH235356   1.241   4.903  12.968  0.6355  0.0086 -0.3964
 4622TIP3    H135357   1.278   4.985  12.998 -1.3792  0.0674  2.3175
 4622TIP3    H235358   1.197   4.866  13.045  0.8490 -3.2911 -1.6717
 4623TIP3   OH235359   6.273   1.229  15.113 -0.0590  0.0032  0.0139
 4623TIP3    H135360   6.200   1.166  15.114 -1.4380  1.5293  1.2070
 4623TIP3    H235361   6.271   1.266  15.025  0.0182 -0.7629 -0.3217
 4624TIP3   OH235362   3.886   2.515  16.093 -0.2851  0.1469  0.3347
 4624TIP3    H135363   3.949   2.508  16.164 -0.5264  0.8184  0.6224
 4624TIP3    H235364   3.801   2.526  16.136 -0.4821  0.1819 -0.0527
 4625TIP3   OH235365   4.104   4.459  12.179  0.4796  0.5248  0.0071
 4625TIP3    H135366   4.061   4.545  12.176 -1.7139 -0.5496 -1.0039
 4625TIP3    H235367   4.072   4.413  12.101  1.7287 -1.1799  0.4419
 4626TIP3   OH235368   5.886   5.517  17.193  0.0555 -0.7423 -0.0465
 4626TIP3    H135369   5.832   5.548  17.266 -0.1069 -1.4805  0.1644
 4626TIP3    H235370   5.824   5.498  17.123 -0.1673 -2.7805  0.6089
 4627TIP3   OH235371   5.353   4.962   4.078 -0.1522 -0.1703  0.1706
 4627TIP3    H135372   5.410   4.896   4.117  1.1451  0.7203 -0.1601
 4627TIP3    H235373   5.270   4.952   4.124 -0.5957 -3.1434 -0.9837
 4628TIP3   OH235374   1.297   1.621   2.390  0.2831 -0.2926 -0.4659
 4628TIP3    H135375   1.312   1.626   2.485 -0.5670  4.6347 -0.2923
 4628TIP3    H235376   1.385   1.620   2.352  0.6823 -0.0351  0.4178
 4629TIP3   OH235377   1.254   6.271  16.533 -0.1320  0.4458 -0.0274
 4629TIP3    H135378   1.177   6.254  16.479  0.5075 -3.0042 -0.0791
 4629TIP3    H235379   1.219   6.302  16.617 -1.4535  0.4424 -0.5590
 4630TIP3   OH235380   0.269   4.021   2.327 -0.8047  0.6315  0.1242
 4630TIP3    H135381   0.198   3.960   2.345 -1.9753  1.6753 -0.7159
 4630TIP3    H235382   0.316   3.982   2.253 -1.4243  0.6125 -0.2782
 4631TIP3   OH235383   3.030   3.976  16.003  0.3386  0.1328 -0.0471
 4631TIP3    H135384   2.972   4.003  16.074  0.8398 -0.5050  0.6200
 4631TIP3    H235385   2.974   3.928  15.942  0.3020 -1.1856  0.9929
 4632TIP3   OH235386   4.166   5.646   3.915 -0.1148 -0.3228 -0.2025
 4632TIP3    H135387   4.206   5.701   3.982  1.4612  0.7892 -1.9656
 4632TIP3    H235388   4.085   5.615   3.955 -1.2322  3.4617  0.8321
 4633TIP3   OH235389   2.380   6.245   1.056 -0.0608  0.1565 -0.3588
 4633TIP3    H135390   2.323   6.321   1.067  2.1514  1.6935  1.5904
 4633TIP3    H235391   2.440   6.269   0.986  1.0363  0.5489  0.6730
 4634TIP3   OH235392   4.407   2.286  15.434  0.1567 -0.1176 -0.0084
 4634TIP3    H135393   4.337   2.240  15.479 -1.9810  3.6996  1.0658
 4634TIP3    H235394   4.367   2.317  15.352  0.9410  1.0312  0.0112
 4635TIP3   OH235395   2.318   4.014  12.662  0.3969  0.4630 -0.4934
 4635TIP3    H135396   2.239   4.020  12.609  0.6474  0.3756 -0.8792
 4635TIP3    H235397   2.307   3.933  12.713  0.2879  0.3923 -0.6299
 4636TIP3   OH235398   4.352   2.493  14.683 -0.6343  0.1525 -0.0646
 4636TIP3    H135399   4.262   2.513  14.710 -1.0145  1.3399 -2.0241
 4636TIP3    H235400   4.359   2.398  14.693 -2.4720 -0.1046 -0.8174
 4637TIP3   OH235401   4.906   3.038  14.134 -0.4797  0.0273 -0.1119
 4637TIP3    H135402   4.978   3.098  14.114 -1.1217  1.1155  0.7352
 4637TIP3    H235403   4.864   3.021  14.050  0.4427 -0.1923 -0.5335
 4638TIP3   OH235404   2.111   2.053   2.983  0.5223  0.3491 -0.4527
 4638TIP3    H135405   2.094   2.147   2.978  0.4966  0.3944  0.3542
 4638TIP3    H235406   2.043   2.020   3.042  1.4691  0.0722  0.5024
 4639TIP3   OH235407   5.363   5.406  16.370  0.2243 -0.4232 -0.0263
 4639TIP3    H135408   5.445   5.369  16.337  0.3472  1.2922 -1.8352
 4639TIP3    H235409   5.325   5.451  16.295 -1.4794  0.3770  1.2435
 4640TIP3   OH235410   0.043   0.325  11.521 -0.0798 -0.3069 -0.5077
 4640TIP3    H135411   0.079   0.414  11.519 -0.6609 -0.0858 -1.5556
 4640TIP3    H235412   0.086   0.279  11.449 -1.3375 -0.2419 -1.3240
 4641TIP3   OH235413   0.638   5.088  16.522 -0.0432 -0.0339 -0.1673
 4641TIP3    H135414   0.576   5.149  16.562 -0.2651 -0.7187  0.5706
 4641TIP3    H235415   0.713   5.087  16.583 -1.7630 -3.6551  2.2400
 4642TIP3   OH235416   4.700   5.338  12.892  0.6998  0.2877  0.0163
 4642TIP3    H135417   4.686   5.417  12.945  0.8317 -0.0147  0.5036
 4642TIP3    H235418   4.701   5.370  12.801 -2.0637  0.5277 -0.0350
 4643TIP3   OH235419   5.469   1.237  12.641 -0.3074 -0.3457 -0.0075
 4643TIP3    H135420   5.561   1.221  12.619 -0.1974  0.3209 -0.0586
 4643TIP3    H235421   5.427   1.254  12.557 -0.3891 -0.2332  0.0553
 4644TIP3   OH235422   3.681   1.903  16.016 -0.3834  0.1167  0.0026
 4644TIP3    H135423   3.691   1.932  15.926  0.2777 -0.2388 -0.0461
 4644TIP3    H235424   3.594   1.864  16.020 -0.8367  1.0721 -0.2152
 4645TIP3   OH235425   6.802   6.375  12.806 -0.2953 -0.0119 -0.2130
 4645TIP3    H135426   6.730   6.339  12.755 -0.9786  2.2006 -0.9399
 4645TIP3    H235427   6.851   6.428  12.744  1.1312 -0.3318  0.6016
 4646TIP3   OH235428   0.105   1.397  11.684  0.0840  0.1658  0.1644
 4646TIP3    H135429   0.146   1.388  11.770  2.9447 -1.3218 -1.1951
 4646TIP3    H235430   0.116   1.490  11.663  0.4692  0.2962  0.8913
 4647TIP3   OH235431   2.287   3.347   4.321 -0.0110  0.2492 -0.5636
 4647TIP3    H135432   2.351   3.364   4.252  1.6728 -0.1635  0.8402
 4647TIP3    H235433   2.311   3.262   4.356 -0.7456  0.5111  0.6249
 4648TIP3   OH235434   4.197   6.247  14.582  0.0787  0.1296  0.1843
 4648TIP3    H135435   4.267   6.199  14.538  0.8100  0.4358  0.9910
 4648TIP3    H235436   4.206   6.222  14.674  1.3123  2.7511  0.8768
 4649TIP3   OH235437   5.125   3.534   1.895  0.1559 -0.1011  0.7908
 4649TIP3    H135438   5.132   3.611   1.839 -0.1416 -1.5903 -1.4312
 4649TIP3    H235439   5.196   3.476   1.865 -1.7087 -2.1022 -0.0554
 4650TIP3   OH235440   5.104   5.076   5.289  0.5048 -0.1610 -0.2354
 4650TIP3    H135441   5.027   5.132   5.276  0.1257 -0.7698 -0.6775
 4650TIP3    H235442   5.078   5.015   5.358  1.1517  0.6112  0.7161
 4651TIP3   OH235443   0.537   4.515  11.895  0.1994 -0.4383 -0.6899
 4651TIP3    H135444   0.632   4.514  11.879  0.3458 -1.0942  0.1283
 4651TIP3    H235445   0.524   4.450  11.964 -0.9194 -0.7419 -1.1641
 4652TIP3   OH235446   2.689   4.623  11.879 -0.3517 -0.1625 -0.0042
 4652TIP3    H135447   2.650   4.697  11.832  1.3683 -1.7475 -4.5211
 4652TIP3    H235448   2.614   4.571  11.908 -1.6160  0.7084 -1.5212
 4653TIP3   OH235449   0.444   5.645   1.867  0.4452 -0.4614 -0.3438
 4653TIP3    H135450   0.370   5.666   1.810 -0.0202 -0.6838  0.1635
 4653TIP3    H235451   0.487   5.729   1.884  1.8171 -0.6359 -2.6496
 4654TIP3   OH235452   2.313   5.116  13.699 -0.1523  0.1311  0.4420
 4654TIP3    H135453   2.315   5.178  13.772 -2.1365  0.5117  0.2085
 4654TIP3    H235454   2.381   5.148  13.639 -0.6308  1.6693  0.6663
 4655TIP3   OH235455   1.176   0.782   0.117  0.4985 -0.0468 -0.1240
 4655TIP3    H135456   1.152   0.802   0.027 -0.4831 -1.9000 -0.3226
 4655TIP3    H235457   1.268   0.808   0.123  1.1843 -1.6935 -2.2781
 4656TIP3   OH235458   3.793   2.436   3.245 -0.5250  0.0055  0.7280
 4656TIP3    H135459   3.725   2.500   3.224 -0.3799 -0.4162 -1.2021
 4656TIP3    H235460   3.755   2.352   3.221  0.5613 -0.2555 -0.1606
 4657TIP3   OH235461   3.713   6.050  15.341  0.0404 -0.3946  0.6326
 4657TIP3    H135462   3.696   6.138  15.306 -1.3501 -0.3909  1.2841
 4657TIP3    H235463   3.742   6.065  15.431 -0.1874 -0.6037  0.7415
 4658TIP3   OH235464   2.179   6.785  11.386  0.0757 -0.8289 -0.5170
 4658TIP3    H135465   2.090   6.767  11.356 -0.0345 -0.4898 -0.3978
 4658TIP3    H235466   2.234   6.722  11.339 -0.3394 -1.7110  0.1625
 4659TIP3   OH235467   3.764   5.903  14.866  0.3697 -0.4872  0.3486
 4659TIP3    H135468   3.725   5.861  14.942  0.3546  1.2165  1.3340
 4659TIP3    H235469   3.799   5.986  14.899 -0.5501  0.8036 -1.6683
 4660TIP3   OH235470   4.009   5.043  16.506 -0.3852 -0.4524  0.3493
 4660TIP3    H135471   3.931   5.080  16.547 -0.3595 -1.0732  0.9913
 4660TIP3    H235472   4.059   5.005  16.579  0.0318 -0.9242 -0.1680
 4661TIP3   OH235473   2.775   5.478   3.679  0.2159  0.3379  0.0216
 4661TIP3    H135474   2.860   5.450   3.647 -0.4699 -0.8132 -0.8791
 4661TIP3    H235475   2.778   5.464   3.773  1.1788  0.7539  0.0549
 4662TIP3   OH235476   5.408   2.501  15.027 -0.2729  0.2196  0.8091
 4662TIP3    H135477   5.396   2.546  14.943  1.7403 -0.3194  0.1693
 4662TIP3    H235478   5.350   2.425  15.022 -0.2562  0.2557 -0.0591
 4663TIP3   OH235479   0.092   3.021   3.138  0.1705 -0.8234 -0.0313
 4663TIP3    H135480   0.112   2.928   3.126  0.5784 -0.7042 -0.2773
 4663TIP3    H235481   0.035   3.043   3.064  0.5977 -0.7191 -0.3284
 4664TIP3   OH235482   3.989   5.885   5.099  0.0657  0.5722  0.4173
 4664TIP3    H135483   4.029   5.800   5.082  0.8552  0.7320  1.4045
 4664TIP3    H235484   3.910   5.865   5.149 -0.4659  0.3484 -0.4730
 4665TIP3   OH235485   6.093   5.766  13.266  0.2540 -1.0898  0.4426
 4665TIP3    H135486   6.156   5.710  13.222  0.6990 -0.7064  0.5893
 4665TIP3    H235487   6.121   5.767  13.357  0.3166 -0.5344  0.4183
 4666TIP3   OH235488   2.561   0.184   3.888 -0.0027 -0.1937 -0.2608
 4666TIP3    H135489   2.568   0.271   3.927 -0.3459 -0.2864  0.0128
 4666TIP3    H235490   2.500   0.194   3.815 -1.1161 -0.4809  0.6083
 4667TIP3   OH235491   2.835   0.945   4.205 -0.7670  0.2190 -0.0088
 4667TIP3    H135492   2.912   1.001   4.207 -0.8731  0.3722 -0.1202
 4667TIP3    H235493   2.833   0.910   4.116 -1.1757  0.7194 -0.2055
 4668TIP3   OH235494   6.687   5.399   5.432 -0.0427 -0.0234  0.2282
 4668TIP3    H135495   6.655   5.317   5.396  0.8356 -0.2015 -0.1972
 4668TIP3    H235496   6.691   5.458   5.356  0.8340 -0.0835  0.2154
 4669TIP3   OH235497   1.718   4.743  16.810 -0.3663  0.3504 -0.2408
 4669TIP3    H135498   1.672   4.779  16.886  0.1978  0.6352 -0.0247
 4669TIP3    H235499   1.777   4.813  16.782 -0.1634  0.0449 -0.5935
 4670TIP3   OH235500   1.840   1.264  13.119  0.5326  0.9030 -0.5365
 4670TIP3    H135501   1.839   1.356  13.093 -1.9355  1.2062  0.2745
 4670TIP3    H235502   1.796   1.219  13.047  2.2948  0.2014 -1.2270
 4671TIP3   OH235503   0.064   5.988   4.318 -0.2674 -0.2776  0.2804
 4671TIP3    H135504   0.032   5.970   4.229 -0.4922 -1.3478  0.5599
 4671TIP3    H235505   0.027   6.073   4.340  1.9305  1.3108 -1.6307
 4672TIP3   OH235506   5.254   0.051   6.703 -0.4468 -0.1336 -0.1214
 4672TIP3    H135507   5.192   0.041   6.630 -1.4719 -0.5009  0.7759
 4672TIP3    H235508   5.244  -0.030   6.754  0.4331  0.0153  0.3103
 4673TIP3   OH235509   6.305   1.705   6.827  0.0865 -0.2161 -0.1764
 4673TIP3    H135510   6.383   1.751   6.859 -0.3347 -1.2167  2.5673
 4673TIP3    H235511   6.338   1.619   6.800  0.1663 -0.0194 -0.7221
 4674TIP3   OH235512   4.493   6.371   4.051 -0.9710  0.2374 -0.6445
 4674TIP3    H135513   4.426   6.303   4.055  0.1951 -0.9150  0.8481
 4674TIP3    H235514   4.571   6.326   4.021 -0.6240  1.3656 -1.5076
 4675TIP3   OH235515   4.318   6.201  16.416  0.2299 -0.3850 -0.1706
 4675TIP3    H135516   4.407   6.167  16.409  0.2345 -0.4870  0.3327
 4675TIP3    H235517   4.296   6.192  16.509 -0.4789 -0.8194 -0.3641
 4676TIP3   OH235518   5.952   2.524   1.132  0.2687 -0.2827  0.2617
 4676TIP3    H135519   5.895   2.598   1.112 -1.4411 -1.8524 -0.9703
 4676TIP3    H235520   6.030   2.538   1.079  0.4812  1.1839  0.9146
 4677TIP3   OH235521   1.026   2.389   3.753 -0.5827 -0.0366 -0.2326
 4677TIP3    H135522   1.068   2.451   3.813 -0.9525 -0.0351  0.0309
 4677TIP3    H235523   0.942   2.429   3.732  0.5791  1.2100 -2.8305
 4678TIP3   OH235524   0.751   0.647   1.756 -0.6801  0.1171 -0.1511
 4678TIP3    H135525   0.836   0.625   1.794 -0.1800  1.8606 -0.1744
 4678TIP3    H235526   0.766   0.649   1.662 -0.1683  2.3949 -0.0870
 4679TIP3   OH235527   6.424   1.015  13.992  0.0927  0.4679  0.2016
 4679TIP3    H135528   6.445   0.994  13.901 -0.2027  0.5357  0.1173
 4679TIP3    H235529   6.485   1.084  14.016 -0.5613  1.2427 -0.2973
 4680TIP3   OH235530   3.951   6.698   1.499 -0.0816  0.5655 -0.5032
 4680TIP3    H135531   3.944   6.615   1.452  2.2608 -1.2457  2.0199
 4680TIP3    H235532   4.045   6.718   1.496 -0.4286  2.4330  0.1095
 4681TIP3   OH235533   3.251   0.542   2.743  0.8150  0.0203  0.0269
 4681TIP3    H135534   3.278   0.513   2.655  1.5791  0.6724  0.0353
 4681TIP3    H235535   3.260   0.637   2.741  0.6915  0.0549  0.7665
 4682TIP3   OH235536   4.629   4.328  13.977  0.2386  0.7277  0.0059
 4682TIP3    H135537   4.615   4.302  14.068  0.9867  0.3514  0.0204
 4682TIP3    H235538   4.565   4.397  13.962 -1.3342 -0.6292  0.1691
 4683TIP3   OH235539   0.437   5.924   2.213  0.2245  0.2552 -0.0596
 4683TIP3    H135540   0.390   5.948   2.133  0.6320  0.3582 -0.2680
 4683TIP3    H235541   0.372   5.936   2.283 -0.0950  0.2814 -0.3595
 4684TIP3   OH235542   5.812   5.329   2.578 -0.0025  0.1807  0.5494
 4684TIP3    H135543   5.742   5.348   2.515  1.9892 -0.3068 -1.9350
 4684TIP3    H235544   5.778   5.256   2.630 -1.3675  0.0037 -0.5265
 4685TIP3   OH235545   4.025   0.739   5.851  0.7144 -0.0409 -0.2459
 4685TIP3    H135546   3.974   0.821   5.849 -0.1170 -0.5263  0.3301
 4685TIP3    H235547   3.982   0.686   5.918 -0.4130 -1.9855 -2.3453
 4686TIP3   OH235548   5.445   4.353  16.716 -0.1229  0.2953 -0.7472
 4686TIP3    H135549   5.482   4.439  16.735 -0.4304  0.4348 -0.7864
 4686TIP3    H235550   5.522   4.296  16.708  0.0950  0.6164 -0.9910
 4687TIP3   OH235551   6.060   2.608  14.410 -0.4511 -0.9556 -0.7852
 4687TIP3    H135552   5.972   2.608  14.447 -1.3026  1.9367 -2.4636
 4687TIP3    H235553   6.052   2.554  14.331 -0.5987 -1.1327 -0.6491
 4688TIP3   OH235554   1.270   2.450  17.183  0.0939 -0.0774 -0.8551
 4688TIP3    H135555   1.308   2.538  17.187 -1.2753  0.6234 -2.2592
 4688TIP3    H235556   1.278   2.425  17.091 -0.3901 -1.0297 -0.6490
 4689TIP3   OH235557   6.113   6.490   5.966  0.3698 -0.5326 -0.3882
 4689TIP3    H135558   6.159   6.529   5.892  0.0481  1.6033  0.4594
 4689TIP3    H235559   6.170   6.419   5.996  0.1008 -2.0353 -3.1562
 4690TIP3   OH235560   5.896   4.205   2.541  0.0664 -0.2127  0.2291
 4690TIP3    H135561   5.978   4.223   2.496 -0.4562  2.6821  0.2186
 4690TIP3    H235562   5.919   4.203   2.634  0.1465  1.1701  0.2710
 4691TIP3   OH235563   5.978   4.827   1.774  0.2745 -0.5312 -0.1256
 4691TIP3    H135564   5.992   4.899   1.713 -2.2347 -0.8465 -1.1924
 4691TIP3    H235565   5.883   4.821   1.783  0.5180 -1.3351  2.8550
 4692TIP3   OH235566   2.725   5.563   5.788  0.0386 -0.2061  0.5793
 4692TIP3    H135567   2.770   5.603   5.713 -2.4229 -0.5073 -1.1911
 4692TIP3    H235568   2.770   5.479   5.801  0.9936  0.1844 -0.0311
 4693TIP3   OH235569   4.898   5.431   5.813  0.0092 -0.0672  0.4734
 4693TIP3    H135570   4.883   5.337   5.803 -1.0592  0.2688 -1.6754
 4693TIP3    H235571   4.832   5.459   5.877  0.1504 -0.7225  0.9110
 4694TIP3   OH235572   0.807   5.624  13.262 -0.2792  0.4612 -0.5441
 4694TIP3    H135573   0.853   5.641  13.344 -0.1241 -1.5543 -0.1620
 4694TIP3    H235574   0.717   5.654  13.278 -0.1678  0.3959  0.2495
 4695TIP3   OH235575   5.426   1.507   3.168 -0.6790 -0.0641  0.0944
 4695TIP3    H135576   5.456   1.578   3.225 -0.7886  0.8105 -0.8940
 4695TIP3    H235577   5.400   1.437   3.228 -0.5449  0.7204  1.1011
 4696TIP3   OH235578   5.483   1.741  16.096 -1.0754  0.5035  0.2389
 4696TIP3    H135579   5.542   1.809  16.064  1.1741 -0.6192  1.6767
 4696TIP3    H235580   5.408   1.788  16.130 -0.2693  2.1552 -0.1650
 4697TIP3   OH235581   1.136   1.327  11.715 -0.4116 -0.5805 -0.0936
 4697TIP3    H135582   1.200   1.333  11.644 -0.0098 -1.0907  0.2113
 4697TIP3    H235583   1.055   1.298  11.673 -0.3564 -0.2208 -0.4416
 4698TIP3   OH235584   1.040   4.153   6.199 -0.9185  0.1159 -0.3968
 4698TIP3    H135585   1.115   4.095   6.217 -0.8288  0.3785  0.0885
 4698TIP3    H235586   0.966   4.111   6.244 -0.6313  0.9330  0.9093
 4699TIP3   OH235587   4.101   1.524   0.434 -0.1302 -0.3747  0.1403
 4699TIP3    H135588   4.037   1.575   0.383 -1.6816 -2.9108 -0.6616
 4699TIP3    H235589   4.048   1.466   0.487  1.4751 -2.4873 -0.4327
 4700TIP3   OH235590   4.501   0.816  17.057  0.4039 -0.1087  0.2885
 4700TIP3    H135591   4.406   0.805  17.043  0.5252  0.6572 -1.4131
 4700TIP3    H235592   4.509   0.847  17.147 -0.8979 -0.9832  0.7324
 4701TIP3   OH235593   6.473   3.071   5.878  0.1973 -0.3579  0.8436
 4701TIP3    H135594   6.511   3.019   5.808  1.1966  0.0803  1.0498
 4701TIP3    H235595   6.387   3.031   5.893  0.3317 -1.0047 -0.0131
 4702TIP3   OH235596   3.784   0.830  14.449 -0.3538 -0.3934 -0.1553
 4702TIP3    H135597   3.855   0.893  14.464 -1.4417  0.7303  0.4630
 4702TIP3    H235598   3.766   0.794  14.536  1.2748 -2.7631 -0.7099
 4703TIP3   OH235599   0.369   3.630   3.090  0.6614 -0.4124  0.0624
 4703TIP3    H135600   0.295   3.661   3.038  0.4824  0.7123  0.9345
 4703TIP3    H235601   0.446   3.646   3.035  0.4639  0.6274  0.0604
 4704TIP3   OH235602   6.247   4.062   2.101  0.1936  0.4689 -0.3000
 4704TIP3    H135603   6.248   3.971   2.129  0.6511  0.2532 -0.9829
 4704TIP3    H235604   6.300   4.063   2.021 -0.6258  1.1510 -0.8533
 4705TIP3   OH235605   3.386   2.487   2.475 -0.1361 -0.2440  0.0951
 4705TIP3    H135606   3.468   2.516   2.516 -0.4246  0.0068  0.5003
 4705TIP3    H235607   3.318   2.524   2.531 -0.6211  2.1834 -1.9474
 4706TIP3   OH235608   5.646   1.087   4.910 -0.2686  0.6050 -0.3562
 4706TIP3    H135609   5.664   1.168   4.862 -0.7086 -0.2914 -2.1021
 4706TIP3    H235610   5.732   1.050   4.929 -0.0723 -0.2361 -2.6493
 4707TIP3   OH235611   2.255   2.421  16.697  0.0217 -0.3021 -0.1005
 4707TIP3    H135612   2.201   2.353  16.737  2.0589 -1.0200  1.6208
 4707TIP3    H235613   2.217   2.434  16.610 -2.1709 -1.5479  0.5973
 4708TIP3   OH235614   1.827   5.667  12.261  0.5444 -0.0283  0.1616
 4708TIP3    H135615   1.893   5.697  12.198 -0.1547  1.7022  0.2015
 4708TIP3    H235616   1.813   5.574  12.239 -0.6294  0.7920 -3.1559
 4709TIP3   OH235617   0.211   1.436  11.932  0.1880 -0.5403  0.0197
 4709TIP3    H135618   0.190   1.469  12.020 -0.3502 -2.6065  0.7369
 4709TIP3    H235619   0.267   1.503  11.893 -0.8488  1.1618  1.3384
 4710TIP3   OH235620   1.295   5.683  12.610  0.0421  0.2523 -0.4045
 4710TIP3    H135621   1.245   5.609  12.647 -0.1410  0.9546  0.8070
 4710TIP3    H235622   1.291   5.750  12.678  2.0716  0.5860 -0.5730
 4711TIP3   OH235623   6.752   0.159  12.919  0.1502 -0.3870  0.1293
 4711TIP3    H135624   6.675   0.106  12.902 -0.1321  0.5157 -1.6195
 4711TIP3    H235625   6.725   0.220  12.988 -1.9115  2.1630 -2.7090
 4712TIP3   OH235626   0.098   1.091   4.005  0.7735 -0.1171 -0.3492
 4712TIP3    H135627   0.147   1.019   4.045  1.9856 -0.3042 -2.0368
 4712TIP3    H235628   0.152   1.169   4.021 -0.0661  0.2736  0.6590
 4713TIP3   OH235629   0.366   2.147  14.092  0.9146 -0.0298 -0.1635
 4713TIP3    H135630   0.409   2.062  14.079 -0.1120 -0.2716 -2.3695
 4713TIP3    H235631   0.274   2.131  14.072  0.5424  1.4155  0.2819
 4714TIP3   OH235632   3.231   2.984  13.675  0.2781 -0.1178  0.3203
 4714TIP3    H135633   3.262   3.070  13.649 -0.4704 -0.4938 -2.0624
 4714TIP3    H235634   3.137   2.984  13.654  0.2585 -1.4866  0.2729
 4715TIP3   OH235635   4.067   2.081   2.403  0.6557  0.3577  0.6356
 4715TIP3    H135636   4.033   2.065   2.491 -0.5815  0.1314  0.1398
 4715TIP3    H235637   4.097   1.995   2.373  0.8074  0.3777  0.7336
 4716TIP3   OH235638   6.569   4.004   2.350  0.4586  0.2762 -0.1868
 4716TIP3    H135639   6.649   3.964   2.313 -0.6946 -1.8158 -0.5907
 4716TIP3    H235640   6.585   4.006   2.444  0.3375 -1.8331 -0.0702
 4717TIP3   OH235641   2.011   2.739  13.523  0.1664  0.6247  0.2954
 4717TIP3    H135642   1.943   2.743  13.456  0.6008 -0.4186 -0.2458
 4717TIP3    H235643   2.063   2.818  13.509 -0.7629  1.2964  0.5419
 4718TIP3   OH235644   0.597   3.778   2.958  0.0617  0.0548 -0.1207
 4718TIP3    H135645   0.669   3.731   3.000  0.1986  1.8027  1.8020
 4718TIP3    H235646   0.640   3.848   2.908 -0.2230 -0.5013 -1.1718
 4719TIP3   OH235647   5.119   1.065  16.238  0.3260  0.5929 -0.0801
 4719TIP3    H135648   5.127   1.153  16.203  0.3412 -0.2124 -2.2889
 4719TIP3    H235649   5.139   1.008  16.164 -2.4167 -1.3075  0.4681
 4720TIP3   OH235650   1.747   4.391   0.663 -0.3357 -0.4381 -0.0636
 4720TIP3    H135651   1.806   4.401   0.739 -0.3556 -1.5724  0.1213
 4720TIP3    H235652   1.804   4.401   0.587 -0.5760  2.3133  0.0337
 4721TIP3   OH235653   0.636   6.043   0.965  0.0530  0.0196  0.1797
 4721TIP3    H135654   0.660   5.961   1.008  0.6158 -0.1959 -0.5441
 4721TIP3    H235655   0.599   6.097   1.036  2.1264  0.1601  1.2307
 4722TIP3   OH235656   3.495   5.867  12.860 -0.2410 -0.6477  0.8725
 4722TIP3    H135657   3.446   5.945  12.836 -0.1784 -1.2444 -1.4201
 4722TIP3    H235658   3.511   5.876  12.954  3.2248  4.1259  0.2224
 4723TIP3   OH235659   2.146   0.243  15.057  0.0091  0.0529 -0.5072
 4723TIP3    H135660   2.064   0.217  15.016 -0.5079  1.9059 -0.7241
 4723TIP3    H235661   2.159   0.334  15.031  0.3953  0.8851  2.2091
 4724TIP3   OH235662   0.639   4.752   3.491  0.0643 -0.3171  0.4603
 4724TIP3    H135663   0.650   4.794   3.406  3.6429 -2.1947 -0.1908
 4724TIP3    H235664   0.627   4.824   3.553  0.2866  1.2557 -1.2738
 4725TIP3   OH235665   2.624   6.696  11.473  0.2669  0.1685 -0.5770
 4725TIP3    H135666   2.538   6.687  11.513 -0.2645  1.9168 -1.2377
 4725TIP3    H235667   2.611   6.673  11.381  0.8435 -0.9852 -0.3844
 4726TIP3   OH235668   2.108   5.543   2.604 -0.0458 -0.0764  0.2819
 4726TIP3    H135669   2.123   5.636   2.623 -1.6117  0.1363  0.5959
 4726TIP3    H235670   2.193   5.501   2.622  0.9189  1.3920 -0.6471
 4727TIP3   OH235671   3.665   0.625   0.374  0.0412 -0.1061 -0.5054
 4727TIP3    H135672   3.682   0.701   0.319 -0.7806  0.5968  0.1855
 4727TIP3    H235673   3.681   0.550   0.317  4.1389  0.4016 -0.3372
 4728TIP3   OH235674   1.807   1.603  14.713  0.8011 -0.6402 -0.1044
 4728TIP3    H135675   1.739   1.557  14.763  0.7940  0.5493  1.0319
 4728TIP3    H235676   1.888   1.583  14.760  1.2672 -2.0389 -1.4475
 4729TIP3   OH235677   1.273   0.819   2.946 -0.3570 -0.2360  0.6126
 4729TIP3    H135678   1.205   0.795   2.883 -0.1497  1.5520 -0.3695
 4729TIP3    H235679   1.229   0.880   3.006  0.6867  2.4417 -1.1283
 4730TIP3   OH235680   4.989   3.206  16.339 -0.2614 -0.2741  0.3348
 4730TIP3    H135681   4.980   3.283  16.283  0.2706  1.1068  2.0912
 4730TIP3    H235682   4.919   3.215  16.404 -0.8663 -1.8464 -0.0376
 4731TIP3   OH235683   2.287   2.435   0.133  0.4951  0.4703 -0.3008
 4731TIP3    H135684   2.360   2.421   0.194  0.4187  1.8524  0.1415
 4731TIP3    H235685   2.327   2.426   0.046  1.1152  0.7880 -0.0589
 4732TIP3   OH235686   0.609   5.500   0.177  0.2572 -0.4170  0.2403
 4732TIP3    H135687   0.536   5.438   0.177 -1.8140  1.8297  1.5934
 4732TIP3    H235688   0.642   5.498   0.088 -0.2224 -2.8705  0.0559
 4733TIP3   OH235689   3.320   1.099  15.717  0.2478  0.0863  0.0768
 4733TIP3    H135690   3.237   1.058  15.741  0.1575 -0.9749 -1.8297
 4733TIP3    H235691   3.383   1.065  15.781 -0.3097 -1.1554 -0.0056
 4734TIP3   OH235692   2.974   6.664   6.281 -0.3515 -0.2410 -0.0633
 4734TIP3    H135693   2.937   6.632   6.364  0.0440  0.0918  0.2469
 4734TIP3    H235694   3.009   6.751   6.303  0.5008 -0.4969 -0.3832
 4735TIP3   OH235695   5.273   6.404  17.307  0.1860  0.1325  0.1763
 4735TIP3    H135696   5.344   6.427  17.366 -0.6999  2.7378  0.3616
 4735TIP3    H235697   5.212   6.354  17.360 -0.1042  1.5532  1.2427
 4736TIP3   OH235698   0.445   2.205   0.139 -0.5898 -0.0349  0.0786
 4736TIP3    H135699   0.367   2.220   0.085  0.0335  0.0637 -0.8189
 4736TIP3    H235700   0.502   2.280   0.121 -0.0738 -0.3575  0.3449
 4737TIP3   OH235701   5.427   6.096  14.718 -0.3075 -0.3583 -0.3545
 4737TIP3    H135702   5.459   6.065  14.633 -2.2890  1.4281 -1.8636
 4737TIP3    H235703   5.363   6.029  14.745 -1.8119  0.4484 -1.7572
 4738TIP3   OH235704   4.434   6.040   4.622 -0.1768  0.2456  0.4688
 4738TIP3    H135705   4.484   5.978   4.676 -0.4230  0.3620  0.8367
 4738TIP3    H235706   4.493   6.115   4.611 -0.4139  0.5627  1.2560
 4739TIP3   OH235707   4.838   3.294   3.091  0.1697  0.3702 -0.4616
 4739TIP3    H135708   4.791   3.321   3.013 -0.5801  0.0982 -0.1194
 4739TIP3    H235709   4.930   3.293   3.066 -0.0806  0.0993 -1.3926
 4740TIP3   OH235710   6.490   6.811  11.265 -0.2190 -0.0230  0.2814
 4740TIP3    H135711   6.479   6.763  11.347  1.2335  0.7114  0.9417
 4740TIP3    H235712   6.516   6.899  11.292  2.2716 -0.2793 -0.9220
 4741TIP3   OH235713   4.540   1.021   2.129 -0.4012 -0.2763 -0.4358
 4741TIP3    H135714   4.563   1.112   2.110 -0.9920 -0.2059 -0.8411
 4741TIP3    H235715   4.451   1.025   2.163 -1.3030 -0.8931 -2.5591
 4742TIP3   OH235716   5.307   5.998   3.610  0.0855  0.6917  0.3888
 4742TIP3    H135717   5.214   6.010   3.626  0.1013  0.7557  0.4348
 4742TIP3    H235718   5.315   5.994   3.515 -0.0092  0.3133  0.3975
 4743TIP3   OH235719   1.298   5.803   5.597 -0.1347 -0.5421 -0.5271
 4743TIP3    H135720   1.208   5.772   5.599 -0.2561 -0.2085 -0.7733
 4743TIP3    H235721   1.349   5.732   5.636 -0.9572  0.8156  3.6169
 4744TIP3   OH235722   2.899   3.495  16.761  0.3705 -0.4733 -0.0569
 4744TIP3    H135723   2.989   3.525  16.747  0.3824 -0.0589  0.8695
 4744TIP3    H235724   2.859   3.563  16.816 -0.4191 -0.8067 -0.2068
 4745TIP3   OH235725   2.735   3.310  10.350  0.3205 -0.0892  0.7752
 4745TIP3    H135726   2.743   3.273  10.262  0.2016  0.3985  0.5593
 4745TIP3    H235727   2.796   3.383  10.351 -2.5244  2.5084 -0.2808
 4746TIP3   OH235728   1.943   5.729   4.986 -0.1751 -0.3960 -0.1121
 4746TIP3    H135729   1.964   5.637   4.969  0.1337 -0.2598 -0.4870
 4746TIP3    H235730   1.937   5.768   4.899 -0.1860 -0.0353  0.0486
 4747TIP3   OH235731   0.211   4.074  15.883 -0.3451  0.1047  0.4194
 4747TIP3    H135732   0.249   3.990  15.857 -0.3347  0.3380 -0.3357
 4747TIP3    H235733   0.281   4.118  15.930  1.6971  2.0147 -3.9345
 4748TIP3   OH235734   0.162   0.561  10.581 -0.0330  0.1167 -0.1428
 4748TIP3    H135735   0.077   0.599  10.601 -1.9149 -2.7787 -1.9687
 4748TIP3    H235736   0.198   0.537  10.667 -2.0209 -0.4341  0.5945
 4749TIP3   OH235737   3.369   4.881   4.139 -0.5306 -0.3141 -0.0965
 4749TIP3    H135738   3.308   4.813   4.166 -0.7521 -0.0731  0.0226
 4749TIP3    H235739   3.315   4.945   4.093 -0.3402 -0.1818 -0.1395
 4750TIP3   OH235740   1.459   1.658  14.140  0.5206 -0.0911  0.6727
 4750TIP3    H135741   1.524   1.697  14.198  0.8241  0.1545  0.1757
 4750TIP3    H235742   1.493   1.572  14.118 -0.1650 -0.6767  1.7941
 4751TIP3   OH235743   3.556   2.288  13.616 -0.1794 -0.0793  0.2595
 4751TIP3    H135744   3.582   2.272  13.707 -0.5820  2.7397  0.9721
 4751TIP3    H235745   3.481   2.231  13.602 -1.4030  0.8607  2.4316
 4752TIP3   OH235746   1.981   0.431   1.803  0.4360 -0.8704 -0.3208
 4752TIP3    H135747   1.971   0.521   1.772  0.7299 -0.5687  0.4340
 4752TIP3    H235748   1.892   0.401   1.820  0.3649 -0.5917 -0.2066
 4753TIP3   OH235749   0.882   3.046   1.373  0.2873  0.0836 -0.0937
 4753TIP3    H135750   0.893   2.987   1.298  2.1594  0.7080 -0.3652
 4753TIP3    H235751   0.870   2.987   1.448 -2.0597 -0.5469 -0.8696
 4754TIP3   OH235752   3.534   1.762  13.620 -0.2254  0.3936 -0.4000
 4754TIP3    H135753   3.482   1.697  13.573 -0.4035  1.3269 -1.5414
 4754TIP3    H235754   3.608   1.780  13.561  1.0425 -0.4083  0.8947
 4755TIP3   OH235755   3.695   1.811   5.665 -0.0550 -0.7231  0.4923
 4755TIP3    H135756   3.675   1.818   5.758 -0.2470 -0.4829  0.4319
 4755TIP3    H235757   3.633   1.869   5.622  0.2910 -0.5311  0.2462
 4756TIP3   OH235758   2.787   1.499   4.087 -0.5890 -0.7047  0.2498
 4756TIP3    H135759   2.811   1.509   4.179  2.1007  2.1056 -0.5954
 4756TIP3    H235760   2.853   1.440   4.051  0.3676  0.7871 -0.5006
 4757TIP3   OH235761   3.737   6.755   2.574  0.2155  0.0226  0.0668
 4757TIP3    H135762   3.658   6.793   2.613 -0.1010  0.5245 -1.0127
 4757TIP3    H235763   3.725   6.766   2.480  1.2301 -0.5970 -0.1543
 4758TIP3   OH235764   0.489   6.002  15.095  0.3897  0.2918 -0.4270
 4758TIP3    H135765   0.560   5.985  15.156 -2.1204 -2.5345  2.0287
 4758TIP3    H235766   0.483   5.922  15.042 -2.2373 -0.5211  0.9508
 4759TIP3   OH235767   3.195   6.001  16.804  0.1888  0.7849  0.3884
 4759TIP3    H135768   3.172   6.028  16.893 -0.0794  0.6141  0.3697
 4759TIP3    H235769   3.134   6.049  16.748 -0.2135  0.2337  0.3479
 4760TIP3   OH235770   5.521   1.780  13.057  0.7187 -0.0934 -0.2234
 4760TIP3    H135771   5.446   1.721  13.060  1.6358 -1.2710  0.9616
 4760TIP3    H235772   5.594   1.725  13.028  1.5799  0.4683  0.7895
 4761TIP3   OH235773   6.132   6.017  12.746 -0.3322 -0.4322 -0.1635
 4761TIP3    H135774   6.159   6.092  12.692 -0.7927 -0.6145 -0.6596
 4761TIP3    H235775   6.164   5.941  12.699  0.2551 -0.5533  0.4126
 4762TIP3   OH235776   0.913   5.067  11.750  0.2577 -0.4216 -0.0435
 4762TIP3    H135777   1.003   5.101  11.748 -0.2894  1.0512 -0.7577
 4762TIP3    H235778   0.859   5.141  11.723 -1.1074 -1.5295 -0.4404
 4763TIP3   OH235779   3.356   4.474  16.365  0.1430  0.5927  0.3498
 4763TIP3    H135780   3.283   4.447  16.421  0.3717  0.4040  0.5629
 4763TIP3    H235781   3.329   4.452  16.277  0.5178 -0.7931  0.5600
 4764TIP3   OH235782   4.221   2.741  11.850  0.2838 -0.1504 -0.2747
 4764TIP3    H135783   4.146   2.728  11.908  1.1179 -0.2631  0.8104
 4764TIP3    H235784   4.206   2.681  11.777 -0.4865 -0.4452  0.1132
 4765TIP3   OH235785   5.997   2.155  11.322 -0.1711 -0.2116 -0.2826
 4765TIP3    H135786   5.974   2.244  11.348  0.4224 -0.2609  0.4524
 4765TIP3    H235787   6.036   2.165  11.235 -0.2745  0.2246 -0.2802
 4766TIP3   OH235788   6.190   3.329   3.866 -0.1721  0.4306 -0.0341
 4766TIP3    H135789   6.136   3.260   3.903  1.4564 -1.1015 -0.3584
 4766TIP3    H235790   6.229   3.291   3.787 -0.0343  2.0823 -0.8191
 4767TIP3   OH235791   0.748   3.356   2.937 -0.1036 -0.3527 -0.1938
 4767TIP3    H135792   0.713   3.337   2.850 -0.4301  2.4303 -0.7591
 4767TIP3    H235793   0.673   3.392   2.985  0.3864 -0.6743  0.8336
 4768TIP3   OH235794   1.843   5.176  16.533  0.7680 -0.6446  0.3152
 4768TIP3    H135795   1.875   5.086  16.532  0.1904 -0.8873 -1.9769
 4768TIP3    H235796   1.769   5.176  16.472  1.5786  1.6615 -0.7789
 4769TIP3   OH235797   4.835   2.980   2.914 -0.0760 -0.4855 -0.2862
 4769TIP3    H135798   4.848   2.996   3.007  1.4934  0.1836 -0.5762
 4769TIP3    H235799   4.747   3.014   2.895 -0.2724 -0.3110  0.8795
 4770TIP3   OH235800   0.446   5.099  11.384 -0.3106 -0.4259 -0.0670
 4770TIP3    H135801   0.532   5.056  11.388  0.9766  1.9150 -0.5155
 4770TIP3    H235802   0.433   5.119  11.292 -1.0260 -0.1570  0.0873
 4771TIP3   OH235803   3.898   2.473  11.565 -0.4409  0.0570 -0.3256
 4771TIP3    H135804   3.920   2.391  11.522  2.1578  1.2110 -1.3979
 4771TIP3    H235805   3.870   2.448  11.653 -0.1849 -1.9692 -0.7785
 4772TIP3   OH235806   6.629   3.095  14.916 -0.7755  0.3110  0.6011
 4772TIP3    H135807   6.624   3.136  14.829  1.4364  1.0602  0.7428
 4772TIP3    H235808   6.550   3.123  14.961 -0.9347  1.7045 -0.4737
 4773TIP3   OH235809   6.468   0.008  14.348 -0.4625 -0.0569 -0.3057
 4773TIP3    H135810   6.544   0.064  14.363 -1.3319  0.8879  0.7654
 4773TIP3    H235811   6.491  -0.045  14.271  2.6161 -2.1541  1.8315
 4774TIP3   OH235812   0.973   5.137   0.548  0.2892  0.1616  0.2932
 4774TIP3    H135813   0.997   5.070   0.612 -0.0670 -0.0430  0.2169
 4774TIP3    H235814   0.894   5.178   0.585  0.6309  0.6880  0.4450
 4775TIP3   OH235815   2.755   0.887   1.766  0.0581  0.1704 -0.5368
 4775TIP3    H135816   2.844   0.922   1.772  0.0513 -0.0069  2.9308
 4775TIP3    H235817   2.701   0.963   1.744  0.8490  0.8090 -0.3304
 4776TIP3   OH235818   0.551   2.278  11.206  0.2222  0.2974  0.2216
 4776TIP3    H135819   0.489   2.272  11.134 -1.3093  2.7264  1.2016
 4776TIP3    H235820   0.618   2.338  11.175 -0.8077  1.9015  0.9871
 4777TIP3   OH235821   2.347   5.637  15.725  0.1297 -0.4105  0.3609
 4777TIP3    H135822   2.252   5.650  15.735  0.2133  0.8973 -0.3022
 4777TIP3    H235823   2.357   5.587  15.644  0.1003  2.9325 -1.9208
 4778TIP3   OH235824   1.755   1.504  11.757  0.2540  0.1590  0.2902
 4778TIP3    H135825   1.709   1.481  11.838 -1.1677  1.3733 -0.1261
 4778TIP3    H235826   1.837   1.454  11.761 -0.8217 -1.6567  1.3424
 4779TIP3   OH235827   4.406   0.025  11.569  0.1763 -0.5038  0.0029
 4779TIP3    H135828   4.327   0.018  11.624  0.1228 -1.2760 -0.1565
 4779TIP3    H235829   4.461   0.089  11.614  0.4398 -1.6339  1.3561
 4780TIP3   OH235830   6.279   2.837   6.622 -0.2254 -0.1282 -0.0380
 4780TIP3    H135831   6.187   2.857   6.642  0.6754  0.1616  5.2549
 4780TIP3    H235832   6.319   2.923   6.608 -0.5282 -0.1977 -1.4846
 4781TIP3   OH235833   1.131   3.270   2.650 -0.1843  0.4315 -0.1109
 4781TIP3    H135834   1.090   3.208   2.590 -0.2563  0.5648 -0.2012
 4781TIP3    H235835   1.201   3.220   2.693 -1.3287 -0.1973  1.0685
 4782TIP3   OH235836   0.070   2.426  13.791  0.3475 -0.3450  0.8309
 4782TIP3    H135837   0.130   2.463  13.855 -0.1977 -1.3663  1.9727
 4782TIP3    H235838   0.062   2.493  13.723  0.9154  0.7635  1.8386
 4783TIP3   OH235839   2.463   5.958  13.994 -0.3012 -0.3514 -0.1128
 4783TIP3    H135840   2.427   5.871  14.008  0.1386 -0.1649  2.7511
 4783TIP3    H235841   2.387   6.013  13.976 -0.7146 -1.0678 -0.6140
 4784TIP3   OH235842   2.526   3.335  11.738 -0.1709 -0.1977 -0.6027
 4784TIP3    H135843   2.485   3.280  11.671  0.8860 -1.7415 -0.0326
 4784TIP3    H235844   2.604   3.371  11.695 -0.8102  0.8293 -0.9447
 4785TIP3   OH235845   0.698   5.753   0.532  0.2116 -0.3759  0.3731
 4785TIP3    H135846   0.728   5.787   0.616  0.5679 -0.7128  0.3870
 4785TIP3    H235847   0.717   5.659   0.536  0.1213 -0.4139 -0.0368
 4786TIP3   OH235848   0.892   1.235  16.980 -0.6185 -0.1804 -0.0439
 4786TIP3    H135849   0.804   1.253  16.947 -0.7062  0.1883  0.3766
 4786TIP3    H235850   0.928   1.321  17.002  0.2300 -0.2352 -1.1337
 4787TIP3   OH235851   0.429   1.986  17.035 -0.5123 -0.5499 -0.5397
 4787TIP3    H135852   0.434   2.019  16.945 -0.2803  0.0012 -0.3249
 4787TIP3    H235853   0.514   2.007  17.073 -0.5702 -0.8827 -0.2189
 4788TIP3   OH235854   2.639   6.233   2.874 -0.3413 -0.0602 -0.1671
 4788TIP3    H135855   2.731   6.259   2.872 -0.3098 -0.1918 -0.4271
 4788TIP3    H235856   2.597   6.287   2.806  0.1642 -2.3443 -2.4199
 4789TIP3   OH235857   6.080   1.814  13.223 -0.2579 -0.2540  0.1279
 4789TIP3    H135858   6.134   1.887  13.253 -0.7769 -0.1282  0.7996
 4789TIP3    H235859   6.005   1.856  13.181  1.2791 -0.4193 -3.0181
 4790TIP3   OH235860   0.280   6.457   4.896  0.8431 -0.4997  0.1431
 4790TIP3    H135861   0.283   6.363   4.875  1.0403 -0.7101  1.0572
 4790TIP3    H235862   0.195   6.468   4.939  0.0258  0.1070 -1.5460
 4791TIP3   OH235863   6.724   4.999   3.343 -0.3198  0.0100 -0.0981
 4791TIP3    H135864   6.718   4.904   3.353 -0.7776  0.0190 -0.2690
 4791TIP3    H235865   6.805   5.023   3.388  0.1328 -0.5394 -0.6238
 4792TIP3   OH235866   5.910   2.296  14.007  0.0828  0.0240 -0.0359
 4792TIP3    H135867   5.862   2.216  13.985  1.7475 -0.8707 -0.5614
 4792TIP3    H235868   5.850   2.367  13.984 -1.3088 -1.0543  0.1460
 4793TIP3   OH235869   1.503   4.803  14.085  0.5597 -0.0141 -0.1607
 4793TIP3    H135870   1.542   4.749  14.017  2.3230  1.7068 -0.6023
 4793TIP3    H235871   1.417   4.826  14.051  0.9318 -0.1950 -1.2793
 4794TIP3   OH235872   2.871   0.784  14.894 -0.1511  0.3258  0.3733
 4794TIP3    H135873   2.935   0.772  14.964 -1.4578 -0.6545  1.4362
 4794TIP3    H235874   2.863   0.879  14.885  1.7168  0.4867 -0.0767
 4795TIP3   OH235875   4.530   5.226  13.661  0.1088 -0.3196  0.2974
 4795TIP3    H135876   4.509   5.154  13.602 -0.8183  0.3845 -0.2447
 4795TIP3    H235877   4.472   5.212  13.737  0.1026 -0.2701  0.3013
 4796TIP3   OH235878   1.379   6.439   4.251 -0.3107  0.2463 -0.1305
 4796TIP3    H135879   1.441   6.510   4.236 -0.3591  0.3458  0.1299
 4796TIP3    H235880   1.434   6.366   4.280 -0.1858 -0.0333 -1.0475
 4797TIP3   OH235881   4.904   2.899  15.325  0.0447 -0.1580 -0.7530
 4797TIP3    H135882   4.872   2.904  15.235  0.1687  1.1946 -0.7350
 4797TIP3    H235883   4.947   2.813  15.331 -0.0759 -0.3065 -1.9379
 4798TIP3   OH235884   0.948   3.902  16.350 -0.4151  0.7500 -0.5870
 4798TIP3    H135885   0.979   3.987  16.381 -0.5853  0.8432 -0.6695
 4798TIP3    H235886   0.856   3.917  16.329 -0.2330  0.7497 -1.3965
 4799TIP3   OH235887   4.738   1.994  16.158  0.0046 -0.6301  0.4088
 4799TIP3    H135888   4.811   2.041  16.198  0.6172 -2.1375  1.1334
 4799TIP3    H235889   4.778   1.917  16.117 -1.1616 -1.4854  0.8272
 4800TIP3   OH235890   0.431   5.985  13.551 -0.1993 -0.3522  0.3207
 4800TIP3    H135891   0.456   5.991  13.643 -0.7313  0.1114  0.4391
 4800TIP3    H235892   0.366   6.054  13.539  1.1897  0.8235 -0.8434
 4801TIP3   OH235893   3.525   4.948  16.948  0.2170 -0.4372 -0.3223
 4801TIP3    H135894   3.563   4.869  16.986 -0.4789 -0.1544  1.0120
 4801TIP3    H235895   3.434   4.946  16.975  0.0713  0.5704 -0.7059
 4802TIP3   OH235896   5.937   0.308   5.507 -0.0480  0.1118 -0.0512
 4802TIP3    H135897   5.994   0.270   5.573  1.1456 -0.3955 -1.3247
 4802TIP3    H235898   5.870   0.241   5.491  0.2794 -0.2008 -0.1159
 4803TIP3   OH235899   2.224   3.756   2.347  0.1264  0.2373 -0.1877
 4803TIP3    H135900   2.137   3.787   2.375  0.2598  0.0195  0.4886
 4803TIP3    H235901   2.266   3.834   2.311  0.4440  0.8579  1.4670
 4804TIP3   OH235902   5.459   1.297  12.367 -0.1222  0.1344 -0.3148
 4804TIP3    H135903   5.460   1.381  12.321 -2.6827 -0.4476 -1.6417
 4804TIP3    H235904   5.463   1.231  12.297 -0.4752 -0.8064  0.5173
 4805TIP3   OH235905   5.573   3.478   5.244 -0.8947 -0.1726 -0.3512
 4805TIP3    H135906   5.573   3.455   5.337  0.0256 -1.2097 -0.5809
 4805TIP3    H235907   5.490   3.522   5.230 -1.5840 -1.0727  0.7141
 4806TIP3   OH235908   6.202   0.159   1.729 -0.5826  0.1639 -0.3446
 4806TIP3    H135909   6.253   0.122   1.658 -1.4767  0.3612 -1.1022
 4806TIP3    H235910   6.222   0.103   1.805  0.3966 -0.0227 -0.7270
 4807TIP3   OH235911   0.293   3.673   0.242  0.3010  0.0929  0.5618
 4807TIP3    H135912   0.286   3.626   0.325 -1.1317 -0.1102  0.3568
 4807TIP3    H235913   0.326   3.608   0.180  1.4686  0.2734  0.9781
 4808TIP3   OH235914   1.714   1.835  15.044 -0.8061 -0.5209 -0.1501
 4808TIP3    H135915   1.752   1.838  14.956 -2.3546 -0.0253 -0.8433
 4808TIP3    H235916   1.634   1.784  15.033 -1.2909 -0.0015  0.8562
 4809TIP3   OH235917   3.538   3.134  16.047 -0.0982  0.1044  0.0360
 4809TIP3    H135918   3.555   3.221  16.009 -2.8346  0.8947  0.3905
 4809TIP3    H235919   3.519   3.152  16.139 -0.2301 -0.9497  0.2267
 4810TIP3   OH235920   2.457   1.739   4.126  0.1096  0.2124 -0.3148
 4810TIP3    H135921   2.456   1.827   4.165  2.0100 -0.0250  0.3518
 4810TIP3    H235922   2.542   1.733   4.083 -0.3092 -1.0518 -1.0099
 4811TIP3   OH235923   2.839   3.390  12.544  0.2177 -0.0629  0.2533
 4811TIP3    H135924   2.893   3.311  12.535  0.6295  0.1591  0.6935
 4811TIP3    H235925   2.803   3.384  12.633  0.0420  0.1152  0.1950
 4812TIP3   OH235926   2.077   1.554  16.615  0.3272 -0.6307  0.5275
 4812TIP3    H135927   2.061   1.473  16.663 -0.4029 -2.1728 -2.0933
 4812TIP3    H235928   2.136   1.529  16.544 -1.1508  0.6876 -1.3036
 4813TIP3   OH235929   0.295   6.361   3.074 -0.7703 -0.2569  0.5332
 4813TIP3    H135930   0.227   6.329   3.133 -1.5361 -0.5319 -0.4595
 4813TIP3    H235931   0.332   6.437   3.119 -1.1629 -0.6023  1.4646
 4814TIP3   OH235932   5.100   5.310  13.008  0.0362 -0.4236 -0.2300
 4814TIP3    H135933   5.060   5.387  12.966  0.5429 -1.5718 -2.9977
 4814TIP3    H235934   5.042   5.238  12.985  0.8549 -1.2629  0.2958
 4815TIP3   OH235935   0.391   0.598   4.483 -0.0904 -0.3578 -0.0394
 4815TIP3    H135936   0.444   0.519   4.496 -0.2465 -0.4437  0.0808
 4815TIP3    H235937   0.316   0.569   4.432 -0.3814 -0.3824  0.3984
 4816TIP3   OH235938   5.215   5.444   2.890  0.2031  0.3038 -0.3457
 4816TIP3    H135939   5.177   5.376   2.834  0.3459  1.8786 -2.4867
 4816TIP3    H235940   5.142   5.474   2.944 -0.2364 -0.4755 -0.4902
 4817TIP3   OH235941   3.333   3.193   2.569  0.0143  0.2991  0.6723
 4817TIP3    H135942   3.392   3.257   2.529 -0.6818 -0.4930 -1.7964
 4817TIP3    H235943   3.389   3.143   2.629  1.5513  0.4586 -0.5698
 4818TIP3   OH235944   3.865   2.048  15.578  0.0062 -0.2060 -0.5844
 4818TIP3    H135945   3.862   2.126  15.633 -0.8397 -1.6258  1.5118
 4818TIP3    H235946   3.786   2.053  15.523 -0.5099 -0.0109  0.1655
 4819TIP3   OH235947   3.457   5.468   4.483 -0.3630  0.2550  0.1063
 4819TIP3    H135948   3.514   5.545   4.484  0.4024 -0.2936  1.5373
 4819TIP3    H235949   3.512   5.399   4.445 -0.1733 -0.1758  1.1204
 4820TIP3   OH235950   4.265   1.500   6.128 -0.2290  0.0277 -0.1929
 4820TIP3    H135951   4.184   1.524   6.082  1.0955  0.2162 -2.6108
 4820TIP3    H235952   4.266   1.404   6.126 -0.8387 -0.0091  0.7302
 4821TIP3   OH235953   6.059   5.506  12.754  0.4156  0.3771 -0.5298
 4821TIP3    H135954   6.021   5.473  12.836 -0.0595 -0.8531 -1.2174
 4821TIP3    H235955   6.136   5.451  12.740 -0.3973 -0.5077 -1.7118
 4822TIP3   OH235956   5.247   0.170   3.778  0.6905  0.4287 -0.3387
 4822TIP3    H135957   5.233   0.081   3.810 -0.5042 -0.3995 -2.9095
 4822TIP3    H235958   5.170   0.218   3.808  0.8320  0.3430  0.1729
 4823TIP3   OH235959   6.708   4.537  12.561 -0.0202 -0.1000  0.1457
 4823TIP3    H135960   6.631   4.589  12.583  0.3930  0.4607  0.3014
 4823TIP3    H235961   6.777   4.602  12.546  1.3938 -0.6443  3.5191
 4824TIP3   OH235962   5.526   4.192   4.016 -0.4565 -0.0306  0.0105
 4824TIP3    H135963   5.498   4.130   3.949 -0.3902  1.1800 -1.2012
 4824TIP3    H235964   5.619   4.171   4.031  0.3750  1.4158 -2.4160
 4825TIP3   OH235965   5.698   0.060   5.184  0.5549  0.2552 -0.2246
 4825TIP3    H135966   5.620   0.045   5.238  0.7119 -1.4131 -0.4236
 4825TIP3    H235967   5.675   0.136   5.130 -0.3292  0.7569  0.8062
 4826TIP3   OH235968   6.572   2.857   0.603  0.5120 -0.2912  0.2985
 4826TIP3    H135969   6.640   2.852   0.536 -0.6071 -0.3770 -0.8900
 4826TIP3    H235970   6.540   2.947   0.599  0.4532 -0.2900  0.7365
 4827TIP3   OH235971   0.425   2.275  15.109  0.0241 -0.4124 -0.3020
 4827TIP3    H135972   0.388   2.199  15.156 -0.8760 -0.3321 -0.8741
 4827TIP3    H235973   0.425   2.249  15.017  1.1250 -0.2909 -0.3444
 4828TIP3   OH235974   4.035   1.436   1.644  0.0269  0.7294  0.1345
 4828TIP3    H135975   4.071   1.523   1.659  1.3114  0.4540 -1.1902
 4828TIP3    H235976   4.109   1.376   1.654 -0.7170 -0.1741  0.4493
 4829TIP3   OH235977   0.407   1.954   0.228 -0.6545 -0.3561 -0.4564
 4829TIP3    H135978   0.429   2.043   0.200  0.6032 -0.1936  0.9206
 4829TIP3    H235979   0.320   1.961   0.265 -0.8465  0.1576 -0.9915
 4830TIP3   OH235980   4.513   4.697  17.004 -0.1734  0.1905 -0.2086
 4830TIP3    H135981   4.540   4.644  17.078  0.8890  1.0314  0.0318
 4830TIP3    H235982   4.491   4.634  16.935  0.6860 -0.5593  0.1906
 4831TIP3   OH235983   4.224   2.203   3.465 -0.3311  0.0978 -0.1941
 4831TIP3    H135984   4.223   2.297   3.485  0.9811  0.1154 -0.0724
 4831TIP3    H235985   4.133   2.180   3.451 -0.8855  1.0173  1.5878
 4832TIP3   OH235986   6.779   1.971  14.258  0.4818  0.0449  0.3703
 4832TIP3    H135987   6.705   1.950  14.201  1.3237 -0.2292 -0.6587
 4832TIP3    H235988   6.839   1.897  14.249  1.2754  0.6543  0.4949
 4833TIP3   OH235989   5.671   1.485  12.561 -0.1139  0.1524  0.6044
 4833TIP3    H135990   5.601   1.548  12.546 -0.5754 -0.3941  0.4533
 4833TIP3    H235991   5.632   1.400  12.541  0.6703 -0.1309  0.2307
 4834TIP3   OH235992   3.690   2.585   4.696 -0.4493  0.0540  0.1541
 4834TIP3    H135993   3.731   2.625   4.620  1.6341  1.7560  2.0301
 4834TIP3    H235994   3.763   2.548   4.745 -1.5429  0.2050  1.9793
 4835TIP3   OH235995   2.482   3.780  14.596  0.3584  0.1736 -0.1234
 4835TIP3    H135996   2.577   3.786  14.601  0.4075 -1.0854  3.6138
 4835TIP3    H235997   2.451   3.831  14.671 -1.7157 -1.7410  0.4455
 4836TIP3   OH235998   0.892   0.959   2.873 -0.4340  0.5099  0.0718
 4836TIP3    H135999   0.834   0.927   2.942 -0.9448 -0.4196 -0.7667
 4836TIP3    H236000   0.843   0.947   2.792  0.6044  0.4602 -0.5782
 4837TIP3   OH236001   2.425   5.689  10.654  0.0478  0.4028 -0.5018
 4837TIP3    H136002   2.438   5.769  10.705  3.3246 -1.2263  1.6063
 4837TIP3    H236003   2.348   5.648  10.694  0.2986  0.9817  0.6236
 4838TIP3   OH236004   0.215   5.258  17.133 -0.0739 -0.4530  0.4262
 4838TIP3    H136005   0.180   5.227  17.050 -2.7999 -0.0169  1.2911
 4838TIP3    H236006   0.306   5.230  17.134 -0.5408 -2.2769 -1.7821
 4839TIP3   OH236007   4.371   3.907   3.657  0.2722 -0.4274 -0.0325
 4839TIP3    H136008   4.312   3.832   3.663 -1.6431  1.1344  2.1568
 4839TIP3    H236009   4.451   3.878   3.700  0.0030 -1.5987 -0.2990
 4840TIP3   OH236010   1.440   5.891  15.614 -0.2320  0.8827 -0.1712
 4840TIP3    H136011   1.487   5.810  15.594  0.1652  1.0493  0.0817
 4840TIP3    H236012   1.354   5.879  15.574 -0.5854 -0.1562  0.8425
 4841TIP3   OH236013   0.546   6.378  13.518  0.7899  0.2224  0.6042
 4841TIP3    H136014   0.637   6.398  13.496 -0.4267  2.6127 -3.0883
 4841TIP3    H236015   0.551   6.294  13.564  4.7502 -0.3161 -0.4307
 4842TIP3   OH236016   5.778   1.696  11.781  0.1293 -0.1796 -0.1115
 4842TIP3    H136017   5.742   1.744  11.706  0.0354  0.2358  0.2007
 4842TIP3    H236018   5.722   1.720  11.855 -0.8175 -1.8825 -0.2274
 4843TIP3   OH236019   6.404   1.445   3.762  0.1390  0.3782  0.0715
 4843TIP3    H136020   6.455   1.513   3.717 -0.2663  0.1229 -0.8068
 4843TIP3    H236021   6.433   1.363   3.722  0.0340  0.1034  0.5485
 4844TIP3   OH236022   0.603   5.243  11.967 -0.0436  0.2547 -0.0544
 4844TIP3    H136023   0.607   5.148  11.955 -0.7673 -0.0599  1.8004
 4844TIP3    H236024   0.653   5.259  12.047  0.2492  1.4642 -0.4739
 4845TIP3   OH236025   6.104   4.008  11.927 -0.0103  0.9472 -0.1481
 4845TIP3    H136026   6.155   4.046  11.999  3.9451 -0.8069 -1.7248
 4845TIP3    H236027   6.081   3.920  11.958 -0.6177  1.1095 -0.1125
 4846TIP3   OH236028   6.560   6.630   4.999  0.0743 -0.3805 -0.4940
 4846TIP3    H136029   6.635   6.671   4.954  0.6376  1.8930  2.2514
 4846TIP3    H236030   6.493   6.698   5.000  0.5614  0.2168  3.0680
 4847TIP3   OH236031   5.576   2.513   4.110 -0.1608  0.1886 -0.7359
 4847TIP3    H136032   5.494   2.492   4.155 -0.0792  1.7380  0.1994
 4847TIP3    H236033   5.609   2.428   4.080 -0.5572 -0.8417  1.5443
 4848TIP3   OH236034   3.282   2.030  10.605 -0.2490 -0.2541 -0.2959
 4848TIP3    H136035   3.255   2.119  10.626  0.3082  0.0040 -0.6493
 4848TIP3    H236036   3.316   1.996  10.688  0.7242  0.3068 -0.4533
 4849TIP3   OH236037   6.272   2.935   1.944 -0.5469 -0.8152 -0.0411
 4849TIP3    H136038   6.188   2.888   1.947 -0.2254 -1.3495  1.8322
 4849TIP3    H236039   6.326   2.883   1.885 -0.5445 -2.2922  1.1773
 4850TIP3   OH236040   5.501   0.654  12.320  0.1562 -0.2858  0.1229
 4850TIP3    H136041   5.515   0.560  12.333 -0.7937 -0.7907 -2.2082
 4850TIP3    H236042   5.589   0.690  12.310  0.4701 -1.1397 -0.2449
 4851TIP3   OH236043   5.650   5.707   5.824  0.5470 -0.0724  0.0577
 4851TIP3    H136044   5.654   5.650   5.900 -1.2483 -0.9603 -0.4681
 4851TIP3    H236045   5.611   5.788   5.857  0.1240 -0.3180  0.1709
 4852TIP3   OH236046   4.638   5.811  17.167 -0.2841 -0.9283  0.0837
 4852TIP3    H136047   4.669   5.750  17.234 -0.2585 -2.2675 -1.0989
 4852TIP3    H236048   4.553   5.842  17.200  0.6806  0.1570  1.7338
 4853TIP3   OH236049   2.976   0.895   5.462  0.0587 -0.1240  0.4612
 4853TIP3    H136050   2.929   0.864   5.385  0.2123  0.5213  0.0955
 4853TIP3    H236051   2.950   0.987   5.471  2.7140  0.8798 -0.9652
 4854TIP3   OH236052   3.633   3.840  14.656 -0.2870 -0.0448 -1.1628
 4854TIP3    H136053   3.628   3.919  14.602 -0.0563  0.2485 -0.7550
 4854TIP3    H236054   3.556   3.789  14.630 -0.3607  0.2475 -1.5307
 4855TIP3   OH236055   0.655   2.438  10.617  0.3801 -0.4886 -0.4122
 4855TIP3    H136056   0.689   2.397  10.537  0.5132 -1.4773  0.1316
 4855TIP3    H236057   0.657   2.368  10.682 -0.3013  0.1403  0.3024
 4856TIP3   OH236058   0.171   3.031   3.420 -0.1257  0.7509  0.3365
 4856TIP3    H136059   0.139   3.026   3.330  1.3527  0.3470 -0.2000
 4856TIP3    H236060   0.229   3.107   3.421  1.2539 -0.2562  0.4486
 4857TIP3   OH236061   2.523   3.412  15.546 -0.2170 -0.0003  0.4203
 4857TIP3    H136062   2.495   3.395  15.636 -0.5391  0.9409  0.5050
 4857TIP3    H236063   2.450   3.460  15.507  0.0049 -0.2335 -0.2926
 4858TIP3   OH236064   6.609   3.945   3.095 -0.7020 -0.3434 -0.9394
 4858TIP3    H136065   6.608   4.022   3.039  1.0876 -1.2208 -2.2867
 4858TIP3    H236066   6.546   3.964   3.164 -1.3526  1.7016 -2.0330
 4859TIP3   OH236067   5.297   4.926   0.158 -0.0521  0.0479  0.1340
 4859TIP3    H136068   5.384   4.941   0.194 -0.1451 -0.0796  0.4216
 4859TIP3    H236069   5.312   4.866   0.085  0.2806  1.2796 -0.8367
 4860TIP3   OH236070   3.730   5.105   5.861 -0.8152 -0.2725 -0.2031
 4860TIP3    H136071   3.718   5.150   5.944  2.7221  1.4782 -0.4579
 4860TIP3    H236072   3.707   5.014   5.879 -0.0965  0.0514  2.7504
 4861TIP3   OH236073   5.355   3.299  15.735  0.3426 -0.2502 -0.3339
 4861TIP3    H136074   5.407   3.299  15.654 -1.0860  2.4805 -1.3630
 4861TIP3    H236075   5.402   3.359  15.793 -1.9289  3.0247 -1.6192
 4862TIP3   OH236076   6.029   2.251   5.840 -0.9562 -0.2465  0.3500
 4862TIP3    H136077   6.116   2.276   5.809 -0.4650 -1.4350  0.7369
 4862TIP3    H236078   5.996   2.330   5.884  0.8806 -0.4620  2.2433
 4863TIP3   OH236079   1.106   5.032  16.012 -0.3987  0.1479  0.4327
 4863TIP3    H136080   1.132   5.108  16.064 -2.1403 -0.6825  2.6462
 4863TIP3    H236081   1.160   4.961  16.044  2.1754  0.5526 -2.5343
 4864TIP3   OH236082   5.218   6.640   1.612 -0.1467 -0.4123 -0.0468
 4864TIP3    H136083   5.222   6.557   1.565  1.6072 -0.9995  1.0320
 4864TIP3    H236084   5.303   6.646   1.656 -1.2651  0.6479  2.1126
 4865TIP3   OH236085   6.563   4.919  11.782 -0.5512  0.3290  0.3257
 4865TIP3    H136086   6.503   4.936  11.854 -1.2500  1.0419 -0.4079
 4865TIP3    H236087   6.534   4.835  11.746  0.1664 -0.3215  1.2208
 4866TIP3   OH236088   4.678   4.304   2.013 -0.3887  0.3124 -0.1481
 4866TIP3    H136089   4.676   4.350   1.929 -0.4072 -2.4416 -1.7804
 4866TIP3    H236090   4.586   4.282   2.030 -0.2846  0.1262  0.1737
 4867TIP3   OH236091   4.728   4.077   3.278 -0.0543 -0.2058 -0.3519
 4867TIP3    H136092   4.663   4.140   3.247 -0.6766 -1.6575 -2.1900
 4867TIP3    H236093   4.715   4.073   3.373  0.0070  2.3540 -0.1757
 4868TIP3   OH236094   5.529   3.186  13.313  0.1135  0.0818  0.0781
 4868TIP3    H136095   5.508   3.231  13.395  0.2366 -0.1701  0.2535
 4868TIP3    H236096   5.482   3.103  13.319 -0.7028  0.4894 -0.5692
 4869TIP3   OH236097   6.209   2.819  14.968  0.5884  0.3061 -0.1638
 4869TIP3    H136098   6.270   2.880  14.926 -0.0277  0.5464 -0.7310
 4869TIP3    H236099   6.265   2.765  15.024  1.4256  0.0735 -1.1796
 4870TIP3   OH236100   1.834   0.374  13.782 -0.4169  0.4794 -0.0324
 4870TIP3    H136101   1.884   0.303  13.821 -2.4218 -0.8227  0.3104
 4870TIP3    H236102   1.813   0.432  13.855 -2.4392 -0.9003  0.5724
 4871TIP3   OH236103   0.221   4.046  15.127 -0.4430 -0.0295  0.4371
 4871TIP3    H136104   0.236   4.113  15.194 -0.3402  1.0389 -0.6145
 4871TIP3    H236105   0.128   4.024  15.136 -0.1478 -0.8391  1.7505
 4872TIP3   OH236106   5.503   4.801   3.544 -0.4646 -0.2604 -0.8969
 4872TIP3    H136107   5.449   4.829   3.618  0.4655 -1.5064  0.3076
 4872TIP3    H236108   5.519   4.881   3.494  0.3161  0.9813  1.2094
 4873TIP3   OH236109   1.019   4.931   4.301 -0.3113 -0.2680 -0.4958
 4873TIP3    H136110   1.018   4.856   4.241 -0.4146 -0.1294 -0.6669
 4873TIP3    H236111   0.928   4.962   4.301  0.1075  1.0583 -1.9282
 4874TIP3   OH236112   0.303   5.072   3.020 -0.1916 -0.3939 -0.2786
 4874TIP3    H136113   0.231   5.011   3.034  0.2237 -1.2106 -1.4470
 4874TIP3    H236114   0.343   5.043   2.937 -0.6360  2.1360 -1.4781
 4875TIP3   OH236115   5.276   3.565   5.242 -0.2658 -0.6474 -0.7057
 4875TIP3    H136116   5.290   3.588   5.334  0.7471  0.5457 -1.1252
 4875TIP3    H236117   5.218   3.634   5.209 -0.2547 -0.8068 -1.0606
 4876TIP3   OH236118   3.123   4.067  14.771 -0.4277 -0.3032 -0.3768
 4876TIP3    H136119   3.046   4.047  14.823 -0.4614 -0.4796 -0.4937
 4876TIP3    H236120   3.135   4.162  14.781  1.0041 -0.6434  1.9534
 4877TIP3   OH236121   6.285   3.483   2.770  0.2936  0.4764  0.2029
 4877TIP3    H136122   6.322   3.517   2.851 -0.9079  1.3033  0.4397
 4877TIP3    H236123   6.344   3.514   2.701  0.4972  1.0664  0.6362
 4878TIP3   OH236124   5.817   6.356  14.370  0.2902  0.1476 -0.2660
 4878TIP3    H136125   5.806   6.451  14.373  0.8653  0.2247  2.6750
 4878TIP3    H236126   5.877   6.341  14.297  2.5028  2.3943  0.9335
 4879TIP3   OH236127   1.137   5.744  15.954  0.1266  0.4297  0.0803
 4879TIP3    H136128   1.061   5.686  15.957 -0.4502  1.1798  2.9456
 4879TIP3    H236129   1.114   5.811  15.889 -0.9677 -0.2709 -0.2723
 4880TIP3   OH236130   3.981   2.244   3.165  0.2133  0.1765 -0.4009
 4880TIP3    H136131   3.950   2.334   3.171 -0.5475 -0.1576  1.5819
 4880TIP3    H236132   3.973   2.210   3.254  1.1375 -1.6480 -0.9576
 4881TIP3   OH236133   1.180   6.399  14.896  0.3168 -0.4824  0.0629
 4881TIP3    H136134   1.200   6.385  14.803 -0.8076 -0.3826 -0.2111
 4881TIP3    H236135   1.264   6.419  14.936  0.6421  0.8765 -1.2085
 4882TIP3   OH236136   6.215   0.561  10.703  0.2795  1.0053 -0.3103
 4882TIP3    H136137   6.234   0.469  10.718 -0.0687  1.0061  0.1855
 4882TIP3    H236138   6.271   0.608  10.765  0.9587  1.1687 -1.0334
 4883TIP3   OH236139   2.432   0.216   5.937  0.7226  0.2799  0.2994
 4883TIP3    H136140   2.463   0.126   5.938 -0.0550  0.0114  0.4331
 4883TIP3    H236141   2.413   0.234   5.845 -1.9942 -0.7090  0.5930
 4884TIP3   OH236142   5.375   3.875  10.725  0.1429  0.2355  0.0019
 4884TIP3    H136143   5.433   3.822  10.671 -0.3730 -1.3485  0.9489
 4884TIP3    H236144   5.289   3.866  10.684  0.2676  1.3989 -0.5579
 4885TIP3   OH236145   3.191   0.825   1.203 -0.2975  0.4610 -0.1384
 4885TIP3    H136146   3.282   0.795   1.199 -0.1181  0.8006  1.0186
 4885TIP3    H236147   3.151   0.771   1.270 -1.2864 -0.4849 -1.4446
 4886TIP3   OH236148   6.554   3.434  15.089  0.4028  0.5435 -0.3228
 4886TIP3    H136149   6.556   3.493  15.164  0.0368  0.7857 -0.5054
 4886TIP3    H236150   6.480   3.463  15.037 -1.2328 -1.4508  0.7204
 4887TIP3   OH236151   5.640   4.502   5.441  0.4144 -0.1290  0.5237
 4887TIP3    H136152   5.568   4.472   5.496 -0.9149  0.6332 -0.7520
 4887TIP3    H236153   5.710   4.523   5.503 -0.9390  0.4654  1.9146
 4888TIP3   OH236154   5.899   4.677   1.528 -0.2126  0.3933  0.3185
 4888TIP3    H136155   5.877   4.759   1.484  1.0319  0.5154 -0.1204
 4888TIP3    H236156   5.979   4.697   1.576  1.3565 -1.1025 -1.5225
 4889TIP3   OH236157   2.293   5.229  16.459  0.2069 -0.2132 -0.6794
 4889TIP3    H136158   2.226   5.238  16.391 -0.4930 -4.0778 -0.7696
 4889TIP3    H236159   2.266   5.290  16.527 -2.2018 -0.0414 -1.6695
 4890TIP3   OH236160   1.314   5.862  14.765  0.2430  0.3660  0.0056
 4890TIP3    H136161   1.404   5.854  14.735 -0.3112  2.1851 -2.4911
 4890TIP3    H236162   1.320   5.913  14.846  1.4975 -0.7356  0.6461
 4891TIP3   OH236163   2.266   4.584  15.314  0.6163  0.6635 -0.7418
 4891TIP3    H136164   2.352   4.623  15.329  1.2980 -0.8951 -0.4825
 4891TIP3    H236165   2.277   4.492  15.336 -0.6525  0.0579 -2.4553
 4892TIP3   OH236166   6.223   0.367  12.566 -0.2275 -0.0287 -0.0890
 4892TIP3    H136167   6.186   0.323  12.642  0.9125  0.5343  0.8264
 4892TIP3    H236168   6.177   0.330  12.491  0.1231 -2.1836  0.7063
 4893TIP3   OH236169   0.668   4.001   6.090 -0.3497  0.4041 -0.3032
 4893TIP3    H136170   0.666   4.093   6.062  0.2229  0.6769  0.5077
 4893TIP3    H236171   0.758   3.973   6.075 -0.1095  0.4613  0.8955
 4894TIP3   OH236172   4.654   4.622   1.565  0.2871 -0.1302 -0.8084
 4894TIP3    H136173   4.606   4.570   1.500 -1.0053  0.5283 -0.4263
 4894TIP3    H236174   4.608   4.706   1.567  0.4979 -0.0165  0.7166
 4895TIP3   OH236175   2.412   4.243   2.471  0.0710 -0.0028  0.1417
 4895TIP3    H136176   2.496   4.246   2.425  1.2451  0.0475  2.1955
 4895TIP3    H236177   2.369   4.325   2.447  0.1690 -0.4064 -1.6178
 4896TIP3   OH236178   0.211   4.120   0.543 -0.0567  0.1817  0.2891
 4896TIP3    H136179   0.292   4.164   0.572 -1.2354  2.3624  0.4983
 4896TIP3    H236180   0.168   4.185   0.487 -0.6373 -1.7746 -1.6266
 4897TIP3   OH236181   1.718   5.275   4.507  0.0406  0.5219 -0.0209
 4897TIP3    H136182   1.714   5.363   4.546  0.0524  0.7732 -0.5686
 4897TIP3    H236183   1.673   5.285   4.423  0.8672  0.2329 -0.5096
 4898TIP3   OH236184   4.610   2.233   4.211  0.1287  0.0338  0.2908
 4898TIP3    H136185   4.629   2.266   4.299  1.1353 -0.1384  0.1525
 4898TIP3    H236186   4.659   2.291   4.153 -0.6995  0.2739 -0.1756
 4899TIP3   OH236187   3.832   6.216  14.343  0.2628  0.1543  0.4372
 4899TIP3    H136188   3.830   6.124  14.369 -2.2348 -0.1740 -0.6028
 4899TIP3    H236189   3.790   6.217  14.257 -0.9488  2.4160  0.9918
 4900TIP3   OH236190   4.026   0.718  11.230 -0.1994  0.1635  0.1143
 4900TIP3    H136191   3.970   0.778  11.181  2.3751  2.9670  0.2921
 4900TIP3    H236192   4.109   0.718  11.182  0.0393 -3.0720  0.3526
 4901TIP3   OH236193   3.240   1.197   2.035 -0.5958 -0.0353 -0.5063
 4901TIP3    H136194   3.237   1.214   2.129  2.0615  0.3631 -0.4255
 4901TIP3    H236195   3.256   1.283   1.995  0.0802 -0.4565 -1.1706
 4902TIP3   OH236196   0.275   4.848  17.273  0.0642  0.0274 -0.2141
 4902TIP3    H136197   0.213   4.881  17.338  0.5394  0.1530  0.1902
 4902TIP3    H236198   0.247   4.888  17.191 -0.4575 -0.0127 -0.0574
 4903TIP3   OH236199   2.991   0.287   2.012 -0.1200  0.3468 -0.6143
 4903TIP3    H136200   2.961   0.239   2.089 -1.0704 -0.3234 -1.3757
 4903TIP3    H236201   2.966   0.378   2.028  1.3494  0.5662  0.6673
 4904TIP3   OH236202   5.794   3.290   5.273  0.5758 -0.2842 -0.1551
 4904TIP3    H136203   5.704   3.306   5.302  0.3499 -0.7403 -0.5768
 4904TIP3    H236204   5.821   3.372   5.232  0.1840 -0.2870 -0.4290
 4905TIP3   OH236205   2.429   6.736  14.669  0.0217  0.7442 -0.1455
 4905TIP3    H136206   2.513   6.770  14.698 -0.4667  0.6615  1.5236
 4905TIP3    H236207   2.407   6.668  14.734 -1.7278  1.3964  0.0080
 4906TIP3   OH236208   5.577   5.502  15.408 -0.1565  0.5286 -0.0464
 4906TIP3    H136209   5.518   5.518  15.482 -1.0213 -0.7436 -0.4143
 4906TIP3    H236210   5.651   5.454  15.446 -1.6826 -2.2062 -0.2918
 4907TIP3   OH236211   4.525   3.656  13.617  0.5832 -0.6677  0.3678
 4907TIP3    H136212   4.538   3.625  13.706  3.7390 -0.1725  0.2219
 4907TIP3    H236213   4.485   3.583  13.570  0.0480 -1.3783  1.8955
 4908TIP3   OH236214   3.660   2.662   4.241  0.1095 -0.3071 -0.1238
 4908TIP3    H136215   3.614   2.679   4.159 -2.7513 -0.1141  1.3935
 4908TIP3    H236216   3.690   2.748   4.270  0.2053 -0.2228 -0.4733
 4909TIP3   OH236217   1.127   0.385   2.333 -0.4223 -0.0724 -0.3841
 4909TIP3    H136218   1.184   0.454   2.367 -0.7614  0.2779 -0.5191
 4909TIP3    H236219   1.186   0.311   2.318 -0.2201 -0.1530  0.7131
 4910TIP3   OH236220   0.850   4.578  10.706  0.7209 -0.4655 -0.5390
 4910TIP3    H136221   0.878   4.507  10.764 -0.6168 -0.4809  0.1167
 4910TIP3    H236222   0.903   4.653  10.732 -0.3260 -0.2872  1.2016
 4911TIP3   OH236223   1.140   2.553   0.990 -0.0059  0.5544  0.0418
 4911TIP3    H136224   1.086   2.584   1.063 -1.3297  0.1727 -0.7542
 4911TIP3    H236225   1.224   2.598   1.002 -0.5180  1.2233  1.2614
 4912TIP3   OH236226   1.662   2.507   2.703  0.3894 -0.2231 -0.6897
 4912TIP3    H136227   1.684   2.529   2.612 -0.2237 -0.5301 -0.9191
 4912TIP3    H236228   1.624   2.588   2.738  0.0385 -0.2889 -0.9057
 4913TIP3   OH236229   5.824   1.208   0.064 -0.8647 -0.0546  0.4170
 4913TIP3    H136230   5.799   1.300   0.070  0.1399  0.3642 -1.2440
 4913TIP3    H236231   5.741   1.160   0.070 -1.7032  1.0979 -1.2070
 4914TIP3   OH236232   0.578   5.389   3.736  0.5656  0.6999 -0.0243
 4914TIP3    H136233   0.671   5.385   3.759  1.1030 -0.3606 -2.1365
 4914TIP3    H236234   0.572   5.462   3.675  0.3285 -0.1750 -1.0773
 4915TIP3   OH236235   6.175   0.466  14.825  0.0518 -0.3610 -0.7372
 4915TIP3    H136236   6.088   0.428  14.817 -0.0157 -0.0782 -1.4079
 4915TIP3    H236237   6.228   0.398  14.867 -0.5570 -0.4197 -0.0447
 4916TIP3   OH236238   3.837   4.412   1.371 -0.3153 -0.0799 -0.4518
 4916TIP3    H136239   3.833   4.448   1.460 -1.2159  0.9482 -0.8831
 4916TIP3    H236240   3.821   4.487   1.314 -3.8132 -1.3029 -1.3555
 4917TIP3   OH236241   1.882   1.494   5.988  0.1216 -0.3194 -0.2542
 4917TIP3    H136242   1.818   1.458   6.050 -1.8567 -0.0203 -1.9775
 4917TIP3    H236243   1.964   1.497   6.036 -1.7306  2.2615  3.2018
 4918TIP3   OH236244   2.394   1.869   0.105 -0.3992  0.0663  0.0194
 4918TIP3    H136245   2.383   1.774   0.109  1.1836 -0.1245  0.9931
 4918TIP3    H236246   2.305   1.904   0.109 -1.0507 -1.3678 -0.9529
 4919TIP3   OH236247   1.252   3.402  11.476 -0.3072 -0.3798 -0.2933
 4919TIP3    H136248   1.216   3.371  11.393 -0.0749  1.8362 -1.2968
 4919TIP3    H236249   1.195   3.362  11.543 -1.3727 -1.0931 -1.5697
 4920TIP3   OH236250   2.976   4.002  16.412  0.5475 -0.1545  0.0194
 4920TIP3    H136251   2.924   3.923  16.417 -1.0750  0.6154 -2.6160
 4920TIP3    H236252   2.931   4.057  16.348  2.1469  2.5005  0.9820
 4921TIP3   OH236253   6.743   4.048  12.760  0.0119 -0.8285 -0.4854
 4921TIP3    H136254   6.748   4.108  12.686  0.6479 -0.3340 -0.0536
 4921TIP3    H236255   6.651   4.047  12.785 -0.2037 -0.9848 -1.2670
 4922TIP3   OH236256   3.008   0.036  14.123  0.3183  0.2263  0.1252
 4922TIP3    H136257   3.075   0.089  14.080  0.5558 -0.5760 -0.4993
 4922TIP3    H236258   3.037   0.032  14.215  0.4186  0.9690  0.1375
 4923TIP3   OH236259   1.733   4.853   2.333  0.4951 -0.3159  0.2032
 4923TIP3    H136260   1.722   4.899   2.417  1.5062 -1.5004  1.0285
 4923TIP3    H236261   1.646   4.854   2.294 -0.4696 -1.3272  2.1483
 4924TIP3   OH236262   5.378   5.448   3.581 -0.1221 -0.6118 -0.0366
 4924TIP3    H136263   5.301   5.453   3.638  0.8253 -0.5992  1.2620
 4924TIP3    H236264   5.430   5.376   3.616  1.4554  0.6679  0.3722
 4925TIP3   OH236265   0.613   0.079   4.935  0.1029 -0.2254  0.1471
 4925TIP3    H136266   0.519   0.087   4.920 -0.0196 -0.4961  0.7358
 4925TIP3    H236267   0.650   0.063   4.848 -0.4927 -1.0341  0.0263
 4926TIP3   OH236268   3.396   1.597  10.998 -0.6208  0.0493 -0.4130
 4926TIP3    H136269   3.373   1.504  11.007 -1.2374  0.3049  0.7739
 4926TIP3    H236270   3.409   1.627  11.087 -1.0793  1.2866 -0.7468
 4927TIP3   OH236271   0.167   0.809  15.254  0.0312 -0.0488 -0.0513
 4927TIP3    H136272   0.180   0.722  15.215 -0.2258 -0.2647  0.3452
 4927TIP3    H236273   0.130   0.791  15.340  1.8368  0.3731  0.8540
 4928TIP3   OH236274   2.097   4.409   5.424  0.2862 -0.1291  0.5560
 4928TIP3    H136275   2.029   4.453   5.475  0.4249  0.4983  0.2177
 4928TIP3    H236276   2.169   4.396   5.485  0.4884  0.7039  0.5084
 4929TIP3   OH236277   0.083   5.069  15.461  0.0178 -0.0695 -0.2586
 4929TIP3    H136278   0.177   5.056  15.472  0.1997  1.3019  0.0617
 4929TIP3    H236279   0.043   5.027  15.537  0.4490  0.1301  0.0832
 4930TIP3   OH236280   4.390   5.108  12.334  0.6325 -0.9466 -0.8617
 4930TIP3    H136281   4.339   5.050  12.277  1.1168 -0.2711 -2.0339
 4930TIP3    H236282   4.461   5.053  12.367  0.1533 -1.4384 -0.6427
 4931TIP3   OH236283   2.723   0.294   5.311 -0.4269 -0.1748 -0.1669
 4931TIP3    H136284   2.714   0.221   5.250 -0.6041 -0.0436 -0.3002
 4931TIP3    H236285   2.653   0.355   5.286  0.6847  0.7910 -1.1065
 4932TIP3   OH236286   5.359   2.650  11.534 -0.4192 -0.0082 -0.3361
 4932TIP3    H136287   5.437   2.704  11.525 -0.3200 -0.3002 -1.4523
 4932TIP3    H236288   5.316   2.656  11.448 -0.0551 -2.2001 -0.7385
 4933TIP3   OH236289   6.800   1.291  17.222 -0.0780  0.7724  0.0193
 4933TIP3    H136290   6.871   1.241  17.263 -0.8700  1.3935  2.3353
 4933TIP3    H236291   6.827   1.383  17.230 -1.3098  1.0562  1.4271
 4934TIP3   OH236292   4.787   3.106   3.502 -0.3646 -0.3372 -0.2935
 4934TIP3    H136293   4.850   3.157   3.451 -2.3875  1.7226 -0.9145
 4934TIP3    H236294   4.800   3.135   3.592 -0.8357  0.6102 -0.5146
 4935TIP3   OH236295   1.241   3.202  15.701 -0.3292  0.1253 -0.6871
 4935TIP3    H136296   1.213   3.143  15.631  2.0507 -0.7271 -0.9841
 4935TIP3    H236297   1.207   3.162  15.781 -0.9628 -0.2179 -1.1209
 4936TIP3   OH236298   4.240   4.734  11.271  0.5620  0.0137  0.0283
 4936TIP3    H136299   4.215   4.809  11.217  0.2382  0.4590  0.7831
 4936TIP3    H236300   4.324   4.760  11.310 -0.3858  0.7475  1.6813
 4937TIP3   OH236301   0.619   2.990  14.705 -0.0041 -0.1191  0.2169
 4937TIP3    H136302   0.628   2.914  14.648 -0.1038  1.1735 -1.5924
 4937TIP3    H236303   0.545   3.039  14.669 -0.7886  0.2134  2.1334
 4938TIP3   OH236304   1.697   6.423   4.451 -0.1231  0.2750 -0.2867
 4938TIP3    H136305   1.690   6.385   4.539  2.1831 -0.6620 -0.4319
 4938TIP3    H236306   1.664   6.355   4.393 -0.0936  0.2357 -0.2574
 4939TIP3   OH236307   3.607   2.456   1.665  0.1291  0.8328 -0.2990
 4939TIP3    H136308   3.568   2.444   1.752 -0.6166  0.9450 -0.6100
 4939TIP3    H236309   3.533   2.445   1.604  0.8750 -0.5261 -0.9972
 4940TIP3   OH236310   5.124   6.758   4.543 -0.0904 -0.1595  0.2681
 4940TIP3    H136311   5.094   6.667   4.551 -0.7956  0.1504  1.3771
 4940TIP3    H236312   5.045   6.807   4.519 -0.2291  0.4744  1.9153
 4941TIP3   OH236313   5.858   1.845  16.310 -0.6068  0.2663  0.5700
 4941TIP3    H136314   5.912   1.924  16.308  1.3297 -0.9211  2.1543
 4941TIP3    H236315   5.821   1.844  16.398 -2.0347  0.2623 -0.0097
 4942TIP3   OH236316   5.733   1.963   1.330 -0.2666 -0.5001 -0.5177
 4942TIP3    H136317   5.757   1.870   1.325  0.8039 -0.2091 -1.4620
 4942TIP3    H236318   5.723   1.980   1.423  0.9128 -1.2503 -0.2183
 4943TIP3   OH236319   3.844   3.140  14.935 -0.6931  0.2175 -0.5033
 4943TIP3    H136320   3.936   3.116  14.948 -0.8791 -0.5098 -0.4719
 4943TIP3    H236321   3.795   3.078  14.989 -1.1927  0.7503 -0.3359
 4944TIP3   OH236322   5.084   0.560   4.683  0.0471  0.0596  0.5781
 4944TIP3    H136323   5.099   0.526   4.594  0.0241  0.7211  0.3219
 4944TIP3    H236324   5.163   0.533   4.731  0.3561  0.2635  0.1924
 4945TIP3   OH236325   5.842   2.613   4.137  0.4479 -0.3768 -0.1145
 4945TIP3    H136326   5.871   2.669   4.209  0.0593 -1.1609  0.6624
 4945TIP3    H236327   5.747   2.605   4.150  0.2380  0.1551 -1.2034
 4946TIP3   OH236328   5.675   6.079  13.268 -0.1305  0.1678 -0.2196
 4946TIP3    H136329   5.659   6.047  13.357  1.3807 -1.7943 -0.5971
 4946TIP3    H236330   5.769   6.070  13.256  0.1319  3.0614 -1.0951
 4947TIP3   OH236331   3.340   4.593   2.034  0.3129  0.5351 -0.5696
 4947TIP3    H136332   3.286   4.605   2.112  0.5862  1.2450 -0.4801
 4947TIP3    H236333   3.430   4.593   2.066  0.3876 -2.6912 -0.4523
 4948TIP3   OH236334   0.909   2.276   4.489 -0.1544  0.0628  0.4857
 4948TIP3    H136335   0.884   2.227   4.568  0.7794 -0.7460  0.3057
 4948TIP3    H236336   0.826   2.297   4.447 -0.6053 -1.2832  0.6406
 4949TIP3   OH236337   2.284   3.664   3.613  0.1946  0.5891  0.0722
 4949TIP3    H136338   2.373   3.642   3.639  0.6716  2.5423  0.2908
 4949TIP3    H236339   2.275   3.757   3.635 -1.5368  0.7057 -0.9225
 4950TIP3   OH236340   5.649   2.154   6.164  0.6699  0.0453  0.1142
 4950TIP3    H136341   5.745   2.153   6.169  0.7252 -0.4643 -0.8978
 4950TIP3    H236342   5.623   2.211   6.236  1.7191 -0.0851  0.6273
 4951TIP3   OH236343   0.752   4.544  12.706 -0.3972 -0.8415 -0.6994
 4951TIP3    H136344   0.794   4.488  12.771 -1.0046 -0.6280 -0.1173
 4951TIP3    H236345   0.815   4.614  12.690  0.0823 -1.3216 -0.9304
 4952TIP3   OH236346   6.460   5.428   2.277 -0.4004 -0.1982  0.0636
 4952TIP3    H136347   6.519   5.503   2.278 -1.0685  0.3417  0.5420
 4952TIP3    H236348   6.401   5.445   2.203 -1.4177  0.4805  0.9770
 4953TIP3   OH236349   4.810   6.693  16.750  0.0143 -0.0238  0.0278
 4953TIP3    H136350   4.797   6.758  16.819 -0.9534 -1.4215  1.2276
 4953TIP3    H236351   4.775   6.734  16.671 -3.1453 -0.0213  1.2872
 4954TIP3   OH236352   2.426   3.115  10.341  0.0668  0.0324  0.0648
 4954TIP3    H136353   2.502   3.116  10.399  0.5193 -2.5850 -0.3474
 4954TIP3    H236354   2.445   3.182  10.275  1.1344  0.6708  0.9865
 4955TIP3   OH236355   5.902   3.959   5.286 -0.2573  0.0350 -0.0762
 4955TIP3    H136356   5.880   3.984   5.376  0.9629 -0.6061  0.4266
 4955TIP3    H236357   5.840   3.891   5.264 -1.1807  0.8574 -0.0804
 4956TIP3   OH236358   4.489   1.868   3.645  0.0732  0.1769 -0.0743
 4956TIP3    H136359   4.557   1.837   3.584 -1.5804 -1.0179 -1.4093
 4956TIP3    H236360   4.476   1.959   3.621 -0.3621 -0.2005 -1.4043
 4957TIP3   OH236361   4.928   6.682   0.360  0.4589 -0.2801  0.0061
 4957TIP3    H136362   4.954   6.622   0.290  0.4805 -1.3928  0.9358
 4957TIP3    H236363   4.970   6.647   0.439 -2.2358 -1.1058  1.2311
 4958TIP3   OH236364   5.602   0.037  12.964  0.1557  0.2149 -0.4757
 4958TIP3    H136365   5.577   0.081  12.883 -0.5122 -0.2554 -0.5280
 4958TIP3    H236366   5.528   0.050  13.022  0.2009 -0.3488 -0.2949
 4959TIP3   OH236367   4.236   2.946   4.787 -0.3156 -0.1198 -0.5604
 4959TIP3    H136368   4.300   2.908   4.847 -0.6934 -0.7526 -0.5407
 4959TIP3    H236369   4.183   2.871   4.759  0.0218  0.1215 -1.8950
 4960TIP3   OH236370   5.208   1.529  16.434  0.2760  1.1175 -0.0708
 4960TIP3    H136371   5.165   1.603  16.477 -0.1539  1.0799 -0.4397
 4960TIP3    H236372   5.289   1.517  16.484 -0.6126  0.5143  1.3001
 4961TIP3   OH236373   3.075   0.197  12.296 -0.3802  0.1568 -0.1335
 4961TIP3    H136374   3.067   0.194  12.392  0.7367 -1.9869 -0.0512
 4961TIP3    H236375   3.076   0.290  12.275  1.9171  0.7754  2.1972
 4962TIP3   OH236376   2.778   6.096  14.785 -0.0032 -0.3759  0.0666
 4962TIP3    H136377   2.691   6.134  14.800  0.6899  1.7575 -1.0436
 4962TIP3    H236378   2.811   6.077  14.873  0.2305  3.1326  0.8731
 4963TIP3   OH236379   5.160   1.496   4.786  0.3813 -0.1446  0.4069
 4963TIP3    H136380   5.104   1.428   4.824  0.2242 -0.1236  0.2101
 4963TIP3    H236381   5.128   1.578   4.826  0.6942 -0.2063  0.7885
 4964TIP3   OH236382   5.204   3.898  16.221 -0.0625  0.1651  0.6535
 4964TIP3    H136383   5.124   3.850  16.203  0.5032 -1.0237  1.1661
 4964TIP3    H236384   5.220   3.950  16.142 -0.1295 -1.3103 -0.3613
 4965TIP3   OH236385   0.270   2.683  12.804  0.2345  0.3647  0.1373
 4965TIP3    H136386   0.226   2.610  12.849 -1.0276  1.1941  0.2869
 4965TIP3    H236387   0.280   2.750  12.871  0.7860  0.5896 -0.1682
 4966TIP3   OH236388   2.800   6.156   4.151  0.6337  0.2202  0.3105
 4966TIP3    H136389   2.720   6.124   4.192  0.0937 -1.0185 -1.5753
 4966TIP3    H236390   2.854   6.186   4.224 -1.4037  0.8214  1.6601
 4967TIP3   OH236391   1.673   4.021   6.391  0.6047  0.1090  0.3028
 4967TIP3    H136392   1.628   4.081   6.331  1.7474  1.0404  0.3371
 4967TIP3    H236393   1.761   4.057   6.399  0.5265 -0.0650  2.4434
 4968TIP3   OH236394   5.375   5.791   1.203  0.4746  0.0121  0.4314
 4968TIP3    H136395   5.299   5.734   1.212  0.3489  0.2613  0.9985
 4968TIP3    H236396   5.337   5.877   1.183  0.6845 -0.2147 -1.0490
 4969TIP3   OH236397   2.194   4.517   4.319  0.2097  0.9827 -0.6003
 4969TIP3    H136398   2.136   4.478   4.253 -0.4460  0.5535  0.2121
 4969TIP3    H236399   2.183   4.461   4.396 -0.4307  2.4964  0.4620
 4970TIP3   OH236400   4.538   3.244   0.478  0.4922  0.4007 -0.0937
 4970TIP3    H136401   4.552   3.169   0.420 -0.9339  0.5407 -0.6578
 4970TIP3    H236402   4.613   3.242   0.538  1.5666 -0.2304 -1.4075
 4971TIP3   OH236403   1.468   1.780   4.297  0.4995 -0.5009 -0.2660
 4971TIP3    H136404   1.485   1.705   4.241  3.3563 -0.2299  0.0922
 4971TIP3    H236405   1.517   1.762   4.377 -1.1575  0.4378  1.0347
 4972TIP3   OH236406   1.467   6.314   5.959 -0.2890  0.2266  0.7826
 4972TIP3    H136407   1.546   6.356   5.925  0.2635  0.5138  2.3864
 4972TIP3    H236408   1.416   6.293   5.880  0.9093  0.9466 -0.2179
 4973TIP3   OH236409   1.327   3.267  12.697 -0.2912 -0.2314  0.4615
 4973TIP3    H136410   1.293   3.222  12.774  1.4687 -0.3333  1.2139
 4973TIP3    H236411   1.416   3.294  12.721  0.7217 -1.2015 -1.8618
 4974TIP3   OH236412   6.257   6.759  12.973  0.1530  0.5576 -0.2447
 4974TIP3    H136413   6.215   6.686  12.928  0.1421  0.2433  0.2774
 4974TIP3    H236414   6.204   6.774  13.051 -0.2149  1.5349 -0.6581
 4975TIP3   OH236415   6.486   0.705   5.995  0.1070 -0.0685 -0.7176
 4975TIP3    H136416   6.538   0.708   6.074  0.2474 -1.4466 -0.7475
 4975TIP3    H236417   6.429   0.783   6.001 -0.3903 -0.5282  1.0705
 4976TIP3   OH236418   3.202   0.973  13.364  0.5069  0.1945  0.2061
 4976TIP3    H136419   3.282   0.920  13.369  0.2407 -0.2594 -0.2182
 4976TIP3    H236420   3.201   1.023  13.446  0.4980 -0.8558  0.8714
 4977TIP3   OH236421   0.987   6.047  11.214 -0.2364 -0.3741  0.2789
 4977TIP3    H136422   0.896   6.036  11.242 -0.4677  0.0226 -0.2837
 4977TIP3    H236423   0.980   6.077  11.123  0.4330  0.6336  0.5510
 4978TIP3   OH236424   4.596   1.572  12.733 -0.2062  0.3163 -0.2876
 4978TIP3    H136425   4.533   1.505  12.761 -0.2760 -0.5932 -2.3943
 4978TIP3    H236426   4.625   1.613  12.814  0.7162 -3.0321  1.2744
 4979TIP3   OH236427   5.905   6.098   2.313 -0.0004 -0.1013  0.0556
 4979TIP3    H136428   5.911   6.017   2.262  0.3131 -0.2369  0.3037
 4979TIP3    H236429   5.833   6.082   2.375  1.4599 -1.0391  1.5774
 4980TIP3   OH236430   2.813   3.684  16.959  0.0740 -0.0907 -0.0025
 4980TIP3    H136431   2.861   3.762  16.987  1.6398 -0.4178 -1.5806
 4980TIP3    H236432   2.722   3.712  16.954  0.6744  1.8463 -1.1308
 4981TIP3   OH236433   2.210   3.558  15.660  0.2534 -0.1821  0.0190
 4981TIP3    H136434   2.141   3.620  15.639  1.6655  1.3093 -0.4305
 4981TIP3    H236435   2.247   3.535  15.574  2.5805  1.8209  0.3674
 4982TIP3   OH236436   4.085   4.149   1.722 -0.0754  0.0541  0.0988
 4982TIP3    H136437   4.119   4.093   1.652 -0.9906  0.5652 -0.7812
 4982TIP3    H236438   4.130   4.233   1.709  0.3389 -0.0839  0.6183
 4983TIP3   OH236439   3.452   6.159   4.523 -0.5587 -0.2214  0.0533
 4983TIP3    H136440   3.460   6.066   4.502  1.4650  0.3253 -1.9774
 4983TIP3    H236441   3.477   6.166   4.615  3.6766 -1.2497 -0.8331
 4984TIP3   OH236442   1.475   2.128   0.608  0.2833  0.1089 -0.2035
 4984TIP3    H136443   1.403   2.066   0.619  1.0878 -0.4606  2.8589
 4984TIP3    H236444   1.442   2.210   0.643  1.2532 -0.3332  1.8919
 4985TIP3   OH236445   1.626   3.166   4.514  0.4305 -0.0049  0.1383
 4985TIP3    H136446   1.705   3.130   4.475  1.0563  1.3444  0.1365
 4985TIP3    H236447   1.620   3.255   4.480 -1.4298 -0.2706 -0.3585
 4986TIP3   OH236448   5.274   1.352  11.834  0.0324  0.3881  0.1957
 4986TIP3    H136449   5.222   1.402  11.772  0.7197  0.7755 -0.0822
 4986TIP3    H236450   5.284   1.266  11.793 -3.7251 -1.1445  2.0069
 4987TIP3   OH236451   2.843   6.615   1.442 -0.3090 -0.1512 -0.1938
 4987TIP3    H136452   2.818   6.609   1.350 -1.3955 -0.3586  0.0970
 4987TIP3    H236453   2.876   6.528   1.464  1.2645  0.2835 -0.7299
 4988TIP3   OH236454   6.332   4.590   3.972  1.0664 -0.7641 -0.0005
 4988TIP3    H136455   6.368   4.670   3.934 -0.2975 -1.0137 -1.9738
 4988TIP3    H236456   6.403   4.526   3.965  1.6773 -0.1230  0.2417
 4989TIP3   OH236457   2.344   5.492  12.155 -0.3675 -0.2391 -0.2464
 4989TIP3    H136458   2.368   5.410  12.199  0.1074 -0.0812 -0.2014
 4989TIP3    H236459   2.399   5.493  12.076 -0.0060  0.2708  0.0075
 4990TIP3   OH236460   4.019   4.907  11.466 -0.0922 -0.5182 -0.5299
 4990TIP3    H136461   3.986   4.818  11.453 -1.4811 -0.0192 -0.5677
 4990TIP3    H236462   4.038   4.938  11.377  1.2760 -1.0831 -0.4527
 4991TIP3   OH236463   4.279   1.534  14.237  0.0867  0.2728 -0.2034
 4991TIP3    H136464   4.199   1.501  14.196 -0.0785 -0.1719  0.4555
 4991TIP3    H236465   4.329   1.572  14.165  0.5992 -2.0133 -1.1227
 4992TIP3   OH236466   6.139   3.714  10.803  0.1754  0.4024  0.2043
 4992TIP3    H136467   6.088   3.762  10.868  0.0767  2.7507 -1.5118
 4992TIP3    H236468   6.082   3.641  10.777  0.0840 -0.3808  2.4114
 4993TIP3   OH236469   4.325   6.521   2.718  0.0471 -0.3360 -0.2104
 4993TIP3    H136470   4.327   6.569   2.801  0.9591  0.2225 -0.5419
 4993TIP3    H236471   4.296   6.585   2.654 -1.2250 -0.9161 -0.2564
 4994TIP3   OH236472   1.368   3.126  14.827  0.0234 -0.2668  0.0113
 4994TIP3    H136473   1.358   3.133  14.733  1.1794  0.2557 -0.0892
 4994TIP3    H236474   1.283   3.093  14.858  0.5670 -3.4748 -1.5116
 4995TIP3   OH236475   2.174   6.244  11.257  0.4047  0.8018 -0.3268
 4995TIP3    H136476   2.185   6.149  11.264  0.4847  0.7889 -0.6024
 4995TIP3    H236477   2.254   6.273  11.212 -0.0170  0.8910 -1.0369
 4996TIP3   OH236478   5.724   2.812   1.896 -0.3095 -0.1841  0.3955
 4996TIP3    H136479   5.737   2.779   1.807 -0.3943 -0.1435  0.3674
 4996TIP3    H236480   5.729   2.734   1.952 -3.4349 -0.7538  0.0726
 4997TIP3   OH236481   0.528   3.001   2.370  0.1924 -0.4802 -0.0419
 4997TIP3    H136482   0.456   2.952   2.408 -1.2870  1.0133 -0.8204
 4997TIP3    H236483   0.542   2.961   2.284  0.3266 -0.7657  0.1080
 4998TIP3   OH236484   3.391   4.411   1.815 -0.1347  0.0222  0.1613
 4998TIP3    H136485   3.330   4.337   1.811  1.0124 -1.0419  1.2612
 4998TIP3    H236486   3.346   4.476   1.869 -1.7790  0.8152 -2.0116
 4999TIP3   OH236487   4.897   1.875   4.441  0.1451 -0.5214  0.1030
 4999TIP3    H136488   4.988   1.850   4.427  0.4865  1.2318 -1.0666
 4999TIP3    H236489   4.882   1.948   4.382 -1.8763 -0.4007  0.6738
 5000TIP3   OH236490   2.083   2.660   1.154  0.4487 -0.0820 -0.0055
 5000TIP3    H136491   2.062   2.577   1.196  0.9198 -0.0094  0.3974
 5000TIP3    H236492   1.999   2.695   1.125 -0.1629  0.6684  2.3957
 5001TIP3   OH236493   1.110   1.723  14.428 -0.4214 -0.5408  0.2143
 5001TIP3    H136494   1.175   1.723  14.498 -1.2764  1.2503  1.0832
 5001TIP3    H236495   1.043   1.662  14.458  0.2917 -1.5327 -0.1562
 5002TIP3   OH236496   4.463   5.200  17.190  0.2168  0.0037 -0.3839
 5002TIP3    H136497   4.542   5.213  17.242 -0.7095 -2.6289  1.9177
 5002TIP3    H236498   4.487   5.133  17.126  0.5249  1.1643 -1.5468
 5003TIP3   OH236499   0.814   4.438   3.756  0.0400  0.2316  0.5312
 5003TIP3    H136500   0.780   4.432   3.667 -0.9010 -1.3742  0.9509
 5003TIP3    H236501   0.909   4.444   3.746 -0.1209  1.1567 -0.5917
 5004TIP3   OH236502   3.395   1.589  12.998  0.7271 -0.3964  0.0524
 5004TIP3    H136503   3.438   1.671  12.973  0.4536  0.0238  0.9385
 5004TIP3    H236504   3.316   1.586  12.945  1.1493 -0.5092 -0.5897
 5005TIP3   OH236505   5.486   3.038  11.508  0.6240 -0.1158  0.6081
 5005TIP3    H136506   5.510   3.113  11.454 -0.4985  1.1236  1.7423
 5005TIP3    H236507   5.465   2.969  11.445 -2.7744  1.9059 -0.7996
 5006TIP3   OH236508   4.280   6.171  12.228  0.1302  0.1924  0.2383
 5006TIP3    H136509   4.214   6.139  12.289 -0.0877 -1.4518 -0.7812
 5006TIP3    H236510   4.326   6.092  12.199  1.4208  1.1218 -0.3616
 5007TIP3   OH236511   3.990   0.232  16.927  0.6863  0.1272  0.1268
 5007TIP3    H136512   3.897   0.224  16.950  0.3141 -3.1712 -1.8932
 5007TIP3    H236513   3.997   0.319  16.887 -1.2868  0.8088  1.0992
 5008TIP3   OH236514   4.818   4.914   3.034  0.0804  0.3342  0.3428
 5008TIP3    H136515   4.865   4.948   2.958 -1.8170  2.0191 -0.1555
 5008TIP3    H236516   4.762   4.845   3.000 -1.0338  1.3315  0.1201
 5009TIP3   OH236517   0.832   0.038  10.717 -0.0264  0.7612  0.1345
 5009TIP3    H136518   0.876  -0.020  10.780  0.1148  0.9607  0.2178
 5009TIP3    H236519   0.739   0.031  10.740  0.0405  0.9703  0.4804
 5010TIP3   OH236520   1.977   6.795   2.162  0.4816 -0.0306  0.0081
 5010TIP3    H136521   1.959   6.710   2.122 -2.2304 -0.1711  1.3027
 5010TIP3    H236522   1.917   6.855   2.118  0.6602  0.7219  0.7736
 5011TIP3   OH236523   6.702   4.539   2.964  0.4953 -0.5721  0.2855
 5011TIP3    H136524   6.749   4.599   3.021  1.4692  0.3055 -1.3470
 5011TIP3    H236525   6.682   4.463   3.019  0.8183  0.4793  1.9220
 5012TIP3   OH236526   5.242   2.091  16.514  0.4885 -0.3466 -0.2405
 5012TIP3    H136527   5.309   2.136  16.462  0.5114  1.6812  1.3824
 5012TIP3    H236528   5.161   2.108  16.467  0.6114  0.7678 -0.0901
 5013TIP3   OH236529   6.064   3.389   1.839 -0.1246 -0.6907 -0.2255
 5013TIP3    H136530   6.122   3.333   1.890 -1.4050 -0.3851  1.6377
 5013TIP3    H236531   6.116   3.413   1.762  1.2748 -2.5004  0.0855
 5014TIP3   OH236532   3.064   5.295  11.875  0.0815  0.1830  0.4567
 5014TIP3    H136533   3.046   5.349  11.952  0.8361  0.5326  0.4045
 5014TIP3    H236534   3.149   5.327  11.844 -0.3152  0.2001 -0.6490
 5015TIP3   OH236535   5.828   6.520  12.921 -0.0104 -0.1394  0.5163
 5015TIP3    H136536   5.868   6.607  12.914  0.0001 -0.0955  1.0189
 5015TIP3    H236537   5.888   6.462  12.874 -0.0357  0.1342  0.1486
 5016TIP3   OH236538   6.560   0.967  13.760  0.1194  0.1497  0.0670
 5016TIP3    H136539   6.606   0.886  13.778 -1.8087 -1.2215 -0.8707
 5016TIP3    H236540   6.595   0.997  13.675 -0.6862 -0.9149 -0.6704
 5017TIP3   OH236541   3.141   3.358   4.953 -0.3274 -0.0284  0.8205
 5017TIP3    H136542   3.170   3.331   5.040 -1.8053  0.8653  1.6345
 5017TIP3    H236543   3.205   3.424   4.926  1.1774 -1.5802  0.4033
 5018TIP3   OH236544   3.088   6.572  11.776  0.2388  0.4153 -0.1982
 5018TIP3    H136545   3.101   6.629  11.852  1.0666 -0.1471  0.1000
 5018TIP3    H236546   3.063   6.631  11.705 -2.0592  0.7865  0.8585
 5019TIP3   OH236547   2.308   6.663  14.348  0.0217 -0.8004  0.0383
 5019TIP3    H136548   2.287   6.753  14.323 -0.3352 -0.9189 -0.1014
 5019TIP3    H236549   2.392   6.645  14.306  1.5495  0.4291  2.4011
 5020TIP3   OH236550   2.434   1.284  11.777  0.3997 -0.3200  0.0266
 5020TIP3    H136551   2.455   1.254  11.688  0.0849 -1.2226  0.2443
 5020TIP3    H236552   2.355   1.236  11.800  1.0822 -0.9246  1.2073
 5021TIP3   OH236553   0.810   5.711   3.304 -0.2052  0.0630  0.4865
 5021TIP3    H136554   0.785   5.687   3.215  0.2425 -0.5276  0.5170
 5021TIP3    H236555   0.904   5.724   3.300 -0.2704  0.6260  0.7434
 5022TIP3   OH236556   2.312   6.690  15.298 -0.0206  0.0606 -0.3333
 5022TIP3    H136557   2.308   6.758  15.366  1.2910 -0.9397  0.8044
 5022TIP3    H236558   2.405   6.673  15.287 -0.0735  1.2656 -3.5704
 5023TIP3   OH236559   6.054   5.055  14.084 -0.1108 -0.0602  0.4387
 5023TIP3    H136560   6.109   5.070  14.007  0.5006 -0.8686  0.7026
 5023TIP3    H236561   5.972   5.099  14.064  0.2008  0.1282 -0.4798
 5024TIP3   OH236562   3.185   0.128   4.591  0.5837  0.1440  0.2593
 5024TIP3    H136563   3.126   0.202   4.607  0.6061  0.2526 -0.1364
 5024TIP3    H236564   3.166   0.066   4.661  2.1342  1.4676  1.9722
 5025TIP3   OH236565   2.150   2.515   0.578  0.7424 -0.0076  0.1486
 5025TIP3    H136566   2.092   2.460   0.630  0.7309 -0.1767 -0.0400
 5025TIP3    H236567   2.099   2.536   0.499  0.2167  1.4247  0.8220
 5026TIP3   OH236568   6.132   5.987  14.262 -0.2164 -0.3319  0.1800
 5026TIP3    H136569   6.131   5.908  14.317 -1.8257  0.5881  1.5367
 5026TIP3    H236570   6.048   5.987  14.217 -0.1427  0.5118  0.0246
 5027TIP3   OH236571   6.644   4.642  12.228  0.2980  0.4901  0.1455
 5027TIP3    H136572   6.626   4.700  12.301  0.0083  0.4440  0.1127
 5027TIP3    H236573   6.725   4.675  12.189  0.5293  0.4262  0.5751
 5028TIP3   OH236574   1.199   3.468   4.346 -0.1059 -0.4667  0.2171
 5028TIP3    H136575   1.128   3.472   4.281 -1.0884  0.7568  1.3295
 5028TIP3    H236576   1.216   3.375   4.356 -0.6329 -0.7255 -1.0514
 5029TIP3   OH236577   6.486   5.756  12.233 -0.1140 -0.0392  0.1717
 5029TIP3    H136578   6.519   5.844  12.252 -0.0590 -0.4196  1.9799
 5029TIP3    H236579   6.562   5.699  12.246 -0.8991 -0.6943  2.3277
 5030TIP3   OH236580   3.605   4.793  13.346  0.0728 -0.1753 -0.0527
 5030TIP3    H136581   3.695   4.792  13.379 -0.0902  0.9477  0.4561
 5030TIP3    H236582   3.579   4.884  13.351 -1.6927 -0.7083  1.4019
 5031TIP3   OH236583   2.504   0.569  13.117  0.2884  0.8680 -0.1382
 5031TIP3    H136584   2.413   0.569  13.147  0.4934 -1.4915  0.7624
 5031TIP3    H236585   2.504   0.512  13.040  0.8144  1.8684 -0.8931
 5032TIP3   OH236586   2.121   4.880  14.574  0.1176  0.6911 -0.5453
 5032TIP3    H136587   2.097   4.841  14.490  2.4909  1.5651 -1.6999
 5032TIP3    H236588   2.134   4.805  14.632 -1.5622  0.0775 -0.8979
 5033TIP3   OH236589   2.488   0.876  11.494  0.0782  0.5467  0.0453
 5033TIP3    H136590   2.516   0.913  11.578 -0.0554  1.9024 -0.4661
 5033TIP3    H236591   2.490   0.782  11.507 -0.1488  0.7273  1.6436
 5034TIP3   OH236592   1.314   5.536   0.994  0.0468  0.1370 -0.2588
 5034TIP3    H136593   1.398   5.577   1.018  0.1168  0.9229 -1.6944
 5034TIP3    H236594   1.323   5.445   1.021  0.5988  0.6382  1.3890
 5035TIP3   OH236595   6.535   1.850  11.281  0.4991  0.1184  0.1749
 5035TIP3    H136596   6.512   1.891  11.365 -0.5740 -0.7264  0.3150
 5035TIP3    H236597   6.531   1.756  11.298  1.6642 -0.0669 -0.4769
 5036TIP3   OH236598   4.978   5.705   4.174 -0.6530 -0.3588 -0.1237
 5036TIP3    H136599   5.067   5.701   4.210 -0.7688 -2.0242  0.0452
 5036TIP3    H236600   4.990   5.739   4.085  0.1440 -0.4669 -0.0682
 5037TIP3   OH236601   3.983   3.358   2.896  0.5797 -0.0786 -0.0194
 5037TIP3    H136602   4.035   3.310   2.832  1.1682  0.3577  0.1287
 5037TIP3    H236603   4.040   3.367   2.972 -0.7511 -2.3600  1.4038
 5038TIP3   OH236604   3.927   1.403   0.032 -0.2810  0.2785  0.9271
 5038TIP3    H136605   3.917   1.312   0.005 -1.8892  0.6213  0.1897
 5038TIP3    H236606   3.837   1.434   0.044  0.0888  2.3955 -1.0602
 5039TIP3   OH236607   1.974   1.352  11.819  0.4542 -0.3328  0.3537
 5039TIP3    H136608   2.027   1.379  11.894 -0.5332  0.5781  0.7443
 5039TIP3    H236609   2.018   1.273  11.786  0.6308 -1.0630  2.1996
 5040TIP3   OH236610   2.562   3.396   3.123  0.1507 -0.5899  0.2075
 5040TIP3    H136611   2.621   3.448   3.176 -0.3531 -0.0220  0.2272
 5040TIP3    H236612   2.521   3.459   3.063 -1.9078 -0.5910  1.5193
 5041TIP3   OH236613   4.107   4.755  10.487  0.3244  0.5526  0.0708
 5041TIP3    H136614   4.117   4.662  10.506 -0.5131  0.7301  1.5839
 5041TIP3    H236615   4.052   4.788  10.559  0.0771  2.0835 -0.7749
 5042TIP3   OH236616   1.737   4.420   3.471 -0.3857  0.2853 -0.4360
 5042TIP3    H136617   1.760   4.329   3.455  0.6622  0.3367  0.6123
 5042TIP3    H236618   1.754   4.464   3.388 -0.5685 -0.4077 -0.8472
 5043TIP3   OH236619   4.412   6.455   2.397 -0.2244  0.2333  0.4776
 5043TIP3    H136620   4.338   6.513   2.417 -1.5115 -1.3050  0.3942
 5043TIP3    H236621   4.378   6.393   2.333  0.8719 -1.0564  1.0813
 5044TIP3   OH236622   2.778   2.536   6.080 -0.0554  0.0957 -0.1040
 5044TIP3    H136623   2.783   2.553   6.174  1.3988 -0.8835  0.0313
 5044TIP3    H236624   2.691   2.498   6.067  0.4850 -1.7603  1.2456
 5045TIP3   OH236625   4.724   2.561  16.901  0.3012 -0.0143  0.2468
 5045TIP3    H136626   4.672   2.513  16.965 -1.2003  1.1861 -0.0085
 5045TIP3    H236627   4.661   2.620  16.858  1.7751  1.1352 -0.4427
 5046TIP3   OH236628   1.286   2.580  12.887 -0.2170  0.4203  0.3580
 5046TIP3    H136629   1.279   2.485  12.884 -0.3646  0.4288  0.4298
 5046TIP3    H236630   1.291   2.607  12.795  1.1286  0.2517  0.3509
 5047TIP3   OH236631   1.251   6.141  14.452 -0.1394  0.5931  0.3044
 5047TIP3    H136632   1.260   6.146  14.357  2.6241  1.7234  0.5512
 5047TIP3    H236633   1.219   6.052  14.468  0.9524 -0.2003 -1.6035
 5048TIP3   OH236634   4.832   0.032  10.743 -0.1094  0.2252 -0.2744
 5048TIP3    H136635   4.866  -0.038  10.798  0.9536 -0.8808 -2.1963
 5048TIP3    H236636   4.750  -0.003  10.707  0.3996 -0.0580 -1.2012
 5049TIP3   OH236637   3.472   5.063  15.406 -0.0901  0.0405  0.6340
 5049TIP3    H136638   3.567   5.070  15.395  0.0278 -1.6944  0.3739
 5049TIP3    H236639   3.457   5.084  15.499  0.7156 -1.0867  1.0350
 5050TIP3   OH236640   2.151   4.384  14.075  0.0749 -0.0970 -0.3776
 5050TIP3    H136641   2.143   4.432  14.157 -2.0845 -0.6697 -0.2101
 5050TIP3    H236642   2.162   4.452  14.008  0.5975  0.4263  0.2281
 5051TIP3   OH236643   5.972   4.765  13.829 -0.8070 -0.9011  0.3018
 5051TIP3    H136644   5.939   4.832  13.770 -0.8817 -1.0593  0.1606
 5051TIP3    H236645   6.065   4.757  13.806 -0.7545 -0.7078  0.4534
 5052TIP3   OH236646   1.562   4.372   5.201 -0.3357  0.4625 -0.7422
 5052TIP3    H136647   1.562   4.280   5.230 -0.8079  0.5019 -0.6011
 5052TIP3    H236648   1.646   4.383   5.156 -1.1851 -0.6699 -2.7645
 5053TIP3   OH236649   2.386   0.848   5.072  0.5946 -0.0284  0.1848
 5053TIP3    H136650   2.380   0.904   4.994 -1.7179  1.2980  1.2131
 5053TIP3    H236651   2.434   0.901   5.136 -0.0008  0.0624  0.5667
 5054TIP3   OH236652   2.740   0.216   0.094 -0.7413 -0.2304 -0.1143
 5054TIP3    H136653   2.644   0.222   0.100 -0.7540  2.3308 -1.3529
 5054TIP3    H236654   2.758   0.199   0.002 -0.0132  0.1905 -0.0610
 5055TIP3   OH236655   6.769   3.251   3.312  0.3492 -0.4108 -0.0075
 5055TIP3    H136656   6.736   3.297   3.235  0.6314  0.4054  0.3438
 5055TIP3    H236657   6.850   3.209   3.282  0.8409  0.4996  0.0161
 5056TIP3   OH236658   5.918   1.808  12.967  0.1478  0.6504  0.2195
 5056TIP3    H136659   6.007   1.815  12.931  0.5623 -0.8911  0.8488
 5056TIP3    H236660   5.872   1.752  12.904  0.8673 -2.0348  1.9102
 5057TIP3   OH236661   1.960   4.289   6.037 -0.2103 -0.1462  0.5785
 5057TIP3    H136662   1.887   4.350   6.042 -1.0360 -1.0222 -0.4070
 5057TIP3    H236663   1.952   4.235   6.116 -0.7084 -0.3137  0.4155
 5058TIP3   OH236664   5.189   3.358  13.203 -0.6581 -0.7068 -0.7513
 5058TIP3    H136665   5.111   3.391  13.160 -1.6549 -1.1470  0.6572
 5058TIP3    H236666   5.166   3.354  13.296  1.1022 -0.6573 -0.2772
 5059TIP3   OH236667   4.680   2.076  11.821 -0.4344 -0.3067 -0.2275
 5059TIP3    H136668   4.602   2.027  11.849  0.3065 -1.7302 -0.5576
 5059TIP3    H236669   4.744   2.009  11.799  0.4933  0.8201 -1.1288
 5060TIP3   OH236670   1.313   5.021   5.227  0.1225 -0.2253 -0.2511
 5060TIP3    H136671   1.235   5.073   5.245  0.2076 -0.0365 -0.4269
 5060TIP3    H236672   1.380   5.059   5.284  0.9852  1.7874 -2.4355
 5061TIP3   OH236673   0.738   1.094  16.186  0.3586  0.0409  0.8880
 5061TIP3    H136674   0.730   1.108  16.092 -0.1416  0.8147  1.0367
 5061TIP3    H236675   0.799   1.021  16.195  0.0060 -0.3767 -0.0520
 5062TIP3   OH236676   3.826   6.600   4.715  0.8097  0.3938  0.3113
 5062TIP3    H136677   3.885   6.630   4.646  2.3372 -0.6017  1.1270
 5062TIP3    H236678   3.865   6.518   4.746  0.6989  1.2435  2.9661
 5063TIP3   OH236679   1.071   5.059   1.032 -0.2472 -0.1128  0.0834
 5063TIP3    H136680   1.154   5.029   1.067  0.3693  1.0922 -0.2983
 5063TIP3    H236681   1.005   5.010   1.081  0.6106  0.6301  2.0731
 5064TIP3   OH236682   3.992   2.791  13.904  0.0618 -0.0606  0.0112
 5064TIP3    H136683   4.050   2.719  13.879  0.6559 -0.3953  2.1751
 5064TIP3    H236684   4.014   2.861  13.843  0.1254 -1.3852 -1.5478
 5065TIP3   OH236685   6.011   1.925   6.216 -0.0486  0.7859 -0.4313
 5065TIP3    H136686   6.079   1.922   6.283 -0.6594  0.7514  0.2112
 5065TIP3    H236687   5.929   1.921   6.266 -0.5449  2.0649 -1.0954
 5066TIP3   OH236688   4.965   3.500  16.302 -0.2342 -0.0302 -0.6014
 5066TIP3    H136689   5.021   3.520  16.227  0.1498 -0.4368 -0.4270
 5066TIP3    H236690   4.895   3.565  16.298  0.0951  0.3030 -0.9836
 5067TIP3   OH236691   4.273   2.513   3.032  0.2921 -0.1675 -0.3560
 5067TIP3    H136692   4.353   2.564   3.048 -0.8067  1.2473  0.8465
 5067TIP3    H236693   4.296   2.457   2.958  1.7737  1.6146 -1.3372
 5068TIP3   OH236694   1.533   2.741   2.766 -0.1431 -0.3125 -0.7111
 5068TIP3    H136695   1.539   2.821   2.714 -3.1522  0.0680 -0.6819
 5068TIP3    H236696   1.529   2.772   2.857  0.3554 -0.6415 -0.5717
 5069TIP3   OH236697   2.167   3.185   1.157 -0.4865  0.0298 -0.2679
 5069TIP3    H136698   2.204   3.098   1.168 -0.1825  0.0773 -0.8606
 5069TIP3    H236699   2.127   3.206   1.242 -0.7062 -0.7515 -0.1750
 5070TIP3   OH236700   0.052   0.446   0.752  0.1174 -0.1434  0.3520
 5070TIP3    H136701   0.070   0.445   0.658 -0.7069  1.3693  0.1489
 5070TIP3    H236702   0.126   0.493   0.790  0.0743 -0.0827  0.3616
 5071TIP3   OH236703   3.632   5.531  16.333 -0.0106  0.0645 -0.2075
 5071TIP3    H136704   3.631   5.506  16.241 -1.4123  0.5959 -0.3591
 5071TIP3    H236705   3.540   5.545  16.355  0.2985 -0.1865  1.3141
 5072TIP3   OH236706   6.418   4.762   3.574 -0.2009  0.4709  0.4678
 5072TIP3    H136707   6.502   4.716   3.567 -1.3219 -1.8219  1.0315
 5072TIP3    H236708   6.427   4.816   3.653  0.6795  0.1016  0.6360
 5073TIP3   OH236709   0.681   2.140  17.082  0.5960 -0.0434  0.5228
 5073TIP3    H136710   0.748   2.076  17.061 -2.2154 -3.3444  0.6436
 5073TIP3    H236711   0.675   2.139  17.177  1.1568  1.2013  0.5947
 5074TIP3   OH236712   5.845   0.458   5.924  0.1807  0.1309 -0.2773
 5074TIP3    H136713   5.833   0.492   5.835 -1.1018 -2.2477 -1.1039
 5074TIP3    H236714   5.763   0.412   5.943  1.2336 -1.2106  1.3067
 5075TIP3   OH236715   1.846   2.445   2.006 -0.1153  0.5245  0.3005
 5075TIP3    H136716   1.922   2.411   1.959 -0.2856 -2.5063  1.9603
 5075TIP3    H236717   1.810   2.512   1.949  2.8791  0.9707 -1.2512
 5076TIP3   OH236718   0.050   3.733  11.067 -0.1681  0.3059  0.1178
 5076TIP3    H136719   0.101   3.669  11.118  1.0217 -0.9126 -2.3718
 5076TIP3    H236720   0.080   3.818  11.099  0.1172 -0.3767  1.7846
 5077TIP3   OH236721   1.940   5.114   1.303  0.3276 -0.7280  0.3825
 5077TIP3    H136722   1.924   5.103   1.397 -0.2236  2.2925  0.7542
 5077TIP3    H236723   2.035   5.109   1.295  0.5255  0.6167  1.4329
 5078TIP3   OH236724   4.873   6.593   3.743  0.3835 -0.1337 -0.5171
 5078TIP3    H136725   4.899   6.674   3.700 -0.1967 -0.4960 -1.5818
 5078TIP3    H236726   4.807   6.555   3.686 -0.8456 -0.3572  0.9723
 5079TIP3   OH236727   4.846   3.720  14.926  0.0169 -0.2462  0.0157
 5079TIP3    H136728   4.805   3.678  15.001 -1.3690 -0.0148 -0.5843
 5079TIP3    H236729   4.802   3.804  14.917  1.1620  0.3553 -0.2006
 5080TIP3   OH236730   3.930   1.767   2.586  0.5763 -0.0547  1.0148
 5080TIP3    H136731   3.980   1.799   2.511  0.5404 -1.3627  0.3893
 5080TIP3    H236732   3.988   1.778   2.661  0.3566  1.9114  0.9417
 5081TIP3   OH236733   1.676   3.165   0.219 -0.5498 -0.1904  0.0823
 5081TIP3    H136734   1.668   3.260   0.214 -1.1907 -0.0828  2.2648
 5081TIP3    H236735   1.739   3.150   0.288 -0.5554 -1.3618 -0.1505
 5082TIP3   OH236736   6.254   5.955  13.775  0.1908 -0.1335 -0.4457
 5082TIP3    H136737   6.321   6.021  13.756 -0.1126  0.1694 -0.4604
 5082TIP3    H236738   6.266   5.936  13.868  0.3363 -0.1228 -0.4616
 5083TIP3   OH236739   3.289   4.918   5.552  0.4879 -0.4350 -0.0016
 5083TIP3    H136740   3.237   4.952   5.479  2.1427  0.1322 -0.9582
 5083TIP3    H236741   3.332   4.840   5.517  0.1823 -1.0167  0.8483
 5084TIP3   OH236742   4.631   2.660   0.426 -0.6392 -0.0017  0.0217
 5084TIP3    H136743   4.695   2.722   0.392 -1.0645  0.9749  0.9575
 5084TIP3    H236744   4.591   2.622   0.348  0.9157 -0.4939 -0.5827
 5085TIP3   OH236745   4.606   3.449   1.216  0.1917 -0.0592  0.1959
 5085TIP3    H136746   4.537   3.514   1.205  0.0628 -0.1715  0.3342
 5085TIP3    H236747   4.619   3.413   1.129  1.1251  1.0169 -0.1223
 5086TIP3   OH236748   1.941   0.408   5.208 -0.2321 -0.0196 -0.3227
 5086TIP3    H136749   1.944   0.449   5.294 -4.3708  1.1496 -0.5678
 5086TIP3    H236750   2.004   0.458   5.156  0.1625  1.2142  1.2522
 5087TIP3   OH236751   4.170   1.350  15.249  0.0568  0.3124  0.5403
 5087TIP3    H136752   4.234   1.329  15.317  0.4473 -3.6615 -0.8181
 5087TIP3    H236753   4.090   1.304  15.276 -0.4619  0.5167 -0.5861
 5088TIP3   OH236754   0.149   2.008  16.995 -0.1311  0.4444 -0.1465
 5088TIP3    H136755   0.100   2.028  17.074  0.0338 -2.3675  0.7838
 5088TIP3    H236756   0.241   2.013  17.022 -0.0788 -0.7076 -0.0694
 5089TIP3   OH236757   3.662   5.637   5.961  0.0817 -0.3610 -0.0804
 5089TIP3    H136758   3.722   5.569   5.990  1.0477 -0.0686 -1.3032
 5089TIP3    H236759   3.615   5.664   6.040  1.3846 -0.7629  0.8518
 5090TIP3   OH236760   5.246   3.506   2.734 -0.7958  0.4524 -0.3410
 5090TIP3    H136761   5.173   3.566   2.749  0.6447  2.4860 -0.9626
 5090TIP3    H236762   5.277   3.526   2.646  2.1330  1.6125  0.8151
 5091TIP3   OH236763   0.713   4.497   5.365  0.1626  0.3203  0.4115
 5091TIP3    H136764   0.724   4.591   5.356  0.2751  0.2173 -0.6245
 5091TIP3    H236765   0.758   4.475   5.447 -0.1637  1.2103  0.8318
 5092TIP3   OH236766   4.366   6.349  11.423 -0.5444  0.6235 -0.0024
 5092TIP3    H136767   4.296   6.411  11.401 -2.0279 -0.9975 -0.0408
 5092TIP3    H236768   4.405   6.327  11.339 -1.2444  0.1217 -0.2073
 5093TIP3   OH236769   0.128   6.052   2.460 -0.0341  0.5825 -0.0232
 5093TIP3    H136770   0.144   6.142   2.431  1.4550  0.6410  0.8575
 5093TIP3    H236771   0.087   6.062   2.546 -2.8101  0.4013 -1.2516
 5094TIP3   OH236772   6.696   0.469   2.878 -0.3110 -0.1332  0.1202
 5094TIP3    H136773   6.628   0.534   2.893  0.1042  0.1873  0.6360
 5094TIP3    H236774   6.709   0.469   2.783 -1.1868 -0.3690 -0.0143
 5095TIP3   OH236775   2.052   0.868  10.834  0.2731  0.4109  0.3579
 5095TIP3    H136776   1.964   0.868  10.871  0.6589  0.2272  1.2865
 5095TIP3    H236777   2.091   0.786  10.863  1.2794  1.1753  1.2582
 5096TIP3   OH236778   6.622   5.565   0.455 -0.2379  0.1687  0.0809
 5096TIP3    H136779   6.673   5.487   0.474  2.4647  2.1789  2.0433
 5096TIP3    H236780   6.536   5.549   0.495  0.7903 -1.1991  1.8642
 5097TIP3   OH236781   5.473   3.951   3.410 -0.6787  0.6781 -0.0213
 5097TIP3    H136782   5.458   3.951   3.505 -1.6241  0.7144 -0.1617
 5097TIP3    H236783   5.496   3.860   3.390 -1.3272  0.4766  0.1206
 5098TIP3   OH236784   0.003   2.078   2.649  0.3603  0.4853 -0.0843
 5098TIP3    H136785   0.062   2.090   2.723  0.0309 -1.5548  0.5810
 5098TIP3    H236786  -0.085   2.073   2.688  0.0534  0.5592 -0.7434
 5099TIP3   OH236787   0.877   3.481  14.172 -0.0879 -0.1882  0.3308
 5099TIP3    H136788   0.880   3.576  14.163 -0.6900 -0.1672  0.3037
 5099TIP3    H236789   0.965   3.451  14.146  0.8755  0.5215  2.5183
 5100TIP3   OH236790   2.669   2.125  16.569 -0.5879 -0.2958 -0.1314
 5100TIP3    H136791   2.641   2.214  16.547 -0.5397 -0.7422 -2.1999
 5100TIP3    H236792   2.591   2.071  16.552 -0.1957 -0.8207 -0.2621
 5101TIP3   OH236793   4.854   0.506  15.560 -0.1652  0.1648  0.2802
 5101TIP3    H136794   4.891   0.521  15.474 -0.9002 -1.1085 -0.2937
 5101TIP3    H236795   4.809   0.587  15.582 -0.0935  0.4465 -0.6034
 5102TIP3   OH236796   2.471   5.020   3.068 -0.4900 -0.3203  0.9334
 5102TIP3    H136797   2.440   5.108   3.045  1.5296  0.3604  0.6115
 5102TIP3    H236798   2.542   5.003   3.006  0.2707 -1.4628  2.0751
 5103TIP3   OH236799   2.237   6.009  14.526 -0.9387 -0.1373  0.2549
 5103TIP3    H136800   2.313   6.067  14.525 -0.6167 -0.3964  2.7369
 5103TIP3    H236801   2.273   5.923  14.545 -1.8126 -0.2280  1.6950
 5104TIP3   OH236802   4.437   2.968  11.106 -0.0578  0.4547  0.2703
 5104TIP3    H136803   4.356   2.987  11.058  0.2164  0.3834 -0.2373
 5104TIP3    H236804   4.454   3.048  11.156 -0.9221  0.1352  1.1040
 5105TIP3   OH236805   2.405   5.222  15.451 -0.2354 -0.7258 -0.7131
 5105TIP3    H136806   2.368   5.148  15.500  0.7026 -1.0355 -0.4523
 5105TIP3    H236807   2.469   5.182  15.392  1.9383  0.0268  0.9880
 5106TIP3   OH236808   3.837   3.234   1.715 -0.4902  0.3413 -0.7336
 5106TIP3    H136809   3.922   3.261   1.751 -1.5562  2.5236  0.3357
 5106TIP3    H236810   3.812   3.159   1.769 -0.4559  1.4066  0.8406
 5107TIP3   OH236811   4.394   3.046  13.984  0.0000  0.0794  0.5286
 5107TIP3    H136812   4.463   3.107  13.958 -0.0051 -0.2035 -0.1692
 5107TIP3    H236813   4.331   3.100  14.032  0.1147  0.5771  0.1222
 5108TIP3   OH236814   0.738   5.468  11.323 -0.2282  0.0136 -0.5243
 5108TIP3    H136815   0.670   5.461  11.256 -0.4088  1.5720 -0.5476
 5108TIP3    H236816   0.693   5.504  11.399  0.6646  1.7232 -0.7571
 5109TIP3   OH236817   6.690   0.732  13.438  0.1110 -0.5320  0.0035
 5109TIP3    H136818   6.654   0.726  13.350 -1.6056 -1.5306  0.7031
 5109TIP3    H236819   6.709   0.825  13.451 -1.0786 -0.1436 -0.8797
 5110TIP3   OH236820   1.487   4.545  13.078  0.1669  0.1652  0.7916
 5110TIP3    H136821   1.394   4.541  13.059  0.5392 -2.5662 -1.0543
 5110TIP3    H236822   1.504   4.637  13.096 -2.6959  0.8801  0.3001
 5111TIP3   OH236823   3.739   1.495  12.405  0.2309  0.1802 -0.1787
 5111TIP3    H136824   3.786   1.560  12.353 -3.1685  4.6274  1.6215
 5111TIP3    H236825   3.782   1.496  12.490 -0.2442  0.6664  0.0617
 5112TIP3   OH236826   1.270   5.865   2.636 -0.0235 -0.0363  0.7506
 5112TIP3    H136827   1.357   5.904   2.652  0.4705 -0.7058 -0.2318
 5112TIP3    H236828   1.228   5.865   2.722 -0.5034  3.6722  0.6857
 5113TIP3   OH236829   6.103   5.586   1.138  0.3816  0.2541  0.0741
 5113TIP3    H136830   6.022   5.564   1.184  0.5924 -0.3486  0.1678
 5113TIP3    H236831   6.110   5.521   1.068  0.3575  0.8149 -0.4698
 5114TIP3   OH236832   5.584   6.683  14.871  0.2074 -0.2039 -0.4643
 5114TIP3    H136833   5.670   6.641  14.862  0.8170  0.3348  2.0316
 5114TIP3    H236834   5.603   6.777  14.874 -0.9822  0.3261 -4.2656
 5115TIP3   OH236835   2.667   1.742   2.801 -0.2418 -0.2537  0.4615
 5115TIP3    H136836   2.700   1.795   2.873  0.0033  0.9112 -0.4737
 5115TIP3    H236837   2.574   1.731   2.821 -0.4794  1.2258  0.2917
 5116TIP3   OH236838   2.556   6.380   5.512  0.2298 -0.5031 -0.1854
 5116TIP3    H136839   2.534   6.288   5.526 -0.8445 -0.1674  0.4477
 5116TIP3    H236840   2.648   6.387   5.539  0.6659 -1.5925 -1.2822
 5117TIP3   OH236841   5.067   5.717   0.046  0.2608 -0.1843  0.3069
 5117TIP3    H136842   5.031   5.646  -0.008 -0.5686 -0.0476  0.6787
 5117TIP3    H236843   4.994   5.778   0.058  0.7396  0.3205  0.6900
 5118TIP3   OH236844   3.502   0.370  11.901  0.2337 -0.6062  0.3790
 5118TIP3    H136845   3.551   0.447  11.932 -1.4127  0.2254  1.0116
 5118TIP3    H236846   3.471   0.395  11.814 -2.4359  0.5435  1.5497
 5119TIP3   OH236847   5.317   2.251  11.466  0.1971 -0.1333  0.4613
 5119TIP3    H136848   5.301   2.160  11.442 -1.6957  0.5363 -1.0926
 5119TIP3    H236849   5.343   2.293  11.384 -0.1256  0.9455  0.8890
 5120TIP3   OH236850   0.187   1.970   2.853 -0.0276 -0.0228  0.3636
 5120TIP3    H136851   0.180   1.930   2.766  0.3063 -0.3929  0.5036
 5120TIP3    H236852   0.274   1.945   2.884 -0.3093 -0.2606  0.9906
 5121TIP3   OH236853   1.322   1.451   5.780  0.4505  0.1386  0.1482
 5121TIP3    H136854   1.320   1.359   5.808 -0.1229 -0.3352 -1.3071
 5121TIP3    H236855   1.395   1.455   5.718  0.2955  0.5824 -0.0079
 5122TIP3   OH236856   0.349   3.514  16.185  0.2594 -0.4305 -0.0667
 5122TIP3    H136857   0.428   3.482  16.228  0.3937 -1.1686 -0.8538
 5122TIP3    H236858   0.294   3.546  16.257  1.1127 -0.2364  0.5160
 5123TIP3   OH236859   5.124   0.771  12.391 -0.0270  0.1596 -0.0525
 5123TIP3    H136860   5.211   0.804  12.415  0.9543 -1.6349 -0.9638
 5123TIP3    H236861   5.115   0.795  12.298 -1.7418  2.7695  0.6788
 5124TIP3   OH236862   1.804   3.706  14.923  0.0876  0.0532  0.1568
 5124TIP3    H136863   1.758   3.623  14.910  0.2971 -0.3027  1.5281
 5124TIP3    H236864   1.748   3.771  14.880 -0.8874 -0.5828  0.4366
 5125TIP3   OH236865   5.533   1.027  10.921  0.3121 -0.1745 -0.0271
 5125TIP3    H136866   5.466   1.093  10.935  2.0436  1.2977  1.9835
 5125TIP3    H236867   5.492   0.945  10.947 -1.2331  0.3767 -0.5831
 5126TIP3   OH236868   4.243   5.056  11.469  0.1327  0.6038 -0.5322
 5126TIP3    H136869   4.296   5.040  11.547 -1.2134 -1.4728  0.0274
 5126TIP3    H236870   4.153   5.036  11.496 -0.5315  0.9390 -2.3145
 5127TIP3   OH236871   5.048   5.955   0.363 -0.0662  0.2729 -0.7113
 5127TIP3    H136872   4.965   5.907   0.372  0.5604 -0.5426  1.3635
 5127TIP3    H236873   5.050   5.983   0.272 -1.2998 -2.1269 -1.5542
 5128TIP3   OH236874   5.334   6.364   3.521  0.7215 -0.4310 -0.3203
 5128TIP3    H136875   5.272   6.335   3.454  2.0003 -0.0530 -1.7230
 5128TIP3    H236876   5.302   6.323   3.602 -1.7495  0.3239 -0.8147
 5129TIP3   OH236877   2.247   3.389  13.599 -0.5960  0.3304  0.1131
 5129TIP3    H136878   2.275   3.386  13.691 -0.4112 -0.3293  0.0424
 5129TIP3    H236879   2.226   3.298  13.578 -0.2164  0.4083 -0.6222
 5130TIP3   OH236880   2.064   1.735  11.717 -0.2731  0.0425  0.0851
 5130TIP3    H136881   2.095   1.725  11.807  0.6369 -0.9652 -0.3148
 5130TIP3    H236882   2.144   1.745  11.665 -0.7894  0.6678 -0.6161
 5131TIP3   OH236883   4.861   4.387   2.445  0.5206  0.4858  0.2498
 5131TIP3    H136884   4.851   4.473   2.485  0.8251  0.4792  0.3415
 5131TIP3    H236885   4.856   4.403   2.351 -0.5756  0.4556  0.2866
 5132TIP3   OH236886   1.613   5.709   1.924  0.1560 -0.5076 -0.7595
 5132TIP3    H136887   1.592   5.650   1.851 -1.7710  0.9870 -1.5009
 5132TIP3    H236888   1.529   5.747   1.949  0.8444 -0.5691  1.9372
 5133TIP3   OH236889   1.945   6.523  13.531 -0.3370  0.2970  0.3173
 5133TIP3    H136890   1.946   6.435  13.568 -1.0003 -0.0324 -0.4039
 5133TIP3    H236891   2.029   6.532  13.487  0.8127  0.9893  2.4947
 5134TIP3   OH236892   6.381   6.407  17.169  0.3052  0.8591 -0.0707
 5134TIP3    H136893   6.469   6.400  17.133  1.0996  0.8500  1.7294
 5134TIP3    H236894   6.392   6.456  17.251 -1.3255  0.6908  0.2967
 5135TIP3   OH236895   4.245   4.665   2.710 -0.4771  0.2083 -0.2833
 5135TIP3    H136896   4.172   4.711   2.668 -0.6476  0.7376  0.5595
 5135TIP3    H236897   4.210   4.638   2.795 -0.0099 -0.4616 -0.2949
 5136TIP3   OH236898   6.541   6.287   5.651  0.0039  0.1054 -0.4992
 5136TIP3    H136899   6.447   6.289   5.670  0.1856  1.6674  0.4289
 5136TIP3    H236900   6.570   6.378   5.665  1.6714 -0.3738 -0.6444
 5137TIP3   OH236901   6.822   1.823  16.310 -0.3810  0.2661  0.2424
 5137TIP3    H136902   6.854   1.836  16.221 -0.2634  0.4721  0.3141
 5137TIP3    H236903   6.900   1.816  16.364 -0.4518  0.1347  0.3280
 5138TIP3   OH236904   4.531   4.293  14.769 -0.6776  0.3897 -0.1364
 5138TIP3    H136905   4.441   4.324  14.781 -0.1051  1.8827  0.5184
 5138TIP3    H236906   4.521   4.205  14.732 -2.3937  1.0593 -1.4067
 5139TIP3   OH236907   3.003   0.092  14.984 -0.3490  0.4384 -0.0983
 5139TIP3    H136908   2.916   0.088  15.023 -0.6049 -0.2493 -0.7203
 5139TIP3    H236909   3.062   0.073  15.056 -0.7877 -0.3336  0.0664
 5140TIP3   OH236910   3.459   1.074  16.131  0.1493 -0.0023 -0.4060
 5140TIP3    H136911   3.496   1.084  16.043  2.9434 -1.1019  0.5228
 5140TIP3    H236912   3.433   0.982  16.135 -0.6197  0.2110 -0.2728
 5141TIP3   OH236913   0.542   0.530   1.152 -0.2258  0.3327  0.0015
 5141TIP3    H136914   0.624   0.504   1.111 -0.5351 -1.7948  0.6045
 5141TIP3    H236915   0.542   0.626   1.148  3.6715  0.6672  2.6202
 5142TIP3   OH236916   2.274   1.003  10.885  0.2462  0.2478  0.4055
 5142TIP3    H136917   2.188   0.963  10.871  0.0760 -0.3368  2.7177
 5142TIP3    H236918   2.290   0.993  10.979  2.9949  0.0349  0.0003
 5143TIP3   OH236919   4.859   1.576  14.610  0.7697  0.2036 -0.1160
 5143TIP3    H136920   4.769   1.585  14.639  0.3830  0.5614 -1.3734
 5143TIP3    H236921   4.911   1.583  14.690 -0.3351 -0.5057  0.6841
 5144TIP3   OH236922   5.911   0.937  13.750  0.5219  0.1670  0.4692
 5144TIP3    H136923   5.997   0.971  13.726  0.0976  0.3203 -0.9152
 5144TIP3    H236924   5.849   0.995  13.705 -0.3424  0.3939  1.8660
 5145TIP3   OH236925   5.105   1.132  13.627 -0.1627  0.1615  0.3619
 5145TIP3    H136926   5.103   1.043  13.660 -0.3425 -0.0980 -0.3280
 5145TIP3    H236927   5.129   1.123  13.534 -1.4935  0.7257 -0.0549
 5146TIP3   OH236928   6.799   4.976   5.500  0.6302 -0.3944 -0.5019
 5146TIP3    H136929   6.895   4.974   5.503  0.6398 -1.2297 -0.9179
 5146TIP3    H236930   6.779   4.997   5.409  0.4043  0.9817 -0.1554
 5147TIP3   OH236931   2.665   1.613  12.068 -0.0238  0.9814 -0.4610
 5147TIP3    H136932   2.746   1.571  12.096  0.5178  1.9475 -0.5177
 5147TIP3    H236933   2.684   1.645  11.980 -0.6605  0.7275 -0.6979
 5148TIP3   OH236934   5.768   6.593  15.215  0.1896  0.2628 -0.1276
 5148TIP3    H136935   5.754   6.499  15.215  1.9790 -0.0243  0.1826
 5148TIP3    H236936   5.732   6.622  15.299 -2.7342  0.3006 -1.2787
 5149TIP3   OH236937   0.134   0.585   1.856  0.8009  0.0198  0.1846
 5149TIP3    H136938   0.061   0.559   1.800  0.3193  1.2022  0.2304
 5149TIP3    H236939   0.210   0.588   1.797  0.5132  0.1965 -0.1860
 5150TIP3   OH236940   3.082   6.141  12.525 -0.3558 -0.3475  0.0340
 5150TIP3    H136941   3.080   6.158  12.619 -0.2806 -1.2338  0.2054
 5150TIP3    H236942   3.070   6.227  12.484 -0.6218  0.0058  0.8500
 5151TIP3   OH236943   2.670   2.150   5.519  0.2898 -0.0622 -0.6229
 5151TIP3    H136944   2.608   2.196   5.576  0.2526  0.2060 -0.8753
 5151TIP3    H236945   2.626   2.147   5.434  0.1242 -0.9221 -0.5118
 5152TIP3   OH236946   2.909   4.278  17.225  0.0659  0.1885 -0.1643
 5152TIP3    H136947   2.974   4.323  17.171 -1.5859  0.8786 -1.6779
 5152TIP3    H236948   2.928   4.185  17.216  0.7464  0.3819 -0.6999
 5153TIP3   OH236949   2.718   1.738   3.975 -0.0775 -0.4077  0.1332
 5153TIP3    H136950   2.735   1.648   4.003  0.7775 -0.0759  0.7149
 5153TIP3    H236951   2.792   1.760   3.918  0.1319  0.1977  0.6354
 5154TIP3   OH236952   2.201   6.818   4.026  0.2794  0.5535  0.3334
 5154TIP3    H136953   2.123   6.817   4.081  0.7787  1.5925  1.0879
 5154TIP3    H236954   2.193   6.740   3.972 -1.9250  1.2598 -0.5034
 5155TIP3   OH236955   1.825   4.942   3.691 -0.3579  0.3930  0.1150
 5155TIP3    H136956   1.904   4.886   3.692 -2.9700 -3.7386 -0.4575
 5155TIP3    H236957   1.821   4.976   3.602  1.7807  2.4592  0.7211
 5156TIP3   OH236958   4.984   5.729  15.749 -0.1077 -0.0135  0.4176
 5156TIP3    H136959   4.953   5.819  15.761  0.3855  0.1278  0.6616
 5156TIP3    H236960   4.931   5.695  15.677 -1.1287  0.0668  1.1108
 5157TIP3   OH236961   4.440   4.271   2.720  0.3094 -0.4801  0.2076
 5157TIP3    H136962   4.515   4.221   2.754 -0.1213 -0.4662  1.1934
 5157TIP3    H236963   4.411   4.325   2.793  0.7008  1.1887 -0.8107
 5158TIP3   OH236964   5.622   0.770  13.412 -0.0913 -0.6117  0.3837
 5158TIP3    H136965   5.624   0.703  13.344 -1.0305 -0.2810  0.0174
 5158TIP3    H236966   5.690   0.833  13.387  0.8818 -1.4789  0.7998
 5159TIP3   OH236967   0.078   2.378  15.845 -0.1332 -0.4249  0.1920
 5159TIP3    H136968   0.139   2.372  15.771 -0.0412  1.9411 -0.0012
 5159TIP3    H236969   0.015   2.307  15.830  0.2958 -0.4394 -1.7860
 5160TIP3   OH236970   5.882   3.488   2.045  0.2051  0.3838 -0.3297
 5160TIP3    H136971   5.921   3.438   2.116 -0.8015 -0.6956 -0.4915
 5160TIP3    H236972   5.936   3.468   1.968  1.5244  1.8573  0.1740
 5161TIP3   OH236973   2.099   3.612   4.250  0.0625  0.0655 -0.0531
 5161TIP3    H136974   2.189   3.644   4.262  0.1361  0.0726 -0.5788
 5161TIP3    H236975   2.044   3.689   4.263  0.2657  0.5537 -1.7608
 5162TIP3   OH236976   0.750   3.307   3.599 -0.1487  0.5628 -0.3480
 5162TIP3    H136977   0.694   3.381   3.625  0.4338  0.9206 -0.0973
 5162TIP3    H236978   0.708   3.272   3.520 -1.7994 -0.3724  0.8833
 5163TIP3   OH236979   6.632   5.553  16.189  0.1313  0.1151 -0.0753
 5163TIP3    H136980   6.677   5.637  16.175  1.6314 -0.5521  0.5134
 5163TIP3    H236981   6.545   5.566  16.152 -0.2458  2.4817  1.3949
 5164TIP3   OH236982   2.930   0.561   2.013  0.5625  0.4650 -0.4654
 5164TIP3    H136983   2.979   0.611   1.948  1.7065  0.5146  0.4019
 5164TIP3    H236984   2.961   0.594   2.097 -0.1921 -0.2524  0.1117
 5165TIP3   OH236985   5.992   3.787  16.993 -0.1107 -0.1495 -1.4899
 5165TIP3    H136986   5.900   3.814  16.995  0.0603  0.4325 -1.0441
 5165TIP3    H236987   6.039   3.866  16.965  0.4483  0.1581  0.2072
 5166TIP3   OH236988   3.101   0.475   5.824 -0.2318  0.4498  0.0735
 5166TIP3    H136989   3.033   0.509   5.882 -0.7321  0.3377 -0.4391
 5166TIP3    H236990   3.168   0.544   5.822  0.8078 -0.4029  2.4337
 5167TIP3   OH236991   3.874   3.467   0.824  0.1987 -0.4044  0.4057
 5167TIP3    H136992   3.794   3.519   0.829  0.1850 -0.5303  2.2891
 5167TIP3    H236993   3.845   3.376   0.836  0.7087 -0.3411  2.3617
 5168TIP3   OH236994   2.091   5.366  13.137 -0.2354 -0.1194  0.3660
 5168TIP3    H136995   2.162   5.326  13.087 -0.8929 -0.0707 -0.6375
 5168TIP3    H236996   2.029   5.295  13.153  0.6503 -0.4992  2.4766
 5169TIP3   OH236997   3.539   6.253  14.894 -0.1230 -1.0685 -0.6686
 5169TIP3    H136998   3.488   6.231  14.816 -2.4737 -0.3644  0.5645
 5169TIP3    H236999   3.473   6.268  14.962  1.7132  0.6827  0.8469
 5170TIP3   OH237000   1.814   4.976  12.116  0.3424 -0.4862 -0.0016
 5170TIP3    H137001   1.846   5.013  12.199 -1.0508 -1.5723  1.0677
 5170TIP3    H237002   1.891   4.936  12.077  0.9021 -0.5897  1.1437
 5171TIP3   OH237003   2.038   6.565  11.258 -0.6988  0.1281  0.1599
 5171TIP3    H137004   2.017   6.651  11.220 -0.4306 -0.9923 -2.8445
 5171TIP3    H237005   1.993   6.502  11.201  2.0599 -1.8517 -0.0558
 5172TIP3   OH237006   4.229   0.924   0.862 -0.2944 -0.6841  0.3094
 5172TIP3    H137007   4.163   0.885   0.919 -0.0225  0.4593  1.4502
 5172TIP3    H237008   4.312   0.888   0.893 -0.1920 -0.5098  0.2398
 5173TIP3   OH237009   4.881   2.700  17.080 -0.4572 -0.0377  0.0449
 5173TIP3    H137010   4.794   2.711  17.120  0.2950 -0.9100  2.0638
 5173TIP3    H237011   4.867   2.638  17.008 -2.1002  2.6017 -2.0795
 5174TIP3   OH237012   0.118   5.853   3.848 -0.7408 -0.0768  0.0047
 5174TIP3    H137013   0.059   5.837   3.775 -0.1878 -1.7580 -0.1217
 5174TIP3    H237014   0.202   5.815   3.821 -0.6313 -1.1250  1.6249
 5175TIP3   OH237015   4.681   5.654   0.540 -0.2709 -0.5033 -0.1819
 5175TIP3    H137016   4.592   5.675   0.510  0.0455 -0.3118 -1.0188
 5175TIP3    H237017   4.678   5.560   0.557 -1.0372 -0.2473  1.2714
 5176TIP3   OH237018   1.381   2.875  10.580  0.6350  0.0350 -0.1840
 5176TIP3    H137019   1.378   2.971  10.583 -1.2918  0.0980 -1.8083
 5176TIP3    H237020   1.456   2.855  10.525 -0.0087  0.7348 -1.3731
 5177TIP3   OH237021   1.932   5.243   5.135 -0.0889  0.2077  0.5798
 5177TIP3    H137022   1.934   5.316   5.197  0.1271  0.2937  0.4711
 5177TIP3    H237023   2.018   5.242   5.095 -1.0222  1.8014 -1.6594
 5178TIP3   OH237024   6.197   0.862  11.749 -0.6562  0.0746  0.1165
 5178TIP3    H137025   6.160   0.934  11.699  1.0267  0.6493 -0.3599
 5178TIP3    H237026   6.151   0.865  11.833 -1.4759  0.9052 -0.3481
 5179TIP3   OH237027   5.093   5.743  17.074  0.2745 -0.3101 -0.0619
 5179TIP3    H137028   5.062   5.806  17.009 -3.3789  1.0570  2.6710
 5179TIP3    H237029   5.124   5.797  17.147  2.3365 -1.7840  0.2465
 5180TIP3   OH237030   4.025   1.169  14.676 -0.0769  0.1271 -0.3769
 5180TIP3    H137031   3.931   1.181  14.693  0.0730 -0.0089  0.5956
 5180TIP3    H237032   4.062   1.145  14.761  0.7786 -0.2170 -0.8358
 5181TIP3   OH237033   4.590   2.745   0.815 -0.1021 -0.2882  0.0347
 5181TIP3    H137034   4.494   2.746   0.816 -0.1877 -2.0942 -0.9436
 5181TIP3    H237035   4.614   2.807   0.746 -0.7342 -1.8661 -1.6959
 5182TIP3   OH237036   0.559   5.877   6.922 -0.0885  0.0676  0.0199
 5182TIP3    H137037   0.532   5.804   6.978 -0.1624 -1.6724 -2.1171
 5182TIP3    H237038   0.532   5.955   6.970 -1.6648 -1.3488  1.6253
 5183TIP3   OH237039   5.860   5.963  14.100 -0.2887 -0.0639 -0.1545
 5183TIP3    H137040   5.794   5.980  14.166  0.9060  1.3452  0.7469
 5183TIP3    H237041   5.843   6.027  14.031 -0.1048  0.0387 -0.1053
 5184TIP3   OH237042   1.984   3.055  15.947 -0.1136 -0.2094 -0.2321
 5184TIP3    H137043   2.026   3.137  15.924  1.0866 -0.5997  0.4957
 5184TIP3    H237044   1.890   3.074  15.943  0.1324  0.9751 -0.8012
 5185TIP3   OH237045   2.596   5.556   0.050 -0.3929 -0.6285  0.3752
 5185TIP3    H137046   2.526   5.562  -0.016 -1.2874 -2.1923  1.1146
 5185TIP3    H237047   2.549   5.552   0.134  0.6769 -0.0007  1.0326
 5186TIP3   OH237048   3.571   5.235  12.880 -0.5774 -0.6049 -0.4004
 5186TIP3    H137049   3.519   5.307  12.917  2.0942  1.4154 -0.2599
 5186TIP3    H237050   3.510   5.188  12.824 -3.0211  0.3801  1.2714
 5187TIP3   OH237051   4.477   6.208   6.513 -0.0074  0.0913  0.2928
 5187TIP3    H137052   4.506   6.118   6.501 -0.0303  0.2693 -1.2938
 5187TIP3    H237053   4.383   6.202   6.530 -0.2090 -0.1371 -0.8567
 5188TIP3   OH237054   1.115   2.493   1.679 -0.1367 -0.3729  0.5481
 5188TIP3    H137055   1.085   2.445   1.756 -1.6639  0.2631  0.4008
 5188TIP3    H237056   1.083   2.441   1.605 -0.1186 -0.1388  0.3741
 5189TIP3   OH237057   2.714   5.782  12.267 -0.1815  0.7104 -0.2445
 5189TIP3    H137058   2.768   5.703  12.269 -0.8226  0.1117 -2.6891
 5189TIP3    H237059   2.640   5.762  12.323 -1.8283 -1.7262 -2.9663
 5190TIP3   OH237060   2.165   4.412  15.668  0.4676 -1.0657  0.3452
 5190TIP3    H137061   2.110   4.489  15.661 -0.7925 -2.0685 -1.3645
 5190TIP3    H237062   2.178   4.382  15.578  2.3755 -1.8824  0.8211
 5191TIP3   OH237063   3.566   3.955  10.578  0.6334  0.5061 -0.3657
 5191TIP3    H137064   3.570   3.862  10.604 -2.7635 -0.2626 -1.9677
 5191TIP3    H237065   3.520   3.998  10.650  1.6076  0.8304  0.0720
 5192TIP3   OH237066   0.168   3.264  11.341 -0.2735  0.1261 -0.1593
 5192TIP3    H137067   0.166   3.230  11.430 -0.2736  2.4587  0.8040
 5192TIP3    H237068   0.259   3.253  11.313  0.5072  2.1485  1.3465
 5193TIP3   OH237069   3.419   4.706  13.577 -0.3139 -0.0129 -0.1634
 5193TIP3    H137070   3.501   4.702  13.528  0.5773 -2.2522  1.3018
 5193TIP3    H237071   3.439   4.760  13.653 -0.4879  0.1790 -0.2520
 5194TIP3   OH237072   5.541   1.577   1.042 -0.2128  0.0085 -0.6935
 5194TIP3    H137073   5.543   1.544   1.132  0.1452  2.0147  0.1021
 5194TIP3    H237074   5.460   1.541   1.005 -0.6007 -0.5015  0.5891
 5195TIP3   OH237075   0.407   1.283   5.937 -0.6153  0.0604 -0.0334
 5195TIP3    H137076   0.440   1.288   5.848  0.7021  2.2790  0.5068
 5195TIP3    H237077   0.322   1.327   5.934  0.3650  2.0495  0.1541
 5196TIP3   OH237078   3.438   6.794   2.964 -0.6697  0.3393  0.2183
 5196TIP3    H137079   3.504   6.847   3.009  1.4347 -0.0124 -2.2176
 5196TIP3    H237080   3.355   6.825   3.000  0.7319  1.0099  3.2346
 5197TIP3   OH237081   2.199   2.593  14.347 -0.0946  0.2290  0.2540
 5197TIP3    H137082   2.205   2.555  14.259  1.8241 -0.6767  0.7315
 5197TIP3    H237083   2.106   2.586  14.369 -0.6806  0.7329 -1.7918
 5198TIP3   OH237084   6.413   2.706   2.159 -0.0509 -0.3726 -0.2140
 5198TIP3    H137085   6.489   2.666   2.118  1.1945  0.6259  1.0489
 5198TIP3    H237086   6.360   2.738   2.086  0.2503 -1.9086 -1.1351
 5199TIP3   OH237087   5.021   2.649   1.208  0.1872 -0.4130 -0.6159
 5199TIP3    H137088   5.062   2.733   1.230  1.2049 -1.0222 -0.1129
 5199TIP3    H237089   4.930   2.659   1.236  0.4166  0.3552 -0.1028
 5200TIP3   OH237090   1.975   2.193  15.715  0.2254 -0.1073 -0.1358
 5200TIP3    H137091   2.044   2.249  15.752 -0.5842  1.5399 -1.0259
 5200TIP3    H237092   2.012   2.160  15.633  0.3591 -0.1003 -0.0781
 5201TIP3   OH237093   6.305   5.704  11.628 -0.1134  0.4473  0.2676
 5201TIP3    H137094   6.258   5.759  11.565 -2.4082 -0.1270  1.3572
 5201TIP3    H237095   6.265   5.726  11.712 -2.2431 -3.7912  0.6328
 5202TIP3   OH237096   0.574   1.644  16.899 -0.3790  0.3769 -0.1856
 5202TIP3    H137097   0.634   1.707  16.861  0.8335 -0.1924  0.6955
 5202TIP3    H237098   0.504   1.696  16.938 -0.0555  1.0872 -0.5509
 5203TIP3   OH237099   4.882   0.213   5.190  0.1417  0.2922  0.1471
 5203TIP3    H137100   4.806   0.156   5.203  0.4950  0.2913  2.6125
 5203TIP3    H237101   4.846   0.302   5.193  0.1416  0.2786  0.8280
 5204TIP3   OH237102   2.182   3.454   1.126 -0.3263  0.6819  0.1484
 5204TIP3    H137103   2.089   3.476   1.117 -0.2820  0.3750 -1.2658
 5204TIP3    H237104   2.184   3.358   1.127 -0.1190  0.6839  1.5052
 5205TIP3   OH237105   3.288   0.072  13.909  0.4950  0.1137 -0.4908
 5205TIP3    H137106   3.253   0.152  13.948 -1.2815  0.2502 -2.2051
 5205TIP3    H237107   3.263   0.076  13.817 -0.4078 -2.7896 -0.4954
 5206TIP3   OH237108   0.503   1.718  12.119  0.1152  0.0958  0.3764
 5206TIP3    H137109   0.492   1.670  12.201  1.1189  0.7450  0.9033
 5206TIP3    H237110   0.486   1.809  12.142  0.9127  0.3493 -0.0162
 5207TIP3   OH237111   0.560   4.399   1.536 -0.4217  0.0001  0.0103
 5207TIP3    H137112   0.534   4.481   1.493  1.4540  0.9454  0.5733
 5207TIP3    H237113   0.655   4.404   1.541 -0.3589 -1.6627  1.1940
 5208TIP3   OH237114   6.164   5.781  16.163  0.0975  0.1048  0.2035
 5208TIP3    H137115   6.210   5.723  16.102 -1.3483 -0.3687 -0.4937
 5208TIP3    H237116   6.129   5.851  16.108 -2.0739 -0.8560  0.2671
 5209TIP3   OH237117   0.655   5.016  14.252 -0.7035  0.0082 -0.0945
 5209TIP3    H137118   0.740   5.026  14.209 -0.4154  1.6205  0.7841
 5209TIP3    H237119   0.673   4.961  14.329 -0.3271  0.8083  0.4008
 5210TIP3   OH237120   1.833   5.409  16.739  0.5810  0.2519  0.0978
 5210TIP3    H137121   1.802   5.331  16.692 -0.3921  0.9425 -0.4573
 5210TIP3    H237122   1.897   5.448  16.680  1.9083 -0.7036  0.8623
 5211TIP3   OH237123   4.524   3.549  13.883 -0.3636 -0.2519 -0.0671
 5211TIP3    H137124   4.607   3.515  13.918  0.0414  1.0613  0.3010
 5211TIP3    H237125   4.457   3.515  13.943  0.0049 -0.5398  0.1901
 5212TIP3   OH237126   4.235   3.070   4.023  0.0205 -0.3785  0.0384
 5212TIP3    H137127   4.163   3.010   4.008 -1.8160  1.7279 -0.0118
 5212TIP3    H237128   4.235   3.128   3.946  1.7763 -0.3336  0.0338
 5213TIP3   OH237129   0.034   5.848  12.437  0.1294 -0.3475  0.0810
 5213TIP3    H137130   0.083   5.822  12.358 -0.1890  0.7451 -0.5051
 5213TIP3    H237131   0.061   5.786  12.504  2.1390  0.0621 -0.2894
 5214TIP3   OH237132   6.435   0.228  10.879  0.2036 -0.1986 -0.0627
 5214TIP3    H137133   6.421   0.149  10.827  1.8648 -0.5571 -0.0090
 5214TIP3    H237134   6.352   0.276  10.873 -0.6454 -1.6732 -0.5393
 5215TIP3   OH237135   5.573   6.076  17.257  0.7717 -0.1672 -0.1157
 5215TIP3    H137136   5.537   6.017  17.323  1.7399  0.7452  1.2729
 5215TIP3    H237137   5.495   6.113  17.214  0.0831  0.0272  1.2438
 5216TIP3   OH237138   5.728   1.629  12.816 -0.3718  0.1053 -0.1806
 5216TIP3    H137139   5.748   1.607  12.725  0.5488  0.9613 -0.2011
 5216TIP3    H237140   5.726   1.545  12.862  0.9144 -0.1978 -0.6655
 5217TIP3   OH237141   4.605   0.200   0.090  0.0745 -0.4120 -0.3349
 5217TIP3    H137142   4.569   0.136   0.151 -2.0773 -0.3414 -1.4359
 5217TIP3    H237143   4.699   0.189   0.096 -0.1620 -1.8650  1.4116
 5218TIP3   OH237144   0.698   1.361  11.092  0.6700 -0.7224  0.2131
 5218TIP3    H137145   0.628   1.338  11.032 -0.8606 -0.2576  1.7457
 5218TIP3    H237146   0.759   1.412  11.039 -1.2257  0.7208 -0.7067
 5219TIP3   OH237147   2.578   1.932   1.388 -0.0213  0.3886 -0.0082
 5219TIP3    H137148   2.643   1.943   1.319  1.2220 -0.5921  0.9326
 5219TIP3    H237149   2.584   1.839   1.412  0.1705  0.8377  1.9158
 5220TIP3   OH237150   6.174   1.623   3.782  0.6825 -0.1718 -0.2646
 5220TIP3    H137151   6.219   1.685   3.840  1.2851  0.2406 -1.1671
 5220TIP3    H237152   6.243   1.570   3.744  0.3208 -0.2023 -0.8908
 5221TIP3   OH237153   1.259   2.134  16.822 -0.1321  0.1882  0.0291
 5221TIP3    H137154   1.248   2.079  16.744 -1.8870  0.5750 -0.0339
 5221TIP3    H237155   1.254   2.072  16.896  0.1284 -0.0081 -0.1178
 5222TIP3   OH237156   0.026   2.926   4.685  0.2822  0.0865 -0.0573
 5222TIP3    H137157  -0.038   2.996   4.674 -1.3323 -1.3693 -0.3163
 5222TIP3    H237158   0.104   2.957   4.639 -1.3038  0.5674 -2.5561
 5223TIP3   OH237159   5.807   0.993  16.623 -0.1456 -0.9343  0.4177
 5223TIP3    H137160   5.821   0.990  16.528  1.3014  0.6891  0.5259
 5223TIP3    H237161   5.816   0.902  16.652 -0.0831 -1.3794 -0.9212
 5224TIP3   OH237162   1.636   2.950  14.380  0.5019  0.0580  0.4717
 5224TIP3    H137163   1.641   2.985  14.291  1.6145 -2.5008 -0.5708
 5224TIP3    H237164   1.637   3.027  14.436  1.0595  1.7157 -1.6895
 5225TIP3   OH237165   4.377   4.935   3.756 -0.1998  0.5230  0.5946
 5225TIP3    H137166   4.436   4.902   3.689 -1.2660 -0.4000  0.0721
 5225TIP3    H237167   4.342   4.857   3.799  0.1946  1.0842  2.0181
 5226TIP3   OH237168   1.055   1.969  15.335  0.2990  0.1149 -0.1684
 5226TIP3    H137169   1.144   2.003  15.346  0.9422 -1.6514  0.4240
 5226TIP3    H237170   1.049   1.896  15.397 -1.0094 -0.8315 -1.3328
 5227TIP3   OH237171   0.777   4.950  16.285  0.2769  0.1060 -0.4022
 5227TIP3    H137172   0.724   4.883  16.328 -0.4361  0.1347 -1.2232
 5227TIP3    H237173   0.731   5.032  16.304  0.3052  0.1910 -0.7075
 5228TIP3   OH237174   3.888   4.943   1.130  0.5411 -0.0516 -0.2155
 5228TIP3    H137175   3.848   4.947   1.043  3.0488  2.1026 -1.4236
 5228TIP3    H237176   3.949   4.869   1.125  0.7704  0.1448 -0.3382
 5229TIP3   OH237177   3.099   4.892  14.701  0.4522 -0.1381 -0.0215
 5229TIP3    H137178   3.039   4.900  14.627  1.8570  1.1508 -1.0915
 5229TIP3    H237179   3.042   4.876  14.777 -1.1932  0.6062 -1.0385
 5230TIP3   OH237180   6.071   6.710   4.735  0.1641 -0.0667 -0.3603
 5230TIP3    H137181   6.157   6.678   4.761 -0.5076  0.6649  3.2184
 5230TIP3    H237182   6.079   6.805   4.734 -0.9569  0.1297  1.9506
 5231TIP3   OH237183   0.406   2.084   3.491  0.4070  0.5737  0.1569
 5231TIP3    H137184   0.445   2.117   3.571  1.4023  1.4688 -0.6630
 5231TIP3    H237185   0.363   2.002   3.516  1.8177  0.1688  1.3382
 5232TIP3   OH237186   2.232   5.995   1.964 -0.5788 -0.4115 -0.4478
 5232TIP3    H137187   2.176   5.918   1.967 -0.7477 -0.2580  0.3699
 5232TIP3    H237188   2.188   6.055   1.903 -0.8845 -0.6084 -0.4189
 5233TIP3   OH237189   0.558   4.690   4.698  0.1169 -0.3211 -0.0258
 5233TIP3    H137190   0.578   4.633   4.624 -3.5912 -1.2282 -0.5287
 5233TIP3    H237191   0.583   4.640   4.775 -0.1168 -1.2822 -0.5590
 5234TIP3   OH237192   1.675   6.031   0.924 -0.1719 -0.2247 -0.5433
 5234TIP3    H137193   1.769   6.036   0.908 -0.5101  0.5545 -2.7176
 5234TIP3    H237194   1.653   6.116   0.962 -0.1229 -0.0695 -0.8584
 5235TIP3   OH237195   6.674   2.863   0.237 -0.3319 -1.0230 -0.5064
 5235TIP3    H137196   6.616   2.928   0.196  0.3680 -0.5214 -0.7109
 5235TIP3    H237197   6.624   2.782   0.234 -1.7608 -0.2674  0.8756
 5236TIP3   OH237198   0.929   5.911   1.001 -0.5868  0.1498 -0.9534
 5236TIP3    H137199   0.902   5.929   1.091 -0.6123  0.1455 -0.9601
 5236TIP3    H237200   1.008   5.858   1.009 -0.3741  0.4644 -0.9333
 5237TIP3   OH237201   4.155   5.871   1.099 -0.2337 -0.3591 -0.1975
 5237TIP3    H137202   4.235   5.819   1.108  1.1094  1.2365 -2.0391
 5237TIP3    H237203   4.143   5.911   1.186  1.0881 -0.4901  0.0716
 5238TIP3   OH237204   0.391   1.422   3.790 -0.3349 -0.2211 -0.5011
 5238TIP3    H137205   0.384   1.343   3.737  0.7291 -0.3415 -0.4857
 5238TIP3    H237206   0.308   1.468   3.776 -0.1345 -0.3152 -2.1638
 5239TIP3   OH237207   2.376   6.626   2.224 -0.1767  0.2817 -0.2355
 5239TIP3    H137208   2.356   6.717   2.246  0.7046  0.4048  0.0934
 5239TIP3    H237209   2.304   6.576   2.262  0.7558  0.5805  2.1163
 5240TIP3   OH237210   0.543   1.949  14.026 -0.5267 -0.0333 -0.2485
 5240TIP3    H137211   0.623   1.948  14.078 -1.2581 -1.2151  0.9297
 5240TIP3    H237212   0.572   1.963  13.936  0.9071  0.4918  0.2725
 5241TIP3   OH237213   4.721   6.326   2.285  1.0147 -0.4705 -0.4770
 5241TIP3    H137214   4.722   6.414   2.323  0.1692 -0.2233 -1.0089
 5241TIP3    H237215   4.813   6.304   2.272  1.2514  0.0864  0.2243
 5242TIP3   OH237216   5.746   1.125  13.650 -0.4743 -0.1928  0.2088
 5242TIP3    H137217   5.786   1.195  13.701  0.5149 -0.6673  0.1237
 5242TIP3    H237218   5.653   1.144  13.651 -0.0384  2.8198 -2.2910
 5243TIP3   OH237219   3.007   1.432  14.771 -0.5227 -0.0673  0.4567
 5243TIP3    H137220   3.042   1.441  14.682  0.5333 -1.0573  0.7386
 5243TIP3    H237221   2.999   1.522  14.803 -0.1463  0.2664 -0.3581
 5244TIP3   OH237222   3.840   1.608   3.316 -0.0989 -0.5960  0.0226
 5244TIP3    H137223   3.844   1.528   3.368 -1.5477 -1.6733 -1.4040
 5244TIP3    H237224   3.757   1.648   3.340  0.8752  0.8329  1.1471
 5245TIP3   OH237225   4.037   4.973  12.801 -0.0790  0.2219 -0.6292
 5245TIP3    H137226   4.026   4.986  12.707 -1.1469 -0.0174 -0.5552
 5245TIP3    H237227   3.970   4.908  12.823 -0.0148  0.4757  0.3383
 5246TIP3   OH237228   6.367   5.418   1.857  0.0481 -0.0665  0.3348
 5246TIP3    H137229   6.311   5.437   1.782 -0.0033 -0.9414  0.1371
 5246TIP3    H237230   6.398   5.328   1.842  0.6800  0.0360  0.9563
 5247TIP3   OH237231   2.425   6.587  11.846  0.2089  0.4503 -0.2591
 5247TIP3    H137232   2.467   6.664  11.808  0.4168 -0.2138 -1.4337
 5247TIP3    H237233   2.393   6.538  11.770  1.5206 -1.4342  0.3558
 5248TIP3   OH237234   4.234   4.409  14.998 -0.4323 -0.0722 -0.3338
 5248TIP3    H137235   4.227   4.441  14.908  0.3468 -0.6369 -0.6102
 5248TIP3    H237236   4.287   4.474  15.042  0.5745 -0.6059 -0.7201
 5249TIP3   OH237237   5.396   0.222   3.518 -0.4314  0.4693  0.1072
 5249TIP3    H137238   5.417   0.312   3.494  1.1612  0.4993  1.4105
 5249TIP3    H237239   5.386   0.224   3.613 -0.4244 -0.7134  0.1456
 5250TIP3   OH237240   3.841   4.414  17.193  0.4032 -0.3931 -0.6483
 5250TIP3    H137241   3.794   4.346  17.144 -1.1200  0.4484 -0.3843
 5250TIP3    H237242   3.882   4.367  17.266 -0.5862 -1.0457 -0.4983
 5251TIP3   OH237243   0.279   1.180  11.559 -0.5684 -0.1579 -0.2422
 5251TIP3    H137244   0.339   1.135  11.619  0.1357 -1.1577 -1.6127
 5251TIP3    H237245   0.231   1.242  11.614  2.3830  1.4082  0.8307
 5252TIP3   OH237246   1.198   4.485  16.712  0.8705 -0.4530  0.1826
 5252TIP3    H137247   1.277   4.535  16.694  1.2831 -1.5612 -1.2469
 5252TIP3    H237248   1.207   4.457  16.804  1.4081  0.6643  0.4809
 5253TIP3   OH237249   4.692   3.955   1.344  0.4417  0.2752  0.0956
 5253TIP3    H137250   4.630   3.964   1.272  0.0878 -0.4502  0.3014
 5253TIP3    H237251   4.692   4.041   1.387 -0.2585  0.3485 -0.0379
 5254TIP3   OH237252   1.061   5.048   4.940 -0.2220  0.6439 -0.1368
 5254TIP3    H137253   1.116   4.973   4.964 -1.2853  0.3690  1.7107
 5254TIP3    H237254   1.090   5.073   4.853  2.9726  0.6811  0.8223
 5255TIP3   OH237255   6.650   1.690  13.339 -0.5610  0.3202  0.1873
 5255TIP3    H137256   6.580   1.754  13.348 -0.7952 -0.1546  2.4579
 5255TIP3    H237257   6.710   1.711  13.411  0.7920 -0.3007 -0.7258
 5256TIP3   OH237258   6.400   2.600   4.304  0.4892  0.0949  0.8239
 5256TIP3    H137259   6.434   2.689   4.293  0.9558 -0.0141  1.3464
 5256TIP3    H237260   6.363   2.578   4.219 -1.5135  1.5802  1.2366
 5257TIP3   OH237261   5.836   6.131  10.321  0.6631  0.6047  0.3175
 5257TIP3    H137262   5.805   6.157  10.408  0.8652  0.3947  0.4543
 5257TIP3    H237263   5.787   6.051  10.301  1.5300 -0.0662  0.7907
 5258TIP3   OH237264   5.067   5.247   2.517  0.3572  0.0659 -0.0960
 5258TIP3    H137265   5.118   5.261   2.437 -0.7277 -0.2828 -0.8790
 5258TIP3    H237266   4.978   5.276   2.494 -0.2124 -1.0226  0.6402
 5259TIP3   OH237267   3.208   0.803  12.601  0.3972 -0.2450 -0.3829
 5259TIP3    H137268   3.286   0.789  12.547  0.4237  0.7604 -0.6313
 5259TIP3    H237269   3.213   0.735  12.668  1.4544 -0.2366 -0.4323
 5260TIP3   OH237270   1.037   6.551   2.197 -0.3299 -0.2216  0.1749
 5260TIP3    H137271   1.104   6.512   2.253 -0.0370  0.9961  0.7152
 5260TIP3    H237272   1.066   6.642   2.185 -1.8300  0.3150  0.3681
 5261TIP3   OH237273   0.349   0.294   4.219 -0.0205 -0.2336 -0.7278
 5261TIP3    H137274   0.436   0.329   4.233 -0.8879  1.3984  0.9342
 5261TIP3    H237275   0.339   0.226   4.286 -1.2920  2.1736  1.7480
 5262TIP3   OH237276   3.788   1.500   2.074  0.0522  0.6606  0.1967
 5262TIP3    H137277   3.694   1.488   2.083  0.0601  0.2175 -0.2815
 5262TIP3    H237278   3.822   1.412   2.057  0.3568  1.0486 -1.2904
 5263TIP3   OH237279   3.999   0.004  17.100  0.2121  0.0502 -0.2033
 5263TIP3    H137280   4.074  -0.055  17.109  0.6544  0.6492  0.1426
 5263TIP3    H237281   4.036   0.084  17.064 -0.7159 -0.5405 -2.6664
 5264TIP3   OH237282   4.238   4.149   3.567 -0.0398  0.4370  0.2553
 5264TIP3    H137283   4.178   4.091   3.521  1.5216 -1.1954  0.1758
 5264TIP3    H237284   4.294   4.091   3.618  1.5999  1.8529  0.1855
 5265TIP3   OH237285   2.164   6.496   3.571 -0.0527 -0.1965  0.2634
 5265TIP3    H137286   2.175   6.422   3.632  1.4429  0.6805  1.1126
 5265TIP3    H237287   2.070   6.514   3.572 -0.1448 -0.6022  1.8628
 5266TIP3   OH237288   4.818   5.154   5.429  0.0581  0.3358  0.1222
 5266TIP3    H137289   4.759   5.195   5.365 -1.8808  0.2417  1.7683
 5266TIP3    H237290   4.789   5.187   5.514  3.2013  1.2431  0.9862
 5267TIP3   OH237291   5.798   5.010   4.375 -0.3831 -0.3582  0.3020
 5267TIP3    H137292   5.875   4.955   4.361  0.5182  0.9549 -0.2044
 5267TIP3    H237293   5.817   5.057   4.456  0.0751  1.0670 -0.5893
 5268TIP3   OH237294   4.781   3.740  14.602 -0.3596 -0.2501  0.2350
 5268TIP3    H137295   4.803   3.753  14.694 -0.8220  1.7475  0.1023
 5268TIP3    H237296   4.865   3.731  14.558 -0.0694  0.4604  0.6369
 5269TIP3   OH237297   3.640   2.399   4.330  0.0663 -0.3325  0.3761
 5269TIP3    H137298   3.604   2.405   4.242  0.3348 -0.5897  0.2454
 5269TIP3    H237299   3.683   2.483   4.345  1.4742 -0.8805 -0.3929
 5270TIP3   OH237300   3.588   3.497   2.275  0.3490  0.0553 -0.3716
 5270TIP3    H137301   3.672   3.453   2.260 -0.1193 -0.8629 -0.3642
 5270TIP3    H237302   3.583   3.564   2.207  1.0008 -0.0170 -0.4907
 5271TIP3   OH237303   6.809   6.062  13.387  0.1216 -0.5316  0.6207
 5271TIP3    H137304   6.892   6.102  13.413 -0.5431  1.2053  0.1500
 5271TIP3    H237305   6.822   6.037  13.296  0.3370 -0.8973  0.7458
 5272TIP3   OH237306   2.294   2.561  11.955 -0.1106 -0.0910 -0.7429
 5272TIP3    H137307   2.339   2.500  12.014 -0.4854  0.4330  0.1036
 5272TIP3    H237308   2.209   2.520  11.939 -0.5965  0.4792  0.3083
 5273TIP3   OH237309   0.784   1.694   2.050 -0.1027  0.6150  0.1871
 5273TIP3    H137310   0.785   1.684   1.955 -1.1250 -0.1020  0.2482
 5273TIP3    H237311   0.773   1.606   2.084 -0.3362  0.9353  0.9656
 5274TIP3   OH237312   5.176   2.334   6.211 -0.2527  0.9191  0.8621
 5274TIP3    H137313   5.203   2.289   6.291  0.4151 -0.1115  0.0961
 5274TIP3    H237314   5.111   2.276   6.172 -2.3488  2.5284  1.7817
 5275TIP3   OH237315   5.472   0.055   5.344  0.3486  0.3391 -0.4320
 5275TIP3    H137316   5.389   0.075   5.302 -0.7036 -0.2237  1.2505
 5275TIP3    H237317   5.455  -0.026   5.393  2.1313 -0.2307 -0.6992
 5276TIP3   OH237318   6.192   0.847   0.869  0.1835 -0.4440  0.1451
 5276TIP3    H137319   6.104   0.809   0.861 -0.1725  0.4658 -0.4455
 5276TIP3    H237320   6.247   0.790   0.815 -0.3456 -0.1468 -0.7473
 5277TIP3   OH237321   4.659   2.540  13.795 -0.1308 -0.4788  0.3136
 5277TIP3    H137322   4.652   2.446  13.814  0.7406 -0.4009  1.0757
 5277TIP3    H237323   4.696   2.578  13.875  0.9156  0.3014 -0.5180
 5278TIP3   OH237324   0.833   0.791   0.049  0.0060  0.2924  0.1588
 5278TIP3    H137325   0.861   0.880   0.029 -1.0666  0.5676 -0.1789
 5278TIP3    H237326   0.882   0.768   0.128 -0.1276  1.3913  0.5786
 5279TIP3   OH237327   5.915   4.067   4.497 -0.1488 -0.6161 -0.0783
 5279TIP3    H137328   5.862   4.084   4.419 -3.2089  0.7767  2.0883
 5279TIP3    H237329   5.870   3.996   4.542 -0.2312  0.5684  1.8271
 5280TIP3   OH237330   4.652   1.252  15.489  0.0991 -0.6421  0.3213
 5280TIP3    H137331   4.721   1.257  15.556  0.3170  0.6294  0.0272
 5280TIP3    H237332   4.694   1.212  15.413  0.6945  0.6421 -0.0478
 5281TIP3   OH237333   5.364   3.678  14.808 -0.0647 -0.5984 -0.1193
 5281TIP3    H137334   5.421   3.601  14.813  0.3664 -0.3283 -0.7216
 5281TIP3    H237335   5.283   3.651  14.851 -0.2807 -1.7240 -1.1549
 5282TIP3   OH237336   1.234   5.282  11.185 -0.1610 -0.4520  0.2916
 5282TIP3    H137337   1.165   5.318  11.241 -1.3999 -0.6625 -1.0464
 5282TIP3    H237338   1.256   5.198  11.226 -0.7315 -0.3972  0.7199
 5283TIP3   OH237339   0.604   5.393  14.132 -0.0609 -0.3541  0.2359
 5283TIP3    H137340   0.686   5.394  14.181 -0.1095 -0.5564  0.3212
 5283TIP3    H237341   0.623   5.341  14.054  0.9853  2.6252 -1.6442
 5284TIP3   OH237342   5.440   0.334  12.634  0.0990  0.2301  0.5695
 5284TIP3    H137343   5.485   0.355  12.716 -1.1969  1.0828  1.1079
 5284TIP3    H237344   5.373   0.402  12.626 -1.3234 -1.1731  0.0194
 5285TIP3   OH237345   0.101   1.357  16.533  0.5199  0.0202 -0.0345
 5285TIP3    H137346   0.097   1.434  16.590  0.4021 -1.2932  1.8420
 5285TIP3    H237347   0.052   1.382  16.455 -0.5939  1.4405  1.0531
 5286TIP3   OH237348   2.496   0.540  12.442 -0.2567 -0.2853  0.0688
 5286TIP3    H137349   2.524   0.630  12.426 -1.0478 -0.1002 -0.2859
 5286TIP3    H237350   2.539   0.516  12.524  2.1011 -0.5016 -1.1269
 5287TIP3   OH237351   2.361   0.616   6.245  0.2161  0.3483  0.0655
 5287TIP3    H137352   2.337   0.676   6.316  0.8483  0.5834  0.0874
 5287TIP3    H237353   2.366   0.671   6.167 -0.6559  0.0569 -0.2046
 5288TIP3   OH237354   2.881   0.538   2.759 -0.1062 -0.3892 -0.0920
 5288TIP3    H137355   2.806   0.598   2.757  0.5064  0.3724 -0.8321
 5288TIP3    H237356   2.865   0.484   2.837 -0.6633  0.7559  0.6311
 5289TIP3   OH237357   1.532   5.855  15.313 -0.1510 -0.1153 -0.4095
 5289TIP3    H137358   1.620   5.857  15.351 -1.2533 -0.3006  2.4059
 5289TIP3    H237359   1.498   5.943  15.326 -1.0407 -0.5475  0.3618
 5290TIP3   OH237360   0.760   0.187   1.202 -0.6692  0.3669  0.1448
 5290TIP3    H137361   0.838   0.140   1.229  0.0609  2.6094  2.3482
 5290TIP3    H237362   0.783   0.227   1.118  0.7720  1.3611  0.9697
 5291TIP3   OH237363   5.340   1.476   1.222 -0.1616  0.0362 -0.0164
 5291TIP3    H137364   5.305   1.548   1.275  1.7484  0.2051  1.1229
 5291TIP3    H237365   5.310   1.494   1.133 -3.1082 -0.0004  0.8552
 5292TIP3   OH237366   6.285   4.075   2.672 -0.4656 -0.0922 -0.2957
 5292TIP3    H137367   6.263   4.057   2.581  1.4398  0.4509 -0.9291
 5292TIP3    H237368   6.280   4.171   2.680 -0.9028 -0.1545  0.2505
 5293TIP3   OH237369   2.078   5.445   1.320 -0.3117 -0.0615  0.3052
 5293TIP3    H137370   2.089   5.418   1.411  1.1980  0.2436  0.2277
 5293TIP3    H237371   1.989   5.416   1.297 -0.5934 -0.4188  1.7636
 5294TIP3   OH237372   1.104   4.195   5.206 -0.0103 -0.4682 -0.1844
 5294TIP3    H137373   1.108   4.248   5.126 -0.6953 -1.4375 -0.8920
 5294TIP3    H237374   1.162   4.120   5.188  1.0983  0.1052  0.8760
 5295TIP3   OH237375   6.429   6.517   1.846  0.2607  0.2827 -0.3361
 5295TIP3    H137376   6.511   6.542   1.888  0.4074 -0.9302  0.1367
 5295TIP3    H237377   6.455   6.491   1.758  0.4366 -0.4048 -0.0855
 5296TIP3   OH237378   3.920   6.203   3.545  0.3654 -0.3955  0.1174
 5296TIP3    H137379   3.904   6.143   3.617 -0.2708  0.8996  1.1013
 5296TIP3    H237380   3.952   6.283   3.586  2.7869 -0.5466 -1.2877
 5297TIP3   OH237381   2.446   5.199   3.528  0.2578  0.3271 -0.5689
 5297TIP3    H137382   2.450   5.107   3.502  1.2648  0.6861 -1.8345
 5297TIP3    H237383   2.354   5.224   3.517  0.3321 -0.0086 -2.2904
 5298TIP3   OH237384   3.165   6.405   2.434  0.4314  0.0448 -0.3987
 5298TIP3    H137385   3.234   6.420   2.369  2.0773 -0.9549  1.0369
 5298TIP3    H237386   3.144   6.493   2.467  2.3488  0.2565  0.4033
 5299TIP3   OH237387   2.466   1.846  16.701  0.1564 -0.0302  0.4820
 5299TIP3    H137388   2.425   1.928  16.726 -0.3755 -0.4793  1.1069
 5299TIP3    H237389   2.550   1.846  16.748  1.4332  1.3765 -1.6226
 5300TIP3   OH237390   5.763   2.214  15.673  0.3215  0.2129  0.2448
 5300TIP3    H137391   5.707   2.223  15.751 -1.9176  0.2035 -1.2636
 5300TIP3    H237392   5.781   2.121  15.667  0.4410  0.2041  0.7067
 5301TIP3   OH237393   6.282   5.353  12.710  0.1151 -0.2512 -0.9763
 5301TIP3    H137394   6.334   5.337  12.631 -0.5783  0.7345 -1.6432
 5301TIP3    H237395   6.345   5.391  12.772  0.9913 -2.2852 -0.5326
 5302TIP3   OH237396   1.167   0.742  10.554  0.5270  0.1023 -0.3436
 5302TIP3    H137397   1.115   0.797  10.496  1.7229 -0.2215 -1.7855
 5302TIP3    H237398   1.112   0.732  10.632 -0.9442  0.9327 -1.2080
 5303TIP3   OH237399   2.501   0.039  10.683  0.3771 -0.0151 -1.0151
 5303TIP3    H137400   2.548  -0.044  10.689  0.4492  0.0271 -0.9925
 5303TIP3    H237401   2.409   0.015  10.675  0.4552 -0.1084 -1.6539
 5304TIP3   OH237402   5.132   3.760   5.981 -0.1920 -0.0639 -0.6118
 5304TIP3    H137403   5.086   3.812   5.915 -1.8966 -0.1111  0.4739
 5304TIP3    H237404   5.172   3.824   6.039  0.0269 -0.0144 -0.8132
 5305TIP3   OH237405   1.217   2.001  16.586  0.0261 -0.6201  0.0167
 5305TIP3    H137406   1.124   1.975  16.589 -0.5577  1.2525 -0.3586
 5305TIP3    H237407   1.240   1.994  16.493  1.0871 -3.5288  0.3904
 5306TIP3   OH237408   2.472   0.049   2.302 -0.4810  0.8621 -0.3176
 5306TIP3    H137409   2.503  -0.003   2.376  1.6743 -1.2041 -2.4564
 5306TIP3    H237410   2.463   0.138   2.337  1.7080  0.2559  2.1386
 5307TIP3   OH237411   4.036   4.487   4.836 -0.0815  0.0668 -0.4980
 5307TIP3    H137412   4.026   4.581   4.848 -1.2125  0.1915 -2.0782
 5307TIP3    H237413   4.076   4.478   4.750 -0.1269 -0.9008 -0.4278
 5308TIP3   OH237414   3.424   2.073  15.835 -0.1310 -0.8850  0.2228
 5308TIP3    H137415   3.395   2.025  15.757 -0.8268 -2.3433  1.3156
 5308TIP3    H237416   3.386   2.023  15.908  1.8124 -0.4938  1.5580
 5309TIP3   OH237417   2.605   3.430   4.616 -0.2509  0.2723 -0.5734
 5309TIP3    H137418   2.684   3.378   4.599 -0.3990  0.3810 -1.6828
 5309TIP3    H237419   2.571   3.451   4.529 -1.2570  0.6095 -0.1155
 5310TIP3   OH237420   2.090   6.190  10.667  0.2696  0.2214 -0.4499
 5310TIP3    H137421   2.084   6.094  10.659  0.8290  0.1388  0.1000
 5310TIP3    H237422   2.158   6.214  10.604 -1.3773  0.5090 -2.2059
 5311TIP3   OH237423   5.008   6.808  12.136  0.7011 -0.3331 -0.3004
 5311TIP3    H137424   5.018   6.902  12.147 -0.8413 -0.3606  1.7616
 5311TIP3    H237425   5.064   6.769  12.203 -0.5317 -0.8061  0.4840
 5312TIP3   OH237426   0.100   5.397  15.059 -0.0860  0.4556  0.2838
 5312TIP3    H137427   0.099   5.322  15.118  0.4487 -0.5684 -0.9479
 5312TIP3    H237428   0.092   5.359  14.972  0.3927  1.8178 -0.3900
 5313TIP3   OH237429   6.146   6.531  11.705 -0.4371 -1.1303 -0.7127
 5313TIP3    H137430   6.091   6.468  11.751  0.1188 -2.1249 -1.3705
 5313TIP3    H237431   6.229   6.486  11.691 -0.4427 -0.7289 -2.3193
 5314TIP3   OH237432   6.662   4.558  16.760 -0.1290  0.0592  0.8754
 5314TIP3    H137433   6.621   4.537  16.843  0.3242 -2.7736  0.4731
 5314TIP3    H237434   6.721   4.485  16.742  2.0564  2.0047 -0.5318
 5315TIP3   OH237435   0.672   1.535  11.611  0.0058  0.0015 -0.4626
 5315TIP3    H137436   0.653   1.462  11.670 -0.3823  1.2384  0.9844
 5315TIP3    H237437   0.761   1.563  11.635  0.1950 -0.0343 -1.0836
 5316TIP3   OH237438   0.574   6.660   1.944 -0.8086  0.7771 -0.1696
 5316TIP3    H137439   0.559   6.717   1.869  0.9233 -0.4697 -1.5547
 5316TIP3    H237440   0.658   6.689   1.979 -1.4193  1.0947  1.0961
 5317TIP3   OH237441   2.870   2.413  14.063  0.3327 -0.1268 -0.2761
 5317TIP3    H137442   2.896   2.502  14.085  2.6062 -0.5518 -0.9181
 5317TIP3    H237443   2.790   2.423  14.011 -1.3381  1.2641  2.3689
 5318TIP3   OH237444   1.608   2.073  16.698 -0.2568  0.1721  0.0932
 5318TIP3    H137445   1.674   2.019  16.740 -0.3135 -0.5277 -0.6976
 5318TIP3    H237446   1.533   2.015  16.685 -0.3341  0.4361 -0.7334
 5319TIP3   OH237447   2.511   0.155  14.497 -0.4364  0.0907  0.2020
 5319TIP3    H137448   2.527   0.142  14.403  0.6688  3.0989 -0.1327
 5319TIP3    H237449   2.484   0.069  14.528 -1.8795 -0.8118 -3.0610
 5320TIP3   OH237450   6.221   6.155  11.531 -0.5183  0.4459  0.1347
 5320TIP3    H137451   6.276   6.208  11.473 -0.3346 -0.0871 -0.1860
 5320TIP3    H237452   6.271   6.150  11.613  0.0959 -0.3351 -0.2718
 5321TIP3   OH237453   1.909   3.217  15.256  0.2915 -0.1794  0.1751
 5321TIP3    H137454   1.815   3.200  15.246  0.2147 -0.1084  0.7629
 5321TIP3    H237455   1.943   3.215  15.166 -0.2403 -0.3797 -0.0263
 5322TIP3   OH237456   6.542   1.143   0.225 -0.3889 -0.2922  0.3855
 5322TIP3    H137457   6.554   1.176   0.314  1.8336 -1.4172  0.5722
 5322TIP3    H237458   6.558   1.049   0.232 -0.2453 -0.4063 -1.1786
 5323TIP3   OH237459   0.392   3.655  11.491  1.6585 -0.0177 -0.7367
 5323TIP3    H137460   0.411   3.562  11.507  0.4487 -0.1345  0.1902
 5323TIP3    H237461   0.448   3.702  11.553 -1.4623 -0.3964  2.7122
 5324TIP3   OH237462   1.870   1.297   1.197  0.6265  0.0009 -0.2428
 5324TIP3    H137463   1.865   1.330   1.287 -0.5494 -0.4512 -0.1263
 5324TIP3    H237464   1.948   1.241   1.197  1.8498  1.6552 -0.0908
 5325TIP3   OH237465   5.699   2.227   5.817 -0.5003 -0.0946 -0.0706
 5325TIP3    H137466   5.661   2.156   5.869  0.0368  1.0053  1.9188
 5325TIP3    H237467   5.775   2.187   5.775  0.2987 -0.5396  1.6954
 5326TIP3   OH237468   5.192   2.429  14.581 -0.3627 -0.0771 -0.3133
 5326TIP3    H137469   5.120   2.485  14.552 -0.6556 -0.4779 -0.3562
 5326TIP3    H237470   5.190   2.354  14.522  1.4772  0.9259 -1.7780
 5327TIP3   OH237471   5.331   0.022   2.424  0.7233  0.1253  0.1839
 5327TIP3    H137472   5.259  -0.019   2.473 -0.0759  1.9234  0.5825
 5327TIP3    H237473   5.320   0.115   2.439  4.0862  0.4315  1.5456
 5328TIP3   OH237474   6.124   0.752  16.131 -0.3352 -0.0542 -0.1932
 5328TIP3    H137475   6.144   0.845  16.145 -1.9527  0.4287 -0.8975
 5328TIP3    H237476   6.032   0.750  16.108 -0.3377 -1.8613 -0.2015
 5329TIP3   OH237477   4.953   4.589  14.151 -0.4383  0.6136  0.0164
 5329TIP3    H137478   4.982   4.610  14.062 -1.5835 -0.8617 -0.7575
 5329TIP3    H237479   5.033   4.585  14.203  0.3284  0.6540 -1.1281
 5330TIP3   OH237480   2.849   6.738   3.441  0.2870 -0.3006  0.2766
 5330TIP3    H137481   2.853   6.833   3.434  1.2283 -0.3587 -0.2324
 5330TIP3    H237482   2.786   6.721   3.510  0.5399  0.7120  0.7735
 5331TIP3   OH237483   5.153   5.181  12.674  0.1060 -0.1938  0.3438
 5331TIP3    H137484   5.091   5.182  12.748  0.8663  0.0833  0.9846
 5331TIP3    H237485   5.165   5.088  12.655  0.2306 -0.2826  0.8419
 5332TIP3   OH237486   4.402   6.624   6.199 -0.4393 -0.3699  0.5055
 5332TIP3    H137487   4.389   6.593   6.289 -0.8213  1.1038  0.9958
 5332TIP3    H237488   4.368   6.714   6.200  0.9647  0.2147 -0.7124
 5333TIP3   OH237489   5.887   3.437   0.464 -0.2580 -0.2299 -0.1228
 5333TIP3    H137490   5.882   3.533   0.472 -0.1483 -0.2875  0.8933
 5333TIP3    H237491   5.936   3.422   0.384  0.3548  0.5913  0.0812
 5334TIP3   OH237492   3.767   1.688  11.892  0.6012 -0.4178 -0.0429
 5334TIP3    H137493   3.696   1.664  11.833 -1.3974  2.2431  1.0771
 5334TIP3    H237494   3.745   1.645  11.975  0.6644 -0.1087  0.1338
 5335TIP3   OH237495   6.652   2.510   5.780 -0.1187 -0.0383  0.5769
 5335TIP3    H137496   6.583   2.535   5.842  1.6271 -1.4284  3.2940
 5335TIP3    H237497   6.733   2.512   5.832  1.5734 -0.8428 -1.8189
 5336TIP3   OH237498   3.060   2.030  15.585 -0.0964 -0.3808 -0.2242
 5336TIP3    H137499   2.984   2.030  15.644 -1.3036 -0.2617 -1.7122
 5336TIP3    H237500   3.066   2.120  15.554  2.9638  0.5914  2.5850
 5337TIP3   OH237501   0.260   1.431   1.123 -0.0939 -0.0813 -0.4764
 5337TIP3    H137502   0.334   1.480   1.088  1.0243 -1.4755 -0.1727
 5337TIP3    H237503   0.210   1.494   1.174  0.3619  1.0943 -1.4483
 5338TIP3   OH237504   3.792   1.991  11.075  0.4313 -0.5960  0.2432
 5338TIP3    H137505   3.759   1.904  11.053 -2.2152 -0.0613  1.7334
 5338TIP3    H237506   3.739   2.051  11.023 -0.2186  0.2398  1.7873
 5339TIP3   OH237507   0.303   0.021  12.498 -0.0132  0.3065 -0.2141
 5339TIP3    H137508   0.363   0.043  12.569 -0.3444  1.0722 -0.1608
 5339TIP3    H237509   0.217   0.050  12.529 -0.3235 -0.2575 -0.5246
 5340TIP3   OH237510   0.490   3.489   5.644 -0.3049 -0.0186  0.4946
 5340TIP3    H137511   0.474   3.563   5.703 -1.0559  0.6264 -0.4866
 5340TIP3    H237512   0.584   3.493   5.627 -0.2127  0.2510  1.0332
 5341TIP3   OH237513   4.328   3.074  10.405  0.5642 -0.9096 -0.0332
 5341TIP3    H137514   4.298   3.139  10.341 -1.7332 -1.5425  0.3289
 5341TIP3    H237515   4.259   3.008  10.407  1.5372 -1.9551  1.6549
 5342TIP3   OH237516   5.224   2.658   0.713  0.3499  0.1423  0.1873
 5342TIP3    H137517   5.186   2.613   0.788 -1.0738 -0.9585 -1.1318
 5342TIP3    H237518   5.149   2.696   0.668  0.7218 -1.8202 -2.3119
 5343TIP3   OH237519   0.458   6.718   2.226 -0.5630  0.0428  0.1143
 5343TIP3    H137520   0.365   6.702   2.210 -0.5567  1.2237 -1.3052
 5343TIP3    H237521   0.501   6.686   2.147  0.1759  0.0539  0.5104
 5344TIP3   OH237522   2.057   1.990  11.016  0.5031  0.1753 -0.1451
 5344TIP3    H137523   1.998   2.057  10.980 -0.9808 -0.6306  0.6687
 5344TIP3    H237524   2.076   1.932  10.942 -0.8029 -0.2762 -0.1538
 5345TIP3   OH237525   0.991   1.612  12.882  0.2208 -0.1984 -0.0470
 5345TIP3    H137526   1.029   1.581  12.964  1.5314 -0.5974 -0.7716
 5345TIP3    H237527   0.897   1.603  12.894  0.4415 -1.2877  1.0030
 5346TIP3   OH237528   4.407   6.408  12.743  0.3768  1.1868  0.3029
 5346TIP3    H137529   4.410   6.335  12.805  0.0894  0.3628 -0.6271
 5346TIP3    H237530   4.362   6.477  12.790 -1.0210  0.1320  0.5808
 5347TIP3   OH237531   5.237   4.886   4.898  0.1623 -0.2657 -0.3746
 5347TIP3    H137532   5.207   4.825   4.966  0.6580  0.3997  0.4585
 5347TIP3    H237533   5.319   4.848   4.866 -1.7472 -2.4955 -3.1878
 5348TIP3   OH237534   1.267   2.755  11.668  0.6522  0.0538  0.5985
 5348TIP3    H137535   1.341   2.696  11.681  2.3377  1.5489 -1.4503
 5348TIP3    H237536   1.270   2.815  11.743 -0.2715 -1.5529  1.9871
 5349TIP3   OH237537   4.782   4.190   4.327  0.7266  0.0850 -0.0312
 5349TIP3    H137538   4.817   4.140   4.400  2.4578  0.0965 -0.8035
 5349TIP3    H237539   4.719   4.250   4.367  1.6444  0.1076  1.4459
 5350TIP3   OH237540   6.047   4.874  14.761 -0.0695  0.2471 -0.0275
 5350TIP3    H137541   6.118   4.939  14.758  0.6362 -0.5337 -1.2121
 5350TIP3    H237542   6.092   4.790  14.759 -0.9530 -0.3286  2.1582
 5351TIP3   OH237543   2.083   0.783   1.522  0.0568  0.7239 -0.4023
 5351TIP3    H137544   2.018   0.815   1.460 -0.0936  1.0529 -0.0813
 5351TIP3    H237545   2.031   0.746   1.594  0.2263  0.6146 -0.3359
 5352TIP3   OH237546   3.336   3.003   4.556  0.4925 -0.2756  0.3714
 5352TIP3    H137547   3.398   3.069   4.526  1.6697 -1.5096  0.0029
 5352TIP3    H237548   3.381   2.920   4.543 -1.0443 -1.1844  0.5922
 5353TIP3   OH237549   4.111   3.572  13.501 -0.1526 -0.3183 -0.1086
 5353TIP3    H137550   4.130   3.500  13.442  0.2808  0.0374 -0.4134
 5353TIP3    H237551   4.116   3.534  13.588  0.2315 -0.6240 -0.2623
 5354TIP3   OH237552   0.388   5.667   7.004 -0.3542 -0.0851  0.0163
 5354TIP3    H137553   0.311   5.659   7.060 -0.8711  1.2167 -0.4753
 5354TIP3    H237554   0.355   5.654   6.915  0.2961 -1.1654 -0.0830
 5355TIP3   OH237555   1.383   0.059  12.967  0.2492 -0.2476  0.2016
 5355TIP3    H137556   1.476   0.040  12.970  0.0425 -1.7778 -1.6066
 5355TIP3    H237557   1.373   0.137  13.022  2.8460  1.0240 -0.9472
 5356TIP3   OH237558   6.039   0.384  17.088 -0.2942  0.2619 -0.6643
 5356TIP3    H137559   6.041   0.296  17.050  0.7061  0.0969 -0.2504
 5356TIP3    H237560   5.958   0.385  17.140  0.1514 -0.7684  0.1053
 5357TIP3   OH237561   3.001   2.598  16.052 -0.2872  0.3585  0.3514
 5357TIP3    H137562   2.956   2.518  16.027 -0.3058  0.4316  0.1415
 5357TIP3    H237563   2.949   2.635  16.123  0.2488 -0.3040  1.0981
 5358TIP3   OH237564   0.884   6.355   3.744 -0.5705  0.6474 -0.2913
 5358TIP3    H137565   0.853   6.323   3.660  1.9023 -1.3234 -0.5837
 5358TIP3    H237566   0.815   6.414   3.775 -2.2517  0.2251 -2.9406
 5359TIP3   OH237567   2.039   4.881  11.973 -0.4067  0.3200  0.0541
 5359TIP3    H137568   2.113   4.881  12.033  0.2178  1.1794 -0.6979
 5359TIP3    H237569   2.075   4.854  11.889 -1.3493 -1.2741  0.1124
 5360TIP3   OH237570   3.740   4.134  12.436  0.6495  0.3037  0.4124
 5360TIP3    H137571   3.784   4.217  12.422 -0.5390  1.3005  2.2650
 5360TIP3    H237572   3.804   4.080  12.482  0.9558  0.6593  0.4001
 5361TIP3   OH237573   4.143   0.638   0.175  0.2646 -0.0254  0.0873
 5361TIP3    H137574   4.216   0.578   0.162  0.6358  0.3805  0.2920
 5361TIP3    H237575   4.135   0.685   0.092 -0.4297 -0.7854 -0.2959
 5362TIP3   OH237576   1.962   1.487  14.149 -0.6301  0.6314  0.1506
 5362TIP3    H137577   2.004   1.572  14.135 -0.4686  0.4362 -0.6248
 5362TIP3    H237578   2.030   1.423  14.128 -1.6965  0.2807 -2.7241
 5363TIP3   OH237579   1.919   0.844   3.056  0.3845  0.0538  0.9109
 5363TIP3    H137580   1.836   0.802   3.036  0.6191 -0.3630  0.7964
 5363TIP3    H237581   1.931   0.831   3.151  0.6905 -0.5772  0.7920
 5364TIP3   OH237582   1.307   4.336  12.273  0.4145  0.5124 -0.3868
 5364TIP3    H137583   1.231   4.285  12.303  0.9626 -0.0213  0.1080
 5364TIP3    H237584   1.348   4.282  12.206  2.2190 -0.7227  1.5969
 5365TIP3   OH237585   0.354   1.889  14.448  0.1592  0.0911 -0.5370
 5365TIP3    H137586   0.316   1.877  14.361  0.9564 -1.0537 -0.7605
 5365TIP3    H237587   0.371   1.800  14.479 -2.0263  0.3328  1.7005
 5366TIP3   OH237588   6.523   6.386   5.077 -0.0403 -0.3330  0.3788
 5366TIP3    H137589   6.433   6.418   5.090 -0.7712 -1.9203 -0.4095
 5366TIP3    H237590   6.575   6.464   5.061 -1.5638  0.5181 -0.6131
 5367TIP3   OH237591   5.604   4.467   0.357  0.2301  0.1552  0.3201
 5367TIP3    H137592   5.593   4.521   0.278 -0.4693 -2.0812 -1.1952
 5367TIP3    H237593   5.686   4.499   0.396 -0.4756  2.7195 -0.0899
 5368TIP3   OH237594   3.479   4.244  13.583  0.4952 -0.7179  0.0720
 5368TIP3    H137595   3.493   4.226  13.677 -0.2104 -0.7431  0.1751
 5368TIP3    H237596   3.414   4.180  13.556  1.5092 -1.4372 -0.7102
 5369TIP3   OH237597   6.652   6.277   5.311  0.4142  0.2007  0.8451
 5369TIP3    H137598   6.591   6.290   5.238  1.2288  0.2618  0.1587
 5369TIP3    H237599   6.717   6.216   5.277 -0.0303 -0.9676  2.0369
 5370TIP3   OH237600   5.958   0.876  12.356 -0.7438 -0.4435 -0.1058
 5370TIP3    H137601   5.913   0.862  12.272  1.6473 -0.2816 -1.5158
 5370TIP3    H237602   6.016   0.951  12.340 -0.2656 -0.3805  1.7290
 5371TIP3   OH237603   1.245   2.996   1.814 -0.1710  0.3380  0.1742
 5371TIP3    H137604   1.294   3.053   1.755  0.7037 -1.2132 -0.6515
 5371TIP3    H237605   1.215   2.924   1.759 -1.2772  0.0002  1.1806
 5372TIP3   OH237606   1.090   4.194  15.347 -0.1378 -0.5844 -0.9174
 5372TIP3    H137607   1.146   4.208  15.423  1.1587 -1.3162 -1.6995
 5372TIP3    H237608   1.071   4.100  15.347  0.7174 -0.7782 -2.0328
 5373TIP3   OH237609   5.530   3.755   0.324  0.7032  0.3013 -0.0665
 5373TIP3    H137610   5.523   3.772   0.230 -0.6725  1.0008  0.1232
 5373TIP3    H237611   5.608   3.803   0.352 -0.1019  1.9504 -0.5085
 5374TIP3   OH237612   2.809   5.493  12.077  0.0715  0.0172 -0.5490
 5374TIP3    H137613   2.803   5.569  12.020 -2.0324  0.8739  0.7065
 5374TIP3    H237614   2.903   5.483  12.093  0.3872  3.2714  0.4098
 5375TIP3   OH237615   5.973   5.213   3.706 -0.0794  0.1051  0.3824
 5375TIP3    H137616   5.985   5.241   3.796 -0.5273 -2.4057  1.3110
 5375TIP3    H237617   5.881   5.187   3.701  0.1354 -0.5392 -0.5539
 5376TIP3   OH237618   5.169   2.288   1.673 -0.1066  0.2328  0.1530
 5376TIP3    H137619   5.127   2.367   1.705 -3.4964  0.4499 -3.9933
 5376TIP3    H237620   5.232   2.318   1.608 -1.2491 -0.3115 -1.2802
 5377TIP3   OH237621   0.103   0.302   4.078  0.3286 -0.4565 -0.0784
 5377TIP3    H137622   0.139   0.289   4.166 -0.5258 -0.3567  0.2924
 5377TIP3    H237623   0.180   0.312   4.022  0.8712  0.4591  0.8056
 5378TIP3   OH237624   2.148   2.058   0.582 -0.3847  0.6375 -0.0845
 5378TIP3    H137625   2.139   1.973   0.540 -0.9056  0.5265  0.2407
 5378TIP3    H237626   2.143   2.121   0.510 -0.7029  0.4241 -0.2497
 5379TIP3   OH237627   1.992   5.542   0.080  1.0080  0.1886  0.1608
 5379TIP3    H137628   2.022   5.578  -0.004  0.3211 -0.3828 -0.3384
 5379TIP3    H237629   1.930   5.473   0.056  2.1992 -1.2669  1.0810
 5380TIP3   OH237630   3.944   5.991  12.437  0.0244  0.0413  0.6972
 5380TIP3    H137631   4.039   5.990  12.449  0.1725  1.5172 -0.0475
 5380TIP3    H237632   3.917   6.076  12.471 -0.9094 -0.0057  0.0918
 5381TIP3   OH237633   6.022   5.837   4.189 -0.2612  0.5515  0.5242
 5381TIP3    H137634   5.976   5.817   4.270 -0.4781 -0.2864  0.2042
 5381TIP3    H237635   5.989   5.773   4.126 -1.3098  2.1979 -0.6829
 5382TIP3   OH237636   1.742   4.688   2.747  0.2065 -0.0102 -0.5790
 5382TIP3    H137637   1.770   4.769   2.789 -2.6599  1.0350 -0.4071
 5382TIP3    H237638   1.809   4.670   2.681  1.0022  2.4331 -0.5304
 5383TIP3   OH237639   6.433   3.395  14.757 -0.0854 -0.2129 -0.2726
 5383TIP3    H137640   6.400   3.309  14.782 -2.3169  0.4896 -0.5832
 5383TIP3    H237641   6.468   3.382  14.669  1.3014 -1.1499  0.3719
 5384TIP3   OH237642   1.837   2.637  12.504  0.6631 -0.6601  0.5044
 5384TIP3    H137643   1.814   2.684  12.584 -0.4822 -1.9659  0.9797
 5384TIP3    H237644   1.864   2.706  12.443 -0.2289  0.5381  1.4018
 5385TIP3   OH237645   1.114   3.856   2.236  0.4941  0.7504 -0.1123
 5385TIP3    H137646   1.053   3.854   2.310  0.7903 -0.4308  0.1241
 5385TIP3    H237647   1.069   3.807   2.167  0.6989  0.8648 -0.3278
 5386TIP3   OH237648   0.399   1.285  12.077 -0.2303  0.0535  0.1624
 5386TIP3    H137649   0.341   1.344  12.030 -0.5191 -0.1819  0.2176
 5386TIP3    H237650   0.387   1.200  12.035 -1.4533 -0.4568  1.4426
 5387TIP3   OH237651   2.985   4.130  12.306 -0.4290  0.6394  0.8056
 5387TIP3    H137652   3.049   4.059  12.315  0.7253  1.4725 -0.3066
 5387TIP3    H237653   2.918   4.111  12.371 -0.2843 -1.5850  0.3645
 5388TIP3   OH237654   5.946   1.486  10.820 -1.1149 -0.4577 -0.0821
 5388TIP3    H137655   5.978   1.409  10.867 -0.6819 -0.1070  0.2112
 5388TIP3    H237656   5.874   1.454  10.766 -0.1943 -1.3162 -0.8540
 5389TIP3   OH237657   4.964   1.371   3.703 -0.6970  0.4058  0.5291
 5389TIP3    H137658   5.017   1.361   3.624 -1.4540 -1.3442  0.2042
 5389TIP3    H237659   5.023   1.411   3.767  1.2229 -1.9890  0.3726
 5390TIP3   OH237660   0.543   0.087   2.692 -0.4152  0.6225 -0.0921
 5390TIP3    H137661   0.596   0.046   2.761 -1.6214 -1.6545 -0.4426
 5390TIP3    H237662   0.607   0.137   2.640  0.7794  0.9737  1.6165
 5391TIP3   OH237663   1.514   0.783   2.365  0.3643 -0.3339  0.1848
 5391TIP3    H137664   1.608   0.780   2.347  0.3620 -2.1319  0.3757
 5391TIP3    H237665   1.502   0.866   2.412  1.7298  0.2584 -0.4501
 5392TIP3   OH237666   0.560   5.570  16.602  0.2976  0.1332  0.1987
 5392TIP3    H137667   0.611   5.577  16.522  0.1678 -1.0419 -0.0137
 5392TIP3    H237668   0.470   5.556  16.572  0.1022  0.5875  0.5585
 5393TIP3   OH237669   0.672   4.772   0.117 -0.0204 -0.4524 -0.1442
 5393TIP3    H137670   0.696   4.800   0.206 -0.4782 -0.3710 -0.0407
 5393TIP3    H237671   0.746   4.799   0.063  0.4372 -0.8528  0.2724
 5394TIP3   OH237672   3.874   4.586  11.133 -0.2471 -0.1470  0.4770
 5394TIP3    H137673   3.911   4.667  11.099 -1.2934  0.9038  1.7095
 5394TIP3    H237674   3.790   4.577  11.088  0.4751 -1.3367 -0.6925
 5395TIP3   OH237675   6.542   0.642  16.429  0.1909 -0.3351  0.0557
 5395TIP3    H137676   6.462   0.622  16.379  0.4121  1.9111 -1.3397
 5395TIP3    H237677   6.517   0.715  16.485  0.1544 -2.3599  2.9015
 5396TIP3   OH237678   6.331   2.668   0.956  0.4642  0.3635  0.2042
 5396TIP3    H137679   6.323   2.691   1.049  0.3764  2.1900 -0.2151
 5396TIP3    H237680   6.382   2.739   0.918 -0.6889  0.3853 -1.4179
 5397TIP3   OH237681   5.865   1.821   1.881 -0.0003  0.5105 -0.4088
 5397TIP3    H137682   5.811   1.900   1.875 -1.4619 -0.5640 -2.8796
 5397TIP3    H237683   5.813   1.760   1.932 -0.5808 -0.0467 -1.6116
 5398TIP3   OH237684   5.968   4.888  13.292 -0.0141  0.0431 -0.1812
 5398TIP3    H137685   5.936   4.836  13.218  0.1927 -0.9446  0.4085
 5398TIP3    H237686   5.957   4.979  13.264 -0.6604 -0.3114 -1.1157
 5399TIP3   OH237687   1.891   6.422  14.573  0.0737 -0.1856 -0.1160
 5399TIP3    H137688   1.942   6.352  14.531 -0.8910 -0.6562 -0.5267
 5399TIP3    H237689   1.800   6.400  14.554 -0.3119  0.4386  0.9284
 5400TIP3   OH237690   3.118   2.390  16.813 -0.4523  0.5004  0.1029
 5400TIP3    H137691   3.085   2.343  16.737  1.1270  0.7263 -0.7633
 5400TIP3    H237692   3.104   2.329  16.886  0.4224 -0.8528 -0.8010
 5401TIP3   OH237693   5.087   6.643  15.727  0.1109  0.1099  0.1753
 5401TIP3    H137694   5.160   6.651  15.666  0.3831  0.8724  0.5855
 5401TIP3    H237695   5.019   6.599  15.677 -0.0934  1.7237 -1.0641
 5402TIP3   OH237696   4.518   5.574   4.449 -0.0258  0.0068  0.1631
 5402TIP3    H137697   4.570   5.622   4.384 -1.1002 -0.8332 -1.3787
 5402TIP3    H237698   4.470   5.509   4.398 -0.9626 -0.6510  1.8105
 5403TIP3   OH237699   1.652   5.591  12.665 -0.7957  0.0066 -0.6306
 5403TIP3    H137700   1.666   5.632  12.750  2.4660 -0.5796 -0.7803
 5403TIP3    H237701   1.629   5.500  12.686  1.3785 -0.5114 -0.3139
 5404TIP3   OH237702   2.672   5.633  15.307 -0.0767 -0.1424  0.0071
 5404TIP3    H137703   2.650   5.647  15.215  0.5383 -0.9141 -0.2676
 5404TIP3    H237704   2.671   5.720  15.346 -0.9545  0.1233 -0.5864
 5405TIP3   OH237705   4.620   1.075  14.175  0.5578 -0.0215 -0.4568
 5405TIP3    H137706   4.576   1.152  14.212  0.9447  0.0520 -0.1358
 5405TIP3    H237707   4.645   1.023  14.251 -0.3465 -0.8356 -0.7103
 5406TIP3   OH237708   2.525   0.816  13.984  0.1153 -0.4730 -0.0824
 5406TIP3    H137709   2.573   0.876  14.041  0.0296 -1.5944  1.2190
 5406TIP3    H237710   2.434   0.843  13.992  0.2273  0.0929 -0.6139
 5407TIP3   OH237711   1.898   6.308  12.309  0.4208 -0.5277 -0.3183
 5407TIP3    H137712   1.960   6.370  12.348  0.6705 -0.6520 -0.5159
 5407TIP3    H237713   1.813   6.332  12.346  0.5526 -0.2131 -0.2216
 5408TIP3   OH237714   1.922   2.660   5.223 -0.3361  0.2537 -0.2424
 5408TIP3    H137715   1.973   2.685   5.146  0.3588 -0.6361 -0.0843
 5408TIP3    H237716   1.835   2.637   5.189  0.2836 -1.1774 -0.9043
 5409TIP3   OH237717   5.316   2.195  15.831 -0.0606 -0.4832 -0.3363
 5409TIP3    H137718   5.345   2.180  15.740  3.4636 -2.7919  0.9216
 5409TIP3    H237719   5.357   2.278  15.855  1.1425 -1.1094 -0.1602
 5410TIP3   OH237720   6.212   5.100  13.858 -0.0539 -0.5368 -0.7969
 5410TIP3    H137721   6.177   5.174  13.808  0.5860 -0.6108 -1.3828
 5410TIP3    H237722   6.288   5.072  13.807  1.6623  0.4477  1.0666
 5411TIP3   OH237723   1.256   3.611   3.649 -0.0411 -0.1502 -0.3519
 5411TIP3    H137724   1.228   3.660   3.572  0.1213 -0.0308 -0.3369
 5411TIP3    H237725   1.257   3.519   3.621  0.9403 -0.0201 -0.7852
 5412TIP3   OH237726   0.667   3.143   0.237 -0.2282  1.0239  0.3151
 5412TIP3    H137727   0.620   3.099   0.308  1.5528 -1.1352  0.2614
 5412TIP3    H237728   0.746   3.177   0.279  1.1771 -0.8635 -0.6412
 5413TIP3   OH237729   4.810   0.980  13.560  0.2519 -0.9685  0.4983
 5413TIP3    H137730   4.747   0.974  13.488 -2.4697 -0.8622  2.7002
 5413TIP3    H237731   4.824   1.074  13.573  0.4668 -0.9777  0.3346
 5414TIP3   OH237732   2.477   2.553  16.806  0.2091  0.3275 -0.0362
 5414TIP3    H137733   2.400   2.509  16.771  0.2974  0.1069  0.0403
 5414TIP3    H237734   2.531   2.482  16.840  0.6653  0.4362 -0.5166
 5415TIP3   OH237735   2.200   2.543   3.412 -0.1860  0.1840 -0.1815
 5415TIP3    H137736   2.107   2.561   3.399 -0.5829 -1.4910  0.0246
 5415TIP3    H237737   2.218   2.466   3.357  1.0335  0.3730 -0.0914
 5416TIP3   OH237738   4.717   6.027  15.008  0.4983 -0.2951 -0.2764
 5416TIP3    H137739   4.624   6.041  14.990 -0.1596 -1.6816  1.6435
 5416TIP3    H237740   4.763   6.075  14.939 -1.5735  2.4590  0.1279
 5417TIP3   OH237741   5.214   0.018   3.467 -1.3261 -0.1557  0.4950
 5417TIP3    H137742   5.254   0.105   3.475 -1.2096 -0.0415 -0.9608
 5417TIP3    H237743   5.265  -0.038   3.525 -0.7599  0.5469  0.6866
 5418TIP3   OH237744   6.492   4.478   2.054 -0.0055  0.5997 -0.1009
 5418TIP3    H137745   6.484   4.396   2.102 -0.6277 -0.0168 -1.2236
 5418TIP3    H237746   6.563   4.463   1.993  0.3962  1.1776  0.2172
 5419TIP3   OH237747   3.772   3.323  15.609  0.0256  0.0891  0.1015
 5419TIP3    H137748   3.857   3.309  15.650 -0.4917 -0.1317  1.1394
 5419TIP3    H237749   3.785   3.397  15.550  1.0334 -0.2130 -0.0750
 5420TIP3   OH237750   5.439   6.772  11.647 -0.5203  0.1893  0.1459
 5420TIP3    H137751   5.344   6.762  11.653 -0.3696 -1.5836  0.1169
 5420TIP3    H237752   5.469   6.693  11.603  0.9426  0.9661 -0.3376
 5421TIP3   OH237753   2.871   1.315  10.756 -0.0027 -0.9360 -0.1089
 5421TIP3    H137754   2.952   1.303  10.804  0.1637 -0.7326 -0.3397
 5421TIP3    H237755   2.803   1.281  10.814  0.3046 -1.6331 -0.1471
 5422TIP3   OH237756   1.716   3.764   5.801 -0.8216 -0.3339 -0.1938
 5422TIP3    H137757   1.685   3.745   5.889  2.1841  0.0619  1.0861
 5422TIP3    H237758   1.748   3.680   5.768 -0.5046 -0.2011 -0.2379
 5423TIP3   OH237759   3.065   6.549  12.631 -0.1057  0.4284 -0.2356
 5423TIP3    H137760   3.129   6.609  12.594 -0.5051  1.6900  1.0065
 5423TIP3    H237761   3.091   6.541  12.723 -1.2338  0.3094  0.0888
 5424TIP3   OH237762   6.394   6.080   3.590 -0.5257  0.5623  0.4103
 5424TIP3    H137763   6.487   6.057   3.591 -0.7757 -0.8496 -1.9482
 5424TIP3    H237764   6.393   6.174   3.611  1.7694  1.3741 -2.4917
 5425TIP3   OH237765   2.621   5.643   2.233  0.6201  0.3396  0.7619
 5425TIP3    H137766   2.545   5.693   2.204  0.6617 -0.3887 -0.6721
 5425TIP3    H237767   2.631   5.667   2.326 -1.3689  0.4315  1.0041
 5426TIP3   OH237768   3.209   3.119   3.661  0.5269  0.0831  0.0407
 5426TIP3    H137769   3.232   3.110   3.753 -0.3294  0.3616  0.2984
 5426TIP3    H237770   3.122   3.080   3.655  0.3653  0.5208 -0.5395
 5427TIP3   OH237771   0.268   6.304  12.707 -0.1165  0.2093 -0.1717
 5427TIP3    H137772   0.300   6.367  12.771  0.1567  0.6396 -0.7260
 5427TIP3    H237773   0.336   6.236  12.704  0.6231  0.9760 -1.1385
 5428TIP3   OH237774   6.549   5.068  11.525 -0.1914 -0.1890  0.0148
 5428TIP3    H137775   6.532   5.043  11.616 -3.1472 -0.2689 -0.4745
 5428TIP3    H237776   6.509   4.998  11.473  2.3321 -0.6941 -1.4165
 5429TIP3   OH237777   4.802   1.051  17.098  0.0235 -0.3380 -0.0686
 5429TIP3    H137778   4.725   1.094  17.135 -0.5748 -0.4226 -1.1742
 5429TIP3    H237779   4.774   1.022  17.012  0.7558 -1.9911  0.2153
 5430TIP3   OH237780   4.973   4.610  16.577 -0.2062 -0.2054 -0.2701
 5430TIP3    H137781   4.944   4.652  16.658 -0.9111 -1.2492  0.0366
 5430TIP3    H237782   5.041   4.549  16.604  0.4969  0.3800 -0.6583
 5431TIP3   OH237783   6.071   0.424  15.342  0.0800  0.4443  0.2387
 5431TIP3    H137784   6.132   0.379  15.400  0.8032 -0.0571 -0.8762
 5431TIP3    H237785   6.047   0.358  15.277  0.1585  1.3005 -0.6797
 5432TIP3   OH237786   0.137   6.030   5.007 -0.0027  0.0337 -0.2252
 5432TIP3    H137787   0.119   6.078   4.926 -0.2836  0.9533  0.3661
 5432TIP3    H237788   0.173   5.946   4.978  1.9858  1.1798 -1.2812
 5433TIP3   OH237789   0.961   6.418   5.626 -0.5423 -0.2805 -0.1198
 5433TIP3    H137790   0.895   6.471   5.579 -0.8418 -0.5946 -0.0581
 5433TIP3    H237791   0.984   6.471   5.702 -0.0980  0.2082 -0.5889
 5434TIP3   OH237792   5.007   0.508   1.618 -0.0084 -0.0141  0.0194
 5434TIP3    H137793   4.941   0.522   1.550  0.3208  0.6008 -0.1927
 5434TIP3    H237794   5.091   0.514   1.570  0.2128 -2.2289  0.0094
 5435TIP3   OH237795   0.010   5.092  16.043 -0.2061 -0.2231  0.2964
 5435TIP3    H137796   0.064   5.137  15.979  1.8217 -2.1049  0.5555
 5435TIP3    H237797   0.059   5.101  16.126 -0.7589 -1.1409  0.7407
 5436TIP3   OH237798   0.201   4.434  17.029  0.6017  0.0862  0.4856
 5436TIP3    H137799   0.172   4.449  17.119  0.4432 -2.0491  0.8438
 5436TIP3    H237800   0.281   4.381  17.039  1.6878  1.4566 -0.6098
 5437TIP3   OH237801   5.400   6.252  11.629  0.3327 -0.1032  0.1166
 5437TIP3    H137802   5.445   6.178  11.588 -2.1926 -0.7995 -1.6373
 5437TIP3    H237803   5.450   6.328  11.600  0.6204 -0.8446 -1.4920
 5438TIP3   OH237804   2.451   3.917  17.209 -0.2410  0.4225 -0.0664
 5438TIP3    H137805   2.378   3.856  17.221  0.0479  0.5092  2.8132
 5438TIP3    H237806   2.528   3.869  17.239  0.0353  2.0073  2.0492
 5439TIP3   OH237807   1.062   2.951   0.379 -0.1739  0.2255  0.2647
 5439TIP3    H137808   1.038   3.025   0.323  0.6833  1.5025  1.5213
 5439TIP3    H237809   0.984   2.896   0.379 -0.9420  1.2536 -0.4952
 5440TIP3   OH237810   0.871   6.616  13.211 -0.0627 -0.4417  0.1831
 5440TIP3    H137811   0.906   6.595  13.124  2.7337  3.3570  0.1237
 5440TIP3    H237812   0.784   6.652  13.193  0.2053 -0.3194 -0.9786
 5441TIP3   OH237813   1.600   1.382  16.265  0.1418  0.2660  0.1772
 5441TIP3    H137814   1.581   1.473  16.240 -0.9631 -0.6328 -2.5211
 5441TIP3    H237815   1.538   1.363  16.335 -0.1163  1.3417  0.2553
 5442TIP3   OH237816   2.034   3.274   5.312 -0.2572 -0.2000  0.5164
 5442TIP3    H137817   2.005   3.307   5.397  1.2469  0.2983  0.8638
 5442TIP3    H237818   2.083   3.195   5.331 -1.5714 -1.1932 -0.0896
 5443TIP3   OH237819   4.820   4.889  11.066  0.8100  0.4644 -0.0919
 5443TIP3    H137820   4.818   4.860  11.157 -1.4358  0.2110 -0.1838
 5443TIP3    H237821   4.774   4.821  11.017  0.5757  1.3597 -1.1786
 5444TIP3   OH237822   2.040   1.886   2.724  0.2002 -0.2646 -0.1091
 5444TIP3    H137823   2.031   1.945   2.650 -0.1563  0.7019  0.6841
 5444TIP3    H237824   2.126   1.907   2.762  1.8115 -2.8282 -1.9627
 5445TIP3   OH237825   3.912   4.798   5.163  0.1095  0.3496 -0.2774
 5445TIP3    H137826   3.854   4.786   5.087 -1.0870  1.7130  0.3564
 5445TIP3    H237827   3.893   4.887   5.193  0.2949 -0.2665  1.8413
 5446TIP3   OH237828   1.986   3.808   5.916  0.3862  0.6723  0.2120
 5446TIP3    H137829   1.963   3.853   5.997 -1.2674  0.6284 -0.2143
 5446TIP3    H237830   1.904   3.772   5.884  1.6866 -3.5942  1.0211
 5447TIP3   OH237831   1.141   5.239   0.355  0.2549 -0.3844 -0.2711
 5447TIP3    H137832   1.082   5.190   0.412 -0.3604  1.9892  1.2784
 5447TIP3    H237833   1.223   5.245   0.404 -0.2604  1.6238  0.4798
 5448TIP3   OH237834   5.096   3.800   2.564  0.5255 -0.4805 -0.3242
 5448TIP3    H137835   5.038   3.730   2.596 -0.7405  1.5270  2.1289
 5448TIP3    H237836   5.130   3.841   2.644 -0.8268  3.3016 -1.4793
 5449TIP3   OH237837   2.416   3.020   0.468 -0.2203 -0.1683 -0.8082
 5449TIP3    H137838   2.475   3.033   0.543  0.6643 -1.6464 -1.1951
 5449TIP3    H237839   2.451   2.943   0.424 -0.7298  0.6497 -2.7522
 5450TIP3   OH237840   0.828   2.495  12.302 -0.2621 -0.3083  0.3818
 5450TIP3    H137841   0.776   2.508  12.223 -0.2638  0.5308  0.5113
 5450TIP3    H237842   0.859   2.583  12.325  3.6622 -1.0060 -1.3537
 5451TIP3   OH237843   3.119   6.000   2.143 -0.2985  0.2083  0.1070
 5451TIP3    H137844   3.211   6.028   2.138 -0.2137  0.0298  0.6610
 5451TIP3    H237845   3.082   6.054   2.213 -0.7550  0.6548 -0.4651
 5452TIP3   OH237846   5.152   5.125   4.689  0.3203  0.0550  0.6743
 5452TIP3    H137847   5.152   5.035   4.722 -1.6414  0.2911  1.4660
 5452TIP3    H237848   5.245   5.147   4.679  0.8283 -2.3039 -0.3050
 5453TIP3   OH237849   1.436   0.304  15.422 -0.3793  0.2650 -0.1908
 5453TIP3    H137850   1.385   0.224  15.434 -0.7711  0.5362 -0.0563
 5453TIP3    H237851   1.401   0.365  15.486  1.5051 -0.2155  1.3967
 5454TIP3   OH237852   3.464   6.540  15.693  0.1477 -0.1728 -0.0416
 5454TIP3    H137853   3.542   6.591  15.713 -0.0437  0.9767 -1.9264
 5454TIP3    H237854   3.494   6.474  15.630 -0.4057  0.3102 -0.8152
 5455TIP3   OH237855   2.508   2.627   2.101 -0.0174 -0.0956 -0.1374
 5455TIP3    H137856   2.446   2.621   2.174  2.2483  0.5480  1.9506
 5455TIP3    H237857   2.561   2.548   2.108  1.0755  0.6149 -0.2514
 5456TIP3   OH237858   2.380   4.498  10.195 -0.7950 -0.2007 -0.4315
 5456TIP3    H137859   2.426   4.417  10.173  2.1957  0.8546  1.4551
 5456TIP3    H237860   2.410   4.561  10.130  0.3681  0.4398  0.6832
 5457TIP3   OH237861   6.556   3.100  13.961  0.0253  0.5919 -0.2520
 5457TIP3    H137862   6.634   3.046  13.977  0.1794  1.0271  0.5227
 5457TIP3    H237863   6.506   3.093  14.042  0.3039  2.0387  0.0649
 5458TIP3   OH237864   1.390   0.311   0.050  0.2392  0.2972  0.1895
 5458TIP3    H137865   1.460   0.369   0.021  0.0346  0.1115 -0.7118
 5458TIP3    H237866   1.341   0.290  -0.030  0.6210 -1.5270  0.3875
 5459TIP3   OH237867   3.153   5.304  15.573 -0.2295 -0.1027  0.1417
 5459TIP3    H137868   3.163   5.220  15.529  0.5579 -0.9473  1.8421
 5459TIP3    H237869   3.086   5.288  15.640  2.8270 -0.7204  3.3606
 5460TIP3   OH237870   5.428   5.842   2.445  0.0062 -0.6236  0.4288
 5460TIP3    H137871   5.405   5.872   2.533  0.9295 -0.8806  0.7692
 5460TIP3    H237872   5.476   5.760   2.458  1.7164  0.2200 -0.1628
 5461TIP3   OH237873   1.228   3.333   1.090 -0.1569 -0.4673 -0.1019
 5461TIP3    H137874   1.179   3.414   1.075 -1.9096 -1.6127 -0.9003
 5461TIP3    H237875   1.187   3.294   1.167  0.9085 -0.4425  0.4920
 5462TIP3   OH237876   6.389   5.230   0.126 -0.4607 -0.2955 -0.4529
 5462TIP3    H137877   6.322   5.259   0.188 -0.6130  1.1876 -1.2754
 5462TIP3    H237878   6.343   5.169   0.068 -0.4892 -1.1353  0.4243
 5463TIP3   OH237879   5.383   4.672   2.877  0.1218  0.5243  0.2127
 5463TIP3    H137880   5.396   4.579   2.893  2.2713  1.2291  3.6060
 5463TIP3    H237881   5.288   4.685   2.877 -0.2861 -1.7753 -1.9055
 5464TIP3   OH237882   4.901   0.533   3.640  0.7471  0.3748  0.1404
 5464TIP3    H137883   4.888   0.557   3.548 -0.6248 -3.1984 -0.7480
 5464TIP3    H237884   4.993   0.507   3.645  1.2334  1.9992  0.2149
 5465TIP3   OH237885   4.590   4.007  16.620  0.2403  0.1575 -0.4692
 5465TIP3    H137886   4.534   4.082  16.600  0.2110  0.0952 -0.6259
 5465TIP3    H237887   4.581   3.950  16.543 -1.0692 -0.8037  0.3573
 5466TIP3   OH237888   3.395   1.475  11.576  0.6834  0.1832 -0.0128
 5466TIP3    H137889   3.397   1.418  11.653 -2.4748  1.3710  1.1150
 5466TIP3    H237890   3.351   1.424  11.508  1.5755 -0.1149 -0.3861
 5467TIP3   OH237891   0.995   6.369  16.138 -0.1110 -0.3236 -0.0491
 5467TIP3    H137892   1.066   6.410  16.090  1.0926  1.2159  2.7730
 5467TIP3    H237893   1.037   6.302  16.191 -1.2668 -1.4823 -0.5518
 5468TIP3   OH237894   2.198   2.862   0.252 -0.3072 -0.4853  0.0395
 5468TIP3    H137895   2.273   2.809   0.277 -0.2654 -0.4329  0.0239
 5468TIP3    H237896   2.218   2.894   0.164  0.9985  1.9287  1.1055
 5469TIP3   OH237897   5.824   6.014  12.512 -0.3524 -0.1576  0.2479
 5469TIP3    H137898   5.855   6.049  12.429 -1.3702  0.5667  0.1550
 5469TIP3    H237899   5.884   5.941  12.532  1.7059  1.4603  0.3385
 5470TIP3   OH237900   2.049   1.685   6.539  0.5796 -0.4075  0.0682
 5470TIP3    H137901   2.015   1.634   6.466  1.4528 -0.9373  0.0177
 5470TIP3    H237902   2.117   1.741   6.499 -0.2186  0.6623  0.1562
 5471TIP3   OH237903   6.445   5.955   5.074  0.2218  0.0957  0.0278
 5471TIP3    H137904   6.453   5.986   4.983 -2.4890  1.0456 -0.0090
 5471TIP3    H237905   6.526   5.908   5.091  0.5605 -0.7405 -3.1358
 5472TIP3   OH237906   4.028   1.971   2.138  0.0519 -0.1119  0.1423
 5472TIP3    H137907   3.989   1.915   2.071  0.9698  0.2591 -0.7141
 5472TIP3    H237908   3.970   2.046   2.145 -0.8669 -0.8646  0.8728
 5473TIP3   OH237909   5.445   4.450   3.929  0.3244  0.1262  0.2211
 5473TIP3    H137910   5.373   4.485   3.982  1.8773  2.3295  1.0343
 5473TIP3    H237911   5.455   4.360   3.958 -0.7975  0.3760  1.5231
 5474TIP3   OH237912   2.748   5.542  13.009  0.4247  0.8020 -0.0136
 5474TIP3    H137913   2.680   5.483  13.042  0.6087  0.6508  0.1006
 5474TIP3    H237914   2.701   5.619  12.979  0.1316  0.4037 -0.6075
 5475TIP3   OH237915   1.643   0.987  13.700 -0.0341  0.0022  0.2096
 5475TIP3    H137916   1.732   0.975  13.733  0.4941 -1.6556 -1.6002
 5475TIP3    H237917   1.589   0.931  13.756  0.2172  0.1792  0.6355
 5476TIP3   OH237918   5.664   5.037   3.710  0.2978  0.1511 -0.3732
 5476TIP3    H137919   5.613   5.097   3.656 -0.4944 -0.1148  0.0670
 5476TIP3    H237920   5.684   4.964   3.651 -1.7409 -0.7977  0.0048
 5477TIP3   OH237921   4.798   1.130  11.142 -0.0047  0.0751  0.3819
 5477TIP3    H137922   4.804   1.213  11.094 -1.0873  0.6531  1.1748
 5477TIP3    H237923   4.740   1.076  11.089 -0.4067  0.3482  0.5358
 5478TIP3   OH237924   6.621   2.130   1.219 -0.6649  0.3893  0.6964
 5478TIP3    H137925   6.630   2.164   1.129  1.7124  1.4514  1.2689
 5478TIP3    H237926   6.640   2.037   1.211 -1.2449  0.3159  0.0070
 5479TIP3   OH237927   6.233   3.409   6.067  0.6534  0.5315 -0.3020
 5479TIP3    H137928   6.234   3.358   5.986  0.3745 -0.0313  0.0417
 5479TIP3    H237929   6.318   3.390   6.108  1.6404  2.3660 -1.3927
 5480TIP3   OH237930   4.184   3.182   3.642 -0.3114  0.5274  0.2009
 5480TIP3    H137931   4.149   3.187   3.553  0.8216 -3.3115 -0.6214
 5480TIP3    H237932   4.221   3.095   3.648 -0.3855  0.6188  4.5323
 5481TIP3   OH237933   3.890   4.029  14.788 -0.4603  0.4690  0.1754
 5481TIP3    H137934   3.961   4.065  14.841 -1.7345  1.9541  0.9384
 5481TIP3    H237935   3.872   4.095  14.722 -0.9718 -0.0020 -0.1706
 5482TIP3   OH237936   2.406   1.638  17.041 -0.2262 -0.5715 -0.1214
 5482TIP3    H137937   2.418   1.545  17.024 -1.0915 -1.1778  2.2819
 5482TIP3    H237938   2.321   1.644  17.086  0.6480  1.1110  1.4370
 5483TIP3   OH237939   3.148   6.793   4.030  0.5418 -0.1263 -0.0930
 5483TIP3    H137940   3.163   6.714   4.082 -0.0650 -0.5867 -0.6034
 5483TIP3    H237941   3.182   6.772   3.944  2.7880  1.1078  0.4090
 5484TIP3   OH237942   1.601   5.170  13.986 -0.0369  1.1696  0.0457
 5484TIP3    H137943   1.694   5.156  13.968 -0.2296  1.1828 -1.0322
 5484TIP3    H237944   1.592   5.152  14.079  0.5503 -1.4906 -0.3268
 5485TIP3   OH237945   0.732   5.372   1.156 -0.5341 -0.0675 -0.1255
 5485TIP3    H137946   0.740   5.332   1.243  0.3619  0.6839  0.1560
 5485TIP3    H237947   0.796   5.325   1.102 -1.1795 -0.6189 -0.4172
 5486TIP3   OH237948   5.804   1.478  16.149  0.1808 -0.4417  0.5021
 5486TIP3    H137949   5.710   1.458  16.148 -0.0202  0.4945  0.6118
 5486TIP3    H237950   5.815   1.547  16.084  0.6331  0.1932  1.2461
 5487TIP3   OH237951   1.780   2.081  11.676 -0.0929 -0.5803  0.2710
 5487TIP3    H137952   1.865   2.094  11.634 -1.0490 -1.0647 -1.9517
 5487TIP3    H237953   1.773   1.987  11.689  0.0423 -0.4656  1.2284
 5488TIP3   OH237954   6.430   5.458   2.564 -0.1693 -0.9097 -0.5687
 5488TIP3    H137955   6.460   5.457   2.473  1.4551 -2.8611 -0.0721
 5488TIP3    H237956   6.510   5.472   2.616 -0.9830 -0.4095  0.6014
 5489TIP3   OH237957   6.593   5.150  13.432 -0.2231  0.2006 -1.0792
 5489TIP3    H137958   6.641   5.174  13.511 -0.0209  0.0442 -1.1538
 5489TIP3    H237959   6.645   5.185  13.360 -0.7869  0.9834 -1.1092
 5490TIP3   OH237960   3.815   5.624   3.160 -0.5713  0.0399  0.5113
 5490TIP3    H137961   3.863   5.596   3.237  0.3584 -0.6218 -0.2890
 5490TIP3    H237962   3.723   5.620   3.187 -0.4222 -2.4828  0.8854
 5491TIP3   OH237963   0.162   0.130   5.940 -0.2781  0.1210 -0.5180
 5491TIP3    H137964   0.144   0.050   5.989  0.0291 -0.5224 -1.4069
 5491TIP3    H237965   0.077   0.156   5.904 -0.5143  0.6337  0.3983
 5492TIP3   OH237966   4.980   2.721  12.805  0.1587 -0.0313  0.3709
 5492TIP3    H137967   5.031   2.643  12.827  1.4071  0.7420  0.3475
 5492TIP3    H237968   4.911   2.724  12.871  1.2745 -0.1016  1.5921
 5493TIP3   OH237969   2.754   5.662  11.539 -0.0322 -0.2365 -0.0357
 5493TIP3    H137970   2.758   5.755  11.514  1.5462 -0.0563  0.7688
 5493TIP3    H237971   2.794   5.616  11.465  0.5388 -0.1300  0.2041
 5494TIP3   OH237972   1.529   6.114   3.227  0.0793 -0.0541 -0.2447
 5494TIP3    H137973   1.539   6.111   3.322 -1.2159 -0.1467 -0.0987
 5494TIP3    H237974   1.616   6.138   3.194  0.6585 -0.5030  0.9268
 5495TIP3   OH237975   3.698   0.573   0.636 -0.0516  0.0721  0.3530
 5495TIP3    H137976   3.788   0.605   0.632  0.8149 -2.3082 -0.9529
 5495TIP3    H237977   3.659   0.600   0.552 -0.7111  1.3398  1.0260
 5496TIP3   OH237978   6.549   1.581   3.566 -0.5088  0.2073  0.2656
 5496TIP3    H137979   6.578   1.671   3.552 -2.9062  0.8044 -1.7385
 5496TIP3    H237980   6.580   1.533   3.489  1.7718 -1.0644  1.8631
 5497TIP3   OH237981   1.573   2.765  12.707 -0.3599 -0.5192  0.1053
 5497TIP3    H137982   1.649   2.754  12.765 -0.7299 -1.7799  0.3971
 5497TIP3    H237983   1.562   2.859  12.699  2.0911 -0.2665 -1.0825
 5498TIP3   OH237984   6.621   4.124   0.913 -0.3586  0.1226  0.3471
 5498TIP3    H137985   6.690   4.145   0.976  0.2526  1.5774 -0.7452
 5498TIP3    H237986   6.552   4.188   0.931 -0.1393  0.6092 -0.4912
 5499TIP3   OH237987   1.642   4.087  15.515 -0.1215 -0.2136 -0.1984
 5499TIP3    H137988   1.563   4.141  15.526 -0.9200 -0.8924 -2.0908
 5499TIP3    H237989   1.613   3.998  15.535  0.7541 -0.1860  1.2613
 5500TIP3   OH237990   0.934   1.455   5.295  0.4729  0.3673 -0.1057
 5500TIP3    H137991   0.875   1.424   5.363 -0.0461  1.2069 -0.1548
 5500TIP3    H237992   0.891   1.432   5.213  0.1941  0.9797 -0.1416
 5501TIP3   OH237993   2.655   0.966   0.735  0.3962 -0.4410 -0.0285
 5501TIP3    H137994   2.731   0.943   0.681 -0.0112  1.4203 -1.4970
 5501TIP3    H237995   2.692   1.016   0.807  0.5289  1.3181 -1.2694
 5502TIP3   OH237996   6.658   5.092  12.295  0.0260 -0.1351  1.1151
 5502TIP3    H137997   6.699   5.030  12.235 -0.9950 -0.6767  0.9442
 5502TIP3    H237998   6.575   5.115  12.252 -0.1096  0.4969  1.6974
 5503TIP3   OH237999   4.419   5.038   4.855  0.1162  0.1376  0.3370
 5503TIP3    H138000   4.490   4.984   4.819 -0.3501  0.2464 -0.8002
 5503TIP3    H238001   4.463   5.103   4.909  0.7461 -0.8739  1.0559
 5504TIP3   OH238002   1.845   3.099  13.214 -0.1214 -0.0350  0.4376
 5504TIP3    H138003   1.812   3.052  13.138  0.2895 -1.5216  1.1348
 5504TIP3    H238004   1.841   3.035  13.286  0.9747  0.8141  1.3110
 5505TIP3   OH238005   1.498   1.368  11.892  0.0240 -0.0831 -0.1101
 5505TIP3    H138006   1.565   1.395  11.955  0.1370 -1.2387  0.2817
 5505TIP3    H238007   1.418   1.413  11.921  0.1799 -0.2532  0.5965
 5506TIP3   OH238008   3.212   2.996   0.190 -0.1382  0.7835  0.1453
 5506TIP3    H138009   3.308   2.995   0.196  0.1236 -1.7533 -2.3019
 5506TIP3    H238010   3.194   3.056   0.118  0.0381 -1.7274 -2.1568
 5507TIP3   OH238011   5.905   2.543  13.562 -0.8237  0.2913 -0.2288
 5507TIP3    H138012   5.810   2.541  13.575 -0.7645 -1.0811  0.1575
 5507TIP3    H238013   5.940   2.563  13.649 -0.7135 -0.8320 -0.0046
 5508TIP3   OH238014   5.169   2.088   4.038  0.8298  0.4584  0.0705
 5508TIP3    H138015   5.232   2.020   4.062  1.4383  0.1557 -2.1802
 5508TIP3    H238016   5.156   2.137   4.119  2.1756 -0.8849  1.1782
 5509TIP3   OH238017   2.736   2.149  17.101 -0.0936 -0.4836  0.6291
 5509TIP3    H138018   2.701   2.223  17.052  1.8042 -0.4477 -0.7894
 5509TIP3    H238019   2.665   2.124  17.161 -2.0828  0.2326 -1.2919
 5510TIP3   OH238020   4.286   4.205  13.897 -0.4585 -0.2655 -0.1261
 5510TIP3    H138021   4.241   4.132  13.941  0.3218 -0.4612  0.3527
 5510TIP3    H238022   4.253   4.201  13.807 -1.3135 -0.4746  0.1811
 5511TIP3   OH238023   4.927   3.583   5.281 -0.1019  0.5145 -0.0731
 5511TIP3    H138024   4.991   3.640   5.238  0.1764  0.6503  0.5107
 5511TIP3    H238025   4.842   3.624   5.263  0.2187  2.2014  1.9072
 5512TIP3   OH238026   0.184   4.132   3.715 -0.1042 -0.1034 -0.3496
 5512TIP3    H138027   0.208   4.134   3.623  1.3017  0.8383  0.0012
 5512TIP3    H238028   0.243   4.067   3.754 -0.5764 -0.3777 -0.0813
 5513TIP3   OH238029   1.668   6.334  13.773 -0.0698  0.1226 -0.1562
 5513TIP3    H138030   1.616   6.413  13.762 -0.5275 -0.0691  0.5706
 5513TIP3    H238031   1.605   6.262  13.768 -0.2200 -0.0450  2.4861
 5514TIP3   OH238032   0.891   5.989   4.620  0.0909 -0.1584  0.1080
 5514TIP3    H138033   0.844   6.069   4.641  1.1929  0.2809  0.9738
 5514TIP3    H238034   0.892   5.939   4.702 -0.3544 -0.9501 -0.3494
 5515TIP3   OH238035   5.531   1.345   2.498  0.0132 -0.0756  0.1181
 5515TIP3    H138036   5.474   1.268   2.492  1.1994 -1.0525  0.9293
 5515TIP3    H238037   5.615   1.310   2.528  0.5476  1.5526  0.5994
 5516TIP3   OH238038   6.251   0.669  12.027  0.2726 -1.1007 -0.0098
 5516TIP3    H138039   6.175   0.674  12.086 -0.3641  0.2729 -0.8845
 5516TIP3    H238040   6.321   0.633  12.081 -0.9099 -2.1007  0.9182
 5517TIP3   OH238041   0.139   6.438   6.050 -0.1662 -0.2846  0.0046
 5517TIP3    H138042   0.203   6.398   6.109  0.3315 -0.5471 -0.6949
 5517TIP3    H238043   0.113   6.367   5.991 -1.8336 -0.4361  0.8603
 5518TIP3   OH238044   4.336   4.605  12.033 -0.7016  0.7618  0.2465
 5518TIP3    H138045   4.324   4.510  12.036 -0.5523  0.6754 -1.1099
 5518TIP3    H238046   4.274   4.640  12.097  0.0698 -0.3006  1.6292
 5519TIP3   OH238047   2.567   0.015  11.778 -0.4486 -0.2632  0.1632
 5519TIP3    H138048   2.528   0.062  11.704  1.2175  2.1678  0.6826
 5519TIP3    H238049   2.639  -0.034  11.739 -0.0591  0.3918  0.0375
 5520TIP3   OH238050   1.220   4.830  14.041 -0.4242  0.3881 -1.0533
 5520TIP3    H138051   1.170   4.789  13.971 -0.5299 -1.0143 -0.1936
 5520TIP3    H238052   1.154   4.872  14.097 -0.6529 -1.0067 -0.2143
 5521TIP3   OH238053   3.847   1.479   4.185 -0.4062 -0.6974 -0.7134
 5521TIP3    H138054   3.940   1.487   4.205 -0.4930  0.0082 -0.5488
 5521TIP3    H238055   3.843   1.414   4.114  0.0402 -1.9929  0.4145
 5522TIP3   OH238056   0.554   3.185   4.652 -0.5970  0.0040 -0.2184
 5522TIP3    H138057   0.636   3.183   4.702 -0.2623  1.3441 -0.6659
 5522TIP3    H238058   0.539   3.094   4.627  0.4121 -0.3577  0.4172
 5523TIP3   OH238059   1.084   4.776  13.166  0.1578 -0.1618 -0.1465
 5523TIP3    H138060   0.997   4.782  13.128 -0.6163 -0.0485  1.5907
 5523TIP3    H238061   1.091   4.686  13.197  0.8855 -0.3275 -0.7450
 5524TIP3   OH238062   5.262   4.823   1.174  0.3062 -0.2759  0.2695
 5524TIP3    H138063   5.170   4.799   1.189  0.0002 -0.5099 -1.7572
 5524TIP3    H238064   5.306   4.739   1.158  0.9096 -0.1721  1.2923
 5525TIP3   OH238065   5.777   2.062  16.743  0.0484  0.3355 -0.8209
 5525TIP3    H138066   5.720   2.119  16.794 -0.0772  0.6674 -1.3212
 5525TIP3    H238067   5.717   2.002  16.698 -0.0570  1.6603 -2.5538
 5526TIP3   OH238068   2.758   4.377   6.183  0.5373 -0.1331  0.2739
 5526TIP3    H138069   2.672   4.359   6.221  0.0813 -0.9525 -1.0976
 5526TIP3    H238070   2.783   4.462   6.221 -1.6881  1.0380 -0.6831
 5527TIP3   OH238071   0.513   4.893   3.676  0.1630  0.6359  0.1192
 5527TIP3    H138072   0.467   4.820   3.719  0.4698  0.4369  0.1108
 5527TIP3    H238073   0.488   4.970   3.728 -3.1712  1.1921 -2.0245
 5528TIP3   OH238074   5.331   4.699  17.286  0.0291  0.3474  0.7784
 5528TIP3    H138075   5.308   4.613  17.319 -1.5865  0.4303  0.0027
 5528TIP3    H238076   5.359   4.683  17.195 -0.9940  0.6840  0.3853
 5529TIP3   OH238077   5.590   4.135   1.613  0.0852 -0.2868  0.9604
 5529TIP3    H138078   5.546   4.131   1.698  0.5294  0.4632  1.2370
 5529TIP3    H238079   5.546   4.207   1.567  0.2165 -0.3245  0.7763
 5530TIP3   OH238080   4.860   5.950  12.099 -0.1942 -0.3667 -0.2273
 5530TIP3    H138081   4.939   5.946  12.152 -0.2337  0.9120 -0.0410
 5530TIP3    H238082   4.873   6.025  12.042 -0.9326 -0.6335 -0.7682
 5531TIP3   OH238083   5.574   0.554  13.981  0.4361 -0.0262  0.0899
 5531TIP3    H138084   5.608   0.529  14.067  1.2751  0.0800 -0.2001
 5531TIP3    H238085   5.633   0.511  13.919 -0.0262  0.0846 -0.4301
 5532TIP3   OH238086   6.698   2.416  16.652  0.2421 -0.1647 -0.0912
 5532TIP3    H138087   6.714   2.323  16.638  0.4084 -0.5095  2.0864
 5532TIP3    H238088   6.771   2.460  16.608  2.4966 -1.3012  2.2681
 5533TIP3   OH238089   0.681   6.133   1.367 -0.7754 -0.5090 -0.4728
 5533TIP3    H138090   0.759   6.117   1.315 -1.7499 -1.3780 -1.7362
 5533TIP3    H238091   0.709   6.119   1.458  0.5839 -0.5381 -0.8841
 5534TIP3   OH238092   1.547   4.009  14.528  0.0499 -0.0107 -0.5425
 5534TIP3    H138093   1.487   4.014  14.454 -0.2354  0.2678 -0.2948
 5534TIP3    H238094   1.514   4.073  14.591  0.1119 -0.4576 -0.0430
 5535TIP3   OH238095   3.207   6.254  15.716 -0.5932 -0.4151 -0.1970
 5535TIP3    H138096   3.179   6.164  15.700 -1.5309  0.1268 -1.8197
 5535TIP3    H238097   3.295   6.259  15.678 -1.2953 -0.1661 -1.8494
 5536TIP3   OH238098   3.906   5.713   1.620 -0.1425  0.6815  0.3009
 5536TIP3    H138099   3.931   5.630   1.580  1.3655  2.0643 -1.8392
 5536TIP3    H238100   3.980   5.737   1.676 -0.4356  0.7443  0.6675
 5537TIP3   OH238101   1.886   6.062  14.982 -0.5228 -0.3029 -0.5016
 5537TIP3    H138102   1.934   5.983  14.958  1.8948  0.0833  2.4868
 5537TIP3    H238103   1.940   6.134  14.950  0.1201  0.1220  1.3958
 5538TIP3   OH238104   4.255   1.827   6.144  0.0860  0.2239 -0.1902
 5538TIP3    H138105   4.313   1.760   6.108  1.3704  1.5077 -0.5853
 5538TIP3    H238106   4.274   1.906   6.093 -2.0630  0.6769 -0.3688
 5539TIP3   OH238107   4.651   6.452   0.266  0.5240 -0.0409 -0.7697
 5539TIP3    H138108   4.573   6.425   0.217 -0.3063 -1.9838  1.4627
 5539TIP3    H238109   4.622   6.530   0.314  0.9347  1.0438 -2.1936
 5540TIP3   OH238110   0.323   2.824   2.951  0.3698 -0.1279 -0.5792
 5540TIP3    H138111   0.261   2.762   2.911  0.9494 -0.0007 -1.7163
 5540TIP3    H238112   0.296   2.829   3.043  1.2060 -3.2419 -0.0363
 5541TIP3   OH238113   1.004   5.917   2.181 -0.4546  0.6314  0.2325
 5541TIP3    H138114   0.968   5.926   2.093  0.4188  1.5310 -0.0428
 5541TIP3    H238115   0.970   5.833   2.212  0.0054 -0.1613 -1.3243
 5542TIP3   OH238116   0.423   6.655  11.861 -0.0631 -0.2328  1.0330
 5542TIP3    H138117   0.411   6.596  11.787 -0.6182  0.9852  0.1156
 5542TIP3    H238118   0.479   6.725  11.827 -0.4182  0.4011  1.7162
 5543TIP3   OH238119   0.538   6.214   1.140 -0.0634  0.0560 -0.6837
 5543TIP3    H138120   0.592   6.204   1.218 -1.0126 -2.2254 -0.2206
 5543TIP3    H238121   0.452   6.242   1.174 -1.1072 -2.9493 -0.5514
 5544TIP3   OH238122   6.625   6.245   2.493  0.7173 -0.6191 -0.2963
 5544TIP3    H138123   6.610   6.188   2.569  1.2537 -0.7001 -0.2485
 5544TIP3    H238124   6.554   6.309   2.497  1.9865  0.7709  1.5928
 5545TIP3   OH238125   1.802   0.436  16.198 -0.2027  0.0394 -0.3173
 5545TIP3    H138126   1.791   0.341  16.189 -0.5144  0.1723 -1.4600
 5545TIP3    H238127   1.835   0.447  16.287 -0.7554 -1.0945  0.0593
 5546TIP3   OH238128   5.096   6.483  17.100 -0.2197  0.1119 -0.1805
 5546TIP3    H138129   5.158   6.448  17.164 -0.5463 -0.0516  0.0523
 5546TIP3    H238130   5.036   6.536  17.152  0.1027  0.7952 -0.4938
 5547TIP3   OH238131   3.821   3.228   3.080  0.3742  0.4655  0.2279
 5547TIP3    H138132   3.873   3.152   3.053 -2.4675 -1.4474 -0.2933
 5547TIP3    H238133   3.836   3.293   3.011  0.0178 -1.0634 -1.3618
 5548TIP3   OH238134   5.645   1.612  13.477 -0.1075  0.2858  0.3672
 5548TIP3    H138135   5.684   1.586  13.560 -1.8903  1.3788  1.6391
 5548TIP3    H238136   5.719   1.623  13.417  1.0599 -2.8880  1.0425
 5549TIP3   OH238137   5.911   1.285  11.180  0.0335  0.5721 -0.3880
 5549TIP3    H138138   5.895   1.380  11.176  0.2260  0.5854 -0.9754
 5549TIP3    H238139   5.972   1.274  11.252 -0.4381  0.8303  0.0602
 5550TIP3   OH238140   1.417   3.435  12.184 -0.2373  0.0189  0.2712
 5550TIP3    H138141   1.441   3.456  12.094  0.6574  0.1542  0.5433
 5550TIP3    H238142   1.474   3.489  12.239 -2.2032  1.5476  0.9424
 5551TIP3   OH238143   1.342   3.935  12.342  0.6447 -0.7059 -0.7549
 5551TIP3    H138144   1.266   3.890  12.305  0.7036 -1.2696 -0.2078
 5551TIP3    H238145   1.314   3.965  12.428  1.1634 -1.2888 -0.3724
 5552TIP3   OH238146   2.752   3.587  15.561  0.4640 -0.3115 -0.4581
 5552TIP3    H138147   2.684   3.527  15.531  0.6895 -2.1829  2.4050
 5552TIP3    H238148   2.707   3.649  15.617  0.6500  0.6179 -1.3036
 5553TIP3   OH238149   2.103   6.812  12.721 -0.3867  0.4240 -0.1398
 5553TIP3    H138150   2.044   6.887  12.724 -0.4207  0.3486  1.8271
 5553TIP3    H238151   2.189   6.850  12.704 -0.9593  0.4868 -3.6936
 5554TIP3   OH238152   5.062   3.315  15.220 -0.5170 -0.4758 -0.4945
 5554TIP3    H138153   5.067   3.244  15.285  0.3772 -1.2788 -1.4025
 5554TIP3    H238154   5.018   3.386  15.266  2.2859 -0.0755  1.8595
 5555TIP3   OH238155   0.122   4.518   0.921 -0.3463  0.1249 -0.6153
 5555TIP3    H138156   0.028   4.518   0.905 -0.8613 -1.5216  1.9312
 5555TIP3    H238157   0.133   4.563   1.005  1.2841  1.1570 -1.3151
 5556TIP3   OH238158   0.129   5.524  15.803 -0.3304  0.1552 -0.1866
 5556TIP3    H138159   0.134   5.552  15.894  2.6033  0.6329 -0.3870
 5556TIP3    H238160   0.092   5.599  15.756 -0.3897  0.5083  0.4231
 5557TIP3   OH238161   1.979   3.167   4.640 -0.5478  0.4052  0.3950
 5557TIP3    H138162   1.950   3.092   4.692  1.9440 -1.9734 -1.3228
 5557TIP3    H238163   1.928   3.162   4.559 -0.1917  0.3877  0.1674
 5558TIP3   OH238164   4.231   2.149  11.279 -0.3271  0.7606  0.4414
 5558TIP3    H138165   4.276   2.111  11.354 -0.3183  1.0928  0.6044
 5558TIP3    H238166   4.283   2.225  11.255  0.2399  0.0926 -0.5413
 5559TIP3   OH238167   0.285   6.052   1.331  0.1706 -0.4698  0.0945
 5559TIP3    H138168   0.313   6.141   1.311 -0.2799 -0.3507 -0.0113
 5559TIP3    H238169   0.265   6.014   1.245 -1.8486  0.0672  0.2936
 5560TIP3   OH238170   2.204   6.729   5.514 -0.0885  0.5117 -0.2783
 5560TIP3    H138171   2.276   6.740   5.576  1.9137  1.8158 -2.6295
 5560TIP3    H238172   2.135   6.786   5.547  0.0183 -0.4841  1.8393
 5561TIP3   OH238173   2.962   5.472   6.547 -0.3804 -0.1958 -0.1901
 5561TIP3    H138174   3.048   5.432   6.532 -0.5381 -0.2594 -0.9502
 5561TIP3    H238175   2.978   5.539   6.613  0.1164 -0.6848  0.2002
 5562TIP3   OH238176   4.692   6.234   3.674  0.2311 -0.1131 -0.2058
 5562TIP3    H138177   4.765   6.237   3.612 -1.3679 -0.5983 -2.2149
 5562TIP3    H238178   4.646   6.316   3.662 -0.9067 -0.8051 -0.7317
 5563TIP3   OH238179   2.893   3.185   2.013 -0.5611 -0.3114  0.3415
 5563TIP3    H138180   2.945   3.104   2.014 -0.1237 -0.0278  1.1952
 5563TIP3    H238181   2.956   3.254   2.035 -1.1979  0.1045  0.8858
 5564TIP3   OH238182   5.359   1.582  15.256  0.5317  0.3656 -0.4508
 5564TIP3    H138183   5.353   1.567  15.162 -2.1903  0.2798 -0.3485
 5564TIP3    H238184   5.271   1.564  15.289  0.7461  2.7197  1.7642
 5565TIP3   OH238185   1.686   4.320  16.099 -0.2766  0.7831 -0.3901
 5565TIP3    H138186   1.741   4.358  16.167  0.9508 -0.3959 -0.6791
 5565TIP3    H238187   1.671   4.230  16.129  1.6795 -0.3130 -2.4013
 5566TIP3   OH238188   4.861   4.374  14.337 -0.0190 -0.1198 -0.7052
 5566TIP3    H138189   4.895   4.442  14.279 -0.0332  1.3839  0.9533
 5566TIP3    H238190   4.883   4.292  14.293  3.1080  0.8276 -1.2031
 5567TIP3   OH238191   3.195   5.158   5.387 -0.0788  0.5828  0.0246
 5567TIP3    H138192   3.162   5.200   5.308  0.0287 -0.0292 -0.3525
 5567TIP3    H238193   3.117   5.126   5.432 -0.0349 -1.2717 -1.0940
 5568TIP3   OH238194   5.184   4.004  12.419 -0.2295  0.0179  0.9111
 5568TIP3    H138195   5.164   3.943  12.348 -1.2310 -0.0985  1.2809
 5568TIP3    H238196   5.279   3.998  12.429  0.2348  1.4621 -1.6861
 5569TIP3   OH238197   3.238   6.346  16.024  0.2069  0.3157 -0.3141
 5569TIP3    H138198   3.211   6.277  15.962  0.8362  0.0877 -0.3386
 5569TIP3    H238199   3.158   6.397  16.038  0.0089  0.2707 -1.1857
 5570TIP3   OH238200   2.146   6.433  14.322 -0.2393 -0.2710 -0.3806
 5570TIP3    H138201   2.198   6.512  14.336 -0.5099 -0.3756  1.3876
 5570TIP3    H238202   2.088   6.428  14.398 -1.4795 -1.2175 -1.3417
 5571TIP3   OH238203   0.315   5.655  16.863  0.0768 -0.2852 -0.1641
 5571TIP3    H138204   0.353   5.715  16.799 -0.0868  1.4107  1.2406
 5571TIP3    H238205   0.221   5.658  16.846 -0.0908  1.0670  0.8188
 5572TIP3   OH238206   0.552   3.497   2.526  0.5159  0.1092  0.6160
 5572TIP3    H138207   0.584   3.478   2.438 -1.3841  0.8100 -0.2888
 5572TIP3    H238208   0.547   3.593   2.529 -0.7699  0.0484  0.9547
 5573TIP3   OH238209   5.347   3.800  15.108 -0.1770  0.0841  0.4600
 5573TIP3    H138210   5.274   3.739  15.099  1.7889 -2.4917  0.7791
 5573TIP3    H238211   5.370   3.823  15.018 -1.2452  0.8260  0.3537
 5574TIP3   OH238212   4.075   6.078  15.542 -0.5708 -0.1232  0.0355
 5574TIP3    H138213   4.019   6.024  15.486 -4.0447 -0.5793  3.5113
 5574TIP3    H238214   4.060   6.168  15.513 -1.6653 -0.4044 -0.2937
 5575TIP3   OH238215   6.269   0.419  13.966 -0.6759  0.1622 -0.2081
 5575TIP3    H138216   6.298   0.498  14.011 -0.0665  0.4014 -1.0089
 5575TIP3    H238217   6.309   0.348  14.017  0.9808  0.4691 -0.9955
 5576TIP3   OH238218   0.054   5.588  16.931 -0.1818 -0.3032 -0.8039
 5576TIP3    H138219   0.012   5.670  16.906 -1.1696 -0.4620  0.2505
 5576TIP3    H238220   0.014   5.566  17.015  0.3084 -1.6998 -0.9198
 5577TIP3   OH238221   6.762   4.076   5.704  0.0110  0.6752 -0.6433
 5577TIP3    H138222   6.729   4.003   5.652 -0.9151 -0.1062  0.9451
 5577TIP3    H238223   6.857   4.068   5.699 -0.0662  0.2503 -1.6736
 5578TIP3   OH238224   0.910   3.815   1.778  0.0605 -0.0960  0.0392
 5578TIP3    H138225   0.958   3.820   1.860  0.5447  0.4664 -0.2756
 5578TIP3    H238226   0.832   3.764   1.799  1.2237 -1.8281  0.3577
 5579TIP3   OH238227   1.555   4.078   4.606 -0.2972  0.7344 -0.0456
 5579TIP3    H138228   1.475   4.100   4.653  0.3124  0.4447  1.1679
 5579TIP3    H238229   1.529   4.012   4.543 -1.1418  1.1695 -0.1629
 5580TIP3   OH238230   0.108   4.015  12.292  0.4207  0.1195 -0.1737
 5580TIP3    H138231   0.185   3.960  12.302  0.0246 -0.6074 -0.9562
 5580TIP3    H238232   0.134   4.100  12.327  0.9054 -0.6574  1.4641
 5581TIP3   OH238233   6.460   3.267  15.535  0.1455 -0.2864 -0.0960
 5581TIP3    H138234   6.533   3.210  15.560  1.0856  1.0977  0.4380
 5581TIP3    H238235   6.397   3.259  15.606  1.0808  0.6737  0.8763
 5582TIP3   OH238236   6.107   0.609   5.101  0.9527 -0.1440 -0.2031
 5582TIP3    H138237   6.159   0.604   5.021  1.2191 -1.7207  0.0258
 5582TIP3    H238238   6.133   0.530   5.150 -2.5612 -1.7363 -0.6257
 5583TIP3   OH238239   0.273   6.304   6.233  0.3502 -0.7014  0.1524
 5583TIP3    H138240   0.344   6.361   6.262 -1.2751  0.4424  2.2039
 5583TIP3    H238241   0.316   6.222   6.209  2.5320  0.6001 -0.6314
 5584TIP3   OH238242   1.301   1.190  12.910 -0.5153  0.2727  0.1423
 5584TIP3    H138243   1.265   1.213  12.824 -0.8759  0.8750  0.4443
 5584TIP3    H238244   1.302   1.273  12.958 -1.7260 -0.3108  1.2305
 5585TIP3   OH238245   2.552   5.302  12.079  0.2459 -0.0943 -0.1646
 5585TIP3    H138246   2.607   5.255  12.142  1.6795  1.2225 -0.3558
 5585TIP3    H238247   2.595   5.388  12.070 -1.6439  0.8514 -0.6350
 5586TIP3   OH238248   5.601   2.433   1.119  0.5707 -0.2915 -0.1901
 5586TIP3    H138249   5.524   2.461   1.071  2.8501  0.8498 -3.5821
 5586TIP3    H238250   5.605   2.338   1.106 -0.7323 -0.5389  0.9592
 5587TIP3   OH238251   6.086   4.119  11.674 -0.1114  0.2902 -0.2234
 5587TIP3    H138252   6.110   4.080  11.759  1.1837  0.8982 -0.2750
 5587TIP3    H238253   6.106   4.050  11.610  1.2032  0.6286 -0.2224
 5588TIP3   OH238254   6.819   3.705   3.390  0.8044  0.3076  0.6001
 5588TIP3    H138255   6.882   3.663   3.449 -0.5227 -1.1102  1.0840
 5588TIP3    H238256   6.788   3.782   3.438  1.5403  0.5415  0.7046
 5589TIP3   OH238257   1.400   0.986   0.359  0.9191 -0.4575  0.8012
 5589TIP3    H138258   1.305   0.979   0.364  0.7245 -0.7568 -1.7473
 5589TIP3    H238259   1.432   0.903   0.394  0.4402  0.5218  3.8389
 5590TIP3   OH238260   6.800   2.446  12.195  0.0353 -0.0415  0.6681
 5590TIP3    H138261   6.791   2.371  12.254  0.4532  0.6975  1.6933
 5590TIP3    H238262   6.715   2.453  12.151 -0.8195  0.3321  2.3131
 5591TIP3   OH238263   1.402   0.136   0.249  0.4188 -0.2779  0.3031
 5591TIP3    H138264   1.401   0.176   0.162  1.4310  0.8211  0.7744
 5591TIP3    H238265   1.310   0.125   0.272  0.1379  0.4909 -0.4247
 5592TIP3   OH238266   0.085   3.566   1.991 -0.4323  0.1892  0.0117
 5592TIP3    H138267   0.150   3.580   1.922  0.1549 -3.1369 -0.2642
 5592TIP3    H238268   0.024   3.503   1.954 -0.3452 -1.3830  2.3088
 5593TIP3   OH238269   6.340   6.284   3.774  0.0739 -0.0883  0.3815
 5593TIP3    H138270   6.352   6.258   3.865  1.2920  2.4365  1.0489
 5593TIP3    H238271   6.277   6.356   3.778  1.5023  1.2785 -0.4953
 5594TIP3   OH238272   4.619   3.309  11.438 -0.0817 -0.6745  0.4998
 5594TIP3    H138273   4.574   3.294  11.521 -0.4211  1.0274  0.6691
 5594TIP3    H238274   4.656   3.397  11.447 -1.3977  0.1925 -1.7018
 5595TIP3   OH238275   0.452   2.101  10.646  0.5127  0.2585 -0.1738
 5595TIP3    H138276   0.514   2.057  10.705  1.3480  0.5844 -0.7827
 5595TIP3    H238277   0.433   2.184  10.689  0.9952  0.4261 -0.2740
 5596TIP3   OH238278   2.822   4.098  16.216  0.3252  0.4336  0.1218
 5596TIP3    H138279   2.739   4.050  16.208 -0.5272  2.1362 -3.5452
 5596TIP3    H238280   2.795   4.189  16.225  1.8625  0.8053  1.1946
 5597TIP3   OH238281   6.693   3.683  13.071 -0.1517  0.2516  0.5887
 5597TIP3    H138282   6.687   3.779  13.078 -2.7115  0.0359  4.1535
 5597TIP3    H238283   6.763   3.660  13.132 -0.4505 -0.1710  0.7764
 5598TIP3   OH238284   3.639   1.920  12.690 -0.1345 -0.3055  0.0641
 5598TIP3    H138285   3.591   1.872  12.623 -4.5924 -0.6652  3.0788
 5598TIP3    H238286   3.635   2.012  12.662 -2.3807 -0.3828 -0.0178
 5599TIP3   OH238287   2.022   5.919  11.565 -0.0789  0.5083 -0.4136
 5599TIP3    H138288   2.032   5.836  11.612 -0.1271  1.4341  1.3117
 5599TIP3    H238289   2.044   5.986  11.630 -0.5662  1.8757 -1.6085
 5600TIP3   OH238290   0.591   2.051  12.422 -0.5739 -0.1806  0.3306
 5600TIP3    H138291   0.654   2.120  12.441 -1.3036  0.2161  1.3634
 5600TIP3    H238292   0.516   2.070  12.478 -0.7359 -1.8980  0.7430
 5601TIP3   OH238293   2.495   6.795   4.367 -0.1678 -0.7348  0.1001
 5601TIP3    H138294   2.416   6.770   4.318 -0.9410  1.3822  0.1342
 5601TIP3    H238295   2.482   6.757   4.454 -2.3153  1.3247  0.8135
 5602TIP3   OH238296   4.495   2.298  15.141  0.2475 -0.4967  0.3550
 5602TIP3    H138297   4.577   2.345  15.125  0.1104 -0.3639  0.0410
 5602TIP3    H238298   4.521   2.222  15.193  0.8513 -1.5119 -1.3587
 5603TIP3   OH238299   2.361   3.432  12.185  0.1680 -0.6552 -0.3371
 5603TIP3    H138300   2.313   3.494  12.240 -1.3689 -1.6499 -0.4781
 5603TIP3    H238301   2.302   3.416  12.111  0.2127 -2.7749  0.0337
 5604TIP3   OH238302   2.091   3.322   0.601 -0.1575  0.5649  0.1521
 5604TIP3    H138303   2.094   3.232   0.634  0.0789  0.4251 -0.2507
 5604TIP3    H238304   2.002   3.332   0.566 -0.1104  0.4172 -0.0081
 5605TIP3   OH238305   3.471   2.801  11.373  0.1778  0.1399  0.4411
 5605TIP3    H138306   3.395   2.844  11.411 -0.3836  1.1316 -1.6250
 5605TIP3    H238307   3.544   2.859  11.393  0.3536 -0.6150  2.0914
 5606TIP3   OH238308   0.180   4.023   1.093 -0.6025  0.3981  0.3792
 5606TIP3    H138309   0.138   4.102   1.060 -0.1531  0.9438  1.0942
 5606TIP3    H238310   0.273   4.045   1.096  0.0071 -1.2469 -2.5419
 5607TIP3   OH238311   4.528   2.672  16.559  0.0640 -0.1791 -1.3520
 5607TIP3    H138312   4.479   2.750  16.536 -2.3739 -1.4045 -0.6423
 5607TIP3    H238313   4.518   2.613  16.484  2.3161  0.3042 -2.1051
 5608TIP3   OH238314   4.813   3.702  16.415 -0.2350  0.0253  0.3568
 5608TIP3    H138315   4.864   3.719  16.495 -0.5555 -0.2374  0.6230
 5608TIP3    H238316   4.809   3.786  16.370  0.7877 -0.0361  0.1206
 5609TIP3   OH238317   5.831   4.863  17.009  0.2741  0.0344 -0.4776
 5609TIP3    H138318   5.780   4.789  16.978 -0.6542  0.3055  0.3663
 5609TIP3    H238319   5.875   4.832  17.088  0.6379  0.0977 -0.6533
 5610TIP3   OH238320   4.925   4.887   3.624 -0.2318  0.2690  0.9149
 5610TIP3    H138321   4.992   4.879   3.692 -0.5710  0.8730  1.3253
 5610TIP3    H238322   4.932   4.806   3.574  0.1025 -0.1314  1.5996
 5611TIP3   OH238323   1.497   2.540  10.592  0.4772 -0.1097 -0.1866
 5611TIP3    H138324   1.432   2.503  10.532  2.1152  0.1657 -2.2725
 5611TIP3    H238325   1.573   2.482  10.583  1.0892  0.4923  0.9161
 5612TIP3   OH238326   5.222   5.042  11.831  0.4984 -0.4826  0.0721
 5612TIP3    H138327   5.166   5.119  11.825  1.0612 -0.1651 -2.0903
 5612TIP3    H238328   5.305   5.074  11.867 -0.2685 -0.7329  2.1689
 5613TIP3   OH238329   2.774   3.663   6.217 -0.4811  0.2110 -0.5051
 5613TIP3    H138330   2.747   3.686   6.129 -1.4569  0.0001 -0.2731
 5613TIP3    H238331   2.825   3.583   6.207 -0.5447  0.2177 -0.8863
 5614TIP3   OH238332   4.416   1.871  15.944  0.1405 -0.2141 -0.2958
 5614TIP3    H138333   4.382   1.840  15.860 -0.7472  0.8029 -0.3358
 5614TIP3    H238334   4.379   1.811  16.009 -1.6317  0.7225 -0.3634
 5615TIP3   OH238335   2.007   5.698   5.977  0.2870 -0.2666 -0.4178
 5615TIP3    H138336   2.091   5.672   5.940  0.9571  2.8928 -1.3368
 5615TIP3    H238337   1.946   5.630   5.948  2.3405 -2.2926 -0.2569
 5616TIP3   OH238338   2.064   4.245  17.224  0.2584 -0.2770 -0.1726
 5616TIP3    H138339   2.042   4.217  17.313  0.1179 -0.2505 -0.1990
 5616TIP3    H238340   2.152   4.281  17.231 -0.3437  1.1532  0.2579
 5617TIP3   OH238341   1.845   1.427   4.190  0.6957  0.1649 -0.9141
 5617TIP3    H138342   1.939   1.414   4.202  0.9363  1.9513 -0.5570
 5617TIP3    H238343   1.825   1.381   4.108  1.7021 -0.9056 -0.5892
 5618TIP3   OH238344   4.500   5.005  16.996 -0.1252  0.3392  0.5233
 5618TIP3    H138345   4.493   5.044  16.908  0.7117  0.3170  0.4450
 5618TIP3    H238346   4.531   4.916  16.980  0.0605  0.3464  0.8443
 5619TIP3   OH238347   2.322   2.099   3.393  0.6646 -0.1503 -0.7588
 5619TIP3    H138348   2.292   2.019   3.351 -1.1075  0.7037 -1.2285
 5619TIP3    H238349   2.372   2.069   3.469  1.4909 -1.6857 -1.8587
 5620TIP3   OH238350   1.274   0.493  14.129 -0.0298  0.0288  0.2351
 5620TIP3    H138351   1.324   0.526  14.204  2.5120 -1.0221 -0.8667
 5620TIP3    H238352   1.184   0.488  14.160  0.2548  3.1524  2.0107
 5621TIP3   OH238353   1.692   2.411   5.959  0.2202 -0.1090  0.2763
 5621TIP3    H138354   1.635   2.336   5.971 -0.3567  0.3296  0.3435
 5621TIP3    H238355   1.749   2.386   5.887 -1.3123  0.1526 -1.0918
 5622TIP3   OH238356   5.729   5.945   0.741 -0.1706  0.0849 -0.3236
 5622TIP3    H138357   5.718   5.969   0.834  0.3718 -3.4835  0.8093
 5622TIP3    H238358   5.640   5.950   0.705 -0.6594 -0.0430  0.8097
 5623TIP3   OH238359   1.481   4.961   1.395  0.0398 -0.7618  0.9690
 5623TIP3    H138360   1.535   4.964   1.316  1.6194  0.1516  2.0120
 5623TIP3    H238361   1.477   4.868   1.417  2.0039 -0.8229  1.3198
 5624TIP3   OH238362   1.344   4.762  15.272  0.1796  0.2149  0.3926
 5624TIP3    H138363   1.298   4.771  15.189 -0.7527 -0.3441  0.8360
 5624TIP3    H238364   1.415   4.826  15.267  0.5481 -0.2744 -1.0978
 5625TIP3   OH238365   0.403   5.359   0.070  0.0145  0.9359 -0.1748
 5625TIP3    H138366   0.339   5.402   0.012 -0.7023  0.0359 -0.0722
 5625TIP3    H238367   0.418   5.274   0.030  0.9818  1.0495 -0.0596
 5626TIP3   OH238368   2.761   5.885  14.000 -0.3345 -0.2572  0.2128
 5626TIP3    H138369   2.814   5.959  14.031 -0.9587 -0.2951  1.4097
 5626TIP3    H238370   2.672   5.921  13.993 -0.2652 -0.3195 -1.3470
 5627TIP3   OH238371   3.305   5.474   3.276  0.6757  0.5178 -0.0515
 5627TIP3    H138372   3.338   5.416   3.345 -1.5904  0.1723  0.8157
 5627TIP3    H238373   3.289   5.416   3.202 -0.5207  0.1896  0.4423
 5628TIP3   OH238374   3.249   4.865  12.738  0.2692  0.5111  0.1943
 5628TIP3    H138375   3.267   4.820  12.820  0.5714 -1.0726 -0.7090
 5628TIP3    H238376   3.281   4.806  12.670 -0.0928  1.7231 -1.0843
 5629TIP3   OH238377   2.420   6.740  17.101 -0.5426 -0.4415 -0.0513
 5629TIP3    H138378   2.352   6.802  17.128  1.2964  0.8432  1.9574
 5629TIP3    H238379   2.399   6.720  17.010 -0.9956  3.5668 -1.0205
 5630TIP3   OH238380   2.978   5.239   3.890 -0.3129 -0.1319  0.8710
 5630TIP3    H138381   3.029   5.291   3.951  1.3846 -0.6727 -0.0431
 5630TIP3    H238382   2.903   5.209   3.942  0.0718  0.9775  2.1336
 5631TIP3   OH238383   1.161   4.201  15.850 -0.4904  0.5315  0.5938
 5631TIP3    H138384   1.240   4.153  15.875 -0.0993  1.3978  1.0723
 5631TIP3    H238385   1.095   4.133  15.836  0.8794 -0.4077 -2.0103
 5632TIP3   OH238386   3.573   0.398   4.050  0.1354  0.0843 -0.0611
 5632TIP3    H138387   3.541   0.411   4.139 -0.0661  2.0393 -0.3802
 5632TIP3    H238388   3.668   0.385   4.060  0.2331  1.0625  0.4064
 5633TIP3   OH238389   2.965   5.258  12.308 -0.5378  0.2460  0.0171
 5633TIP3    H138390   2.963   5.316  12.384  0.4064  0.7734 -0.3454
 5633TIP3    H238391   2.985   5.316  12.234  2.1403 -0.7353 -0.1286
 5634TIP3   OH238392   5.640   2.698  16.693  0.0912  0.5052 -0.2027
 5634TIP3    H138393   5.544   2.695  16.694  0.1286 -1.9980  0.1551
 5634TIP3    H238394   5.662   2.782  16.734 -1.9198  0.7693  0.4211
 5635TIP3   OH238395   6.679   3.562  15.328 -0.2085  0.4147  0.2370
 5635TIP3    H138396   6.747   3.590  15.266  0.1790 -0.7865  0.1094
 5635TIP3    H238397   6.662   3.640  15.381  1.9293  0.4859  0.8890
 5636TIP3   OH238398   6.583   0.214  15.534 -0.1417  0.5909 -0.6027
 5636TIP3    H138399   6.567   0.123  15.509 -0.5716  0.6466 -0.5417
 5636TIP3    H238400   6.674   0.216  15.563 -0.3029  0.0588 -0.0490
 5637TIP3   OH238401   6.804   1.192   3.487 -0.4719 -0.4652 -0.0019
 5637TIP3    H138402   6.753   1.134   3.431  1.5671 -1.8447 -0.5462
 5637TIP3    H238403   6.766   1.181   3.574 -1.9133 -0.4044 -0.6027
 5638TIP3   OH238404   5.932   4.577  15.850 -0.4576  0.6163  0.1428
 5638TIP3    H138405   6.023   4.553  15.865 -0.9877 -0.5322  1.7348
 5638TIP3    H238406   5.919   4.654  15.905 -0.9905 -0.4913  1.6228
 5639TIP3   OH238407   4.325   4.180  10.613  0.3349 -0.0193 -0.0447
 5639TIP3    H138408   4.343   4.268  10.579 -0.0221  0.2244  0.3943
 5639TIP3    H238409   4.401   4.129  10.585 -0.1033  0.0766 -1.5192
 5640TIP3   OH238410   1.520   1.012  13.475 -0.0265 -0.3773  0.2119
 5640TIP3    H138411   1.547   1.007  13.567 -2.4523  0.7134  1.0806
 5640TIP3    H238412   1.573   1.082  13.437  1.3073 -1.1325  0.6360
 5641TIP3   OH238413   3.729   5.352   2.983 -0.6373 -0.0898 -0.1338
 5641TIP3    H138414   3.638   5.360   2.954 -0.3690  2.3322 -0.5169
 5641TIP3    H238415   3.769   5.435   2.959  0.9592  0.0293  2.5450
 5642TIP3   OH238416   1.838   1.667   3.093 -0.4347  0.1160 -0.1802
 5642TIP3    H138417   1.802   1.579   3.088  1.8359 -0.8833 -0.1720
 5642TIP3    H238418   1.876   1.682   3.006 -0.4461  0.9217 -0.0517
 5643TIP3   OH238419   0.382   6.599  17.258  0.1387  0.0435 -0.3131
 5643TIP3    H138420   0.420   6.636  17.178  2.6297 -0.2713  0.6414
 5643TIP3    H238421   0.313   6.661  17.283 -0.9129  0.0055 -2.7900
 5644TIP3   OH238422   3.985   0.026  10.413 -0.4858 -0.0198 -0.0194
 5644TIP3    H138423   4.049  -0.002  10.479 -2.3172 -0.8743  1.4637
 5644TIP3    H238424   3.927  -0.050  10.403 -0.5876  0.3050 -2.2288
 5645TIP3   OH238425   0.266   0.405  16.314 -0.0619  0.3680 -0.0194
 5645TIP3    H138426   0.215   0.458  16.375 -1.6025 -0.7082 -0.3301
 5645TIP3    H238427   0.346   0.455  16.300 -1.0276  2.1078  0.4612
 5646TIP3   OH238428   4.158   2.168   5.589  0.0235 -0.0034 -0.3574
 5646TIP3    H138429   4.217   2.143   5.518 -0.7690  1.8493 -1.7905
 5646TIP3    H238430   4.133   2.086   5.631  2.2104 -0.9571 -0.8303
 5647TIP3   OH238431   1.149   2.762   1.649 -0.8839 -0.2041  0.3276
 5647TIP3    H138432   1.106   2.677   1.653 -0.4611 -0.3709  1.8178
 5647TIP3    H238433   1.240   2.744   1.671  0.0174  0.1566 -2.7169
 5648TIP3   OH238434   5.830   1.757  16.059 -0.2515  0.0505  0.6224
 5648TIP3    H138435   5.768   1.821  16.025 -0.5068  0.8119  2.4372
 5648TIP3    H238436   5.828   1.768  16.154  0.0387 -2.3445  0.9802
 5649TIP3   OH238437   3.943   5.681  13.876 -0.7217 -0.5120  0.0956
 5649TIP3    H138438   3.866   5.734  13.894 -1.4936 -1.7133  0.4362
 5649TIP3    H238439   3.930   5.648  13.787 -0.8670 -1.1514  0.3515
 5650TIP3   OH238440   5.054   3.270   4.251  0.1900 -0.7582 -0.3385
 5650TIP3    H138441   5.023   3.236   4.335  0.4850 -1.6265 -0.5790
 5650TIP3    H238442   5.095   3.354   4.274 -0.8365 -0.3926  0.2028
 5651TIP3   OH238443   4.085   3.067   2.238 -0.5495 -0.0851 -1.0444
 5651TIP3    H138444   4.139   3.088   2.315 -1.4609 -1.0851 -0.1053
 5651TIP3    H238445   4.012   3.016   2.273 -0.1556 -1.9764 -2.7793
 5652TIP3   OH238446   4.848   6.788  11.426  0.4434 -0.4014 -0.7129
 5652TIP3    H138447   4.763   6.744  11.435  0.3795 -0.5414 -1.8709
 5652TIP3    H238448   4.904   6.722  11.386  0.8276  0.0263 -0.8801
 5653TIP3   OH238449   1.747   1.759   5.587 -0.3505 -0.9422 -0.3315
 5653TIP3    H138450   1.768   1.679   5.636  0.2156 -1.9180 -2.0937
 5653TIP3    H238451   1.799   1.753   5.507  2.7561  3.0404  1.0482
 5654TIP3   OH238452   5.917   0.926   2.318 -0.0227 -0.5012 -0.4197
 5654TIP3    H138453   5.899   0.919   2.224 -0.9399 -1.1712 -0.2045
 5654TIP3    H238454   5.904   0.838   2.352  0.5851 -0.3235  0.3008
 5655TIP3   OH238455   6.681   1.622   0.415  0.2567 -0.5820  0.0831
 5655TIP3    H138456   6.670   1.603   0.508  1.4805  1.4955  0.7262
 5655TIP3    H238457   6.734   1.549   0.382  1.5781 -0.3413  1.5371
 5656TIP3   OH238458   4.178   0.247   5.504  0.2839  0.3038  0.4650
 5656TIP3    H138459   4.199   0.266   5.595  0.0075  1.1788  0.3607
 5656TIP3    H238460   4.118   0.317   5.478  0.6065  0.2559 -0.4784
 5657TIP3   OH238461   0.233   3.592  14.324  0.2595 -0.7345 -0.4278
 5657TIP3    H138462   0.159   3.553  14.277 -1.4107 -3.2532  3.7101
 5657TIP3    H238463   0.221   3.686  14.313 -1.6629 -1.1493 -2.5373
 5658TIP3   OH238464   6.047   3.011  14.232  0.0677  0.3045 -0.2823
 5658TIP3    H138465   6.043   3.019  14.327  0.1654  0.5381 -0.2959
 5658TIP3    H238466   6.117   2.947  14.216  1.2569  1.5366 -0.2301
 5659TIP3   OH238467   3.892   6.552   3.175 -0.4316 -0.0023 -0.1991
 5659TIP3    H138468   3.895   6.625   3.237  1.2640 -0.8496  0.7692
 5659TIP3    H238469   3.861   6.477   3.226 -0.2371 -0.4162 -0.6801
 5660TIP3   OH238470   1.887   3.573   2.844  0.3547 -0.6185 -0.4865
 5660TIP3    H138471   1.911   3.557   2.936  0.7406 -1.0997 -0.6667
 5660TIP3    H238472   1.953   3.525   2.794  1.1981  1.0642 -1.0575
 5661TIP3   OH238473   1.208   4.457   0.113  0.2758  0.2045  0.4272
 5661TIP3    H138474   1.295   4.431   0.082  1.9249  3.9457  1.3715
 5661TIP3    H238475   1.197   4.410   0.195  0.3212 -2.0412 -0.7766
 5662TIP3   OH238476   1.154   3.275  12.930 -0.1464 -0.3659 -0.2780
 5662TIP3    H138477   1.219   3.331  12.972 -1.4093  0.1511  1.0738
 5662TIP3    H238478   1.071   3.322  12.941 -0.5290  0.1330 -3.9938
 5663TIP3   OH238479   3.202   5.751   5.485  0.4034 -0.7652 -0.1881
 5663TIP3    H138480   3.198   5.818   5.554 -0.0009 -1.3173  0.3368
 5663TIP3    H238481   3.218   5.669   5.532 -0.3054 -1.2118 -0.7014
 5664TIP3   OH238482   4.722   1.468  13.607  0.3763 -0.6258  0.0321
 5664TIP3    H138483   4.657   1.432  13.548  0.0372  0.2906 -0.1809
 5664TIP3    H238484   4.789   1.400  13.615  0.2677 -0.8967 -1.1581
 5665TIP3   OH238485   6.394   3.536   0.682  0.1781 -0.0110  0.1726
 5665TIP3    H138486   6.423   3.574   0.599  1.3556 -0.0646  0.5430
 5665TIP3    H238487   6.407   3.605   0.747 -0.3664 -0.0973  0.3736
 5666TIP3   OH238488   4.098   2.416  16.296 -0.1281  0.2238  0.7800
 5666TIP3    H138489   4.179   2.398  16.249 -0.4424 -0.1938  0.3911
 5666TIP3    H238490   4.089   2.344  16.358 -1.5131 -1.1933 -0.9453
 5667TIP3   OH238491   2.618   1.939  11.887  0.0538 -0.2969 -0.6034
 5667TIP3    H138492   2.670   1.859  11.895  0.8629  0.3271  1.1864
 5667TIP3    H238493   2.678   2.009  11.915 -1.7123  0.4557  1.6617
 5668TIP3   OH238494   6.516   5.514  11.156 -0.0344  0.5344  0.1559
 5668TIP3    H138495   6.469   5.558  11.085 -0.6151 -1.1163 -0.5255
 5668TIP3    H238496   6.608   5.536  11.141  0.0021 -0.7396 -1.8534
 5669TIP3   OH238497   4.409   5.401   2.511 -0.4120 -0.6945 -0.0775
 5669TIP3    H138498   4.453   5.316   2.514 -0.2956 -0.6063  1.2247
 5669TIP3    H238499   4.477   5.463   2.535 -0.6508 -0.2919 -0.4367
 5670TIP3   OH238500   2.370   3.857  15.240 -0.2729 -0.3507  0.9526
 5670TIP3    H138501   2.461   3.886  15.232 -0.5177 -0.0804 -3.2603
 5670TIP3    H238502   2.318   3.937  15.226 -1.2498 -0.4831  3.3671
 5671TIP3   OH238503   6.501   1.674   4.922 -0.1180  0.2917  0.6291
 5671TIP3    H138504   6.466   1.590   4.951  2.4265 -1.2857 -0.5624
 5671TIP3    H238505   6.567   1.696   4.988 -0.2645  1.0322  0.5420
 5672TIP3   OH238506   6.092   5.837  12.265  0.2553 -0.3403 -0.2973
 5672TIP3    H138507   6.146   5.773  12.218  0.7674  0.5872 -1.0207
 5672TIP3    H238508   6.132   5.921  12.245 -1.1981  0.3456 -0.4896
 5673TIP3   OH238509   3.447   0.490  11.675  0.2175  0.2656  0.3173
 5673TIP3    H138510   3.445   0.487  11.579  1.4848  2.4506  0.1416
 5673TIP3    H238511   3.393   0.566  11.697 -2.4257 -1.7914  1.6136
 5674TIP3   OH238512   5.539   4.781   4.225 -0.2046  0.3181 -0.7262
 5674TIP3    H138513   5.619   4.814   4.184  2.0978 -2.9133  0.7624
 5674TIP3    H238514   5.543   4.815   4.315 -0.3949 -0.0085 -0.5948
 5675TIP3   OH238515   6.169   4.317   1.834 -0.2949  0.1746 -0.4414
 5675TIP3    H138516   6.079   4.292   1.855 -0.0624 -0.9245 -0.7095
 5675TIP3    H238517   6.163   4.355   1.747 -0.5444  0.4162 -0.3228
 5676TIP3   OH238518   2.523   5.767  13.785  0.1845  0.0128  0.2042
 5676TIP3    H138519   2.453   5.767  13.719  0.9187 -0.5943 -0.5913
 5676TIP3    H238520   2.566   5.682  13.775 -0.0087 -0.3179  1.8361
 5677TIP3   OH238521   2.249   4.035   4.864 -0.2399 -0.1036 -0.0581
 5677TIP3    H138522   2.198   4.101   4.816  0.3524 -0.1823 -0.8063
 5677TIP3    H238523   2.334   4.076   4.878  0.2611 -0.8407 -0.8595
 5678TIP3   OH238524   0.681   6.759   5.688 -0.0479  0.5174 -0.7691
 5678TIP3    H138525   0.736   6.726   5.618 -1.1501 -1.0542 -0.9382
 5678TIP3    H238526   0.709   6.710   5.766  0.9010  1.9669 -0.1484
 5679TIP3   OH238527   3.742   4.518  13.908  0.4352 -0.4500  0.2872
 5679TIP3    H138528   3.825   4.473  13.895 -0.1740 -1.5994  0.2632
 5679TIP3    H238529   3.727   4.515  14.002  0.6453  0.1936  0.3480
 5680TIP3   OH238530   0.545   4.213  11.011  0.2937 -0.3133 -0.0442
 5680TIP3    H138531   0.522   4.122  11.028  3.0755 -1.0858  0.0493
 5680TIP3    H238532   0.525   4.226  10.919 -0.7138 -0.7998  0.0916
 5681TIP3   OH238533   4.628   6.295  11.296 -0.0609 -0.4660  0.8180
 5681TIP3    H138534   4.610   6.242  11.219 -0.6567  0.1548  0.5219
 5681TIP3    H238535   4.722   6.309  11.295 -0.0115 -0.8172  0.4468
 5682TIP3   OH238536   0.238   3.149  16.088 -0.0610  0.1137 -0.1648
 5682TIP3    H138537   0.230   3.187  16.176  0.6271 -0.8652  0.3372
 5682TIP3    H238538   0.210   3.058  16.098  1.6894 -0.5126 -0.5484
 5683TIP3   OH238539   1.335   2.625  15.066 -0.2848  0.8316 -0.6784
 5683TIP3    H138540   1.415   2.573  15.057 -1.0429 -0.5793  0.4688
 5683TIP3    H238541   1.329   2.674  14.984  1.5268  0.6484 -0.9554
 5684TIP3   OH238542   2.472   6.804   5.636 -0.4341 -0.6462  0.0622
 5684TIP3    H138543   2.554   6.852   5.619 -0.7580 -0.1314 -0.0872
 5684TIP3    H238544   2.498   6.713   5.643 -0.0813 -0.7057 -1.7396
 5685TIP3   OH238545   1.940   4.443   3.931  0.0605  0.2199  1.0497
 5685TIP3    H138546   1.849   4.445   3.899 -0.5067 -0.5948  2.5180
 5685TIP3    H238547   1.992   4.428   3.852 -1.3142 -2.2080  0.4925
 5686TIP3   OH238548   4.129   6.016  15.791 -0.2917 -0.1665 -0.1399
 5686TIP3    H138549   4.087   6.064  15.719 -0.5710 -0.5072 -0.2057
 5686TIP3    H238550   4.223   6.028  15.776 -0.3431  1.5270  0.6153
 5687TIP3   OH238551   3.104   0.522  11.643  0.0099  0.1743  0.0017
 5687TIP3    H138552   3.180   0.468  11.622 -0.1270  0.2707 -0.7748
 5687TIP3    H238553   3.115   0.601  11.590  0.5290  1.2168  1.5792
 5688TIP3   OH238554   0.368   5.854  14.683 -0.1610  0.2289  0.2657
 5688TIP3    H138555   0.390   5.849  14.776  1.4234  0.5090 -0.0741
 5688TIP3    H238556   0.388   5.767  14.648  0.6590  0.5534 -0.0940
 5689TIP3   OH238557   2.412   4.966   3.357 -0.1310 -0.4567  0.3000
 5689TIP3    H138558   2.363   4.985   3.277  0.0404 -1.1918  0.0133
 5689TIP3    H238559   2.449   4.879   3.342 -0.2178 -0.6589  1.2428
 5690TIP3   OH238560   0.062   1.835  15.179  0.2211  0.2929  0.0606
 5690TIP3    H138561   0.097   1.860  15.265 -0.3848 -0.5324  0.5547
 5690TIP3    H238562  -0.028   1.806  15.197 -0.1668  0.8212 -0.9624
 5691TIP3   OH238563   3.161   0.762  14.849  0.3784 -0.3321  0.1311
 5691TIP3    H138564   3.250   0.729  14.834  0.2243 -0.7031  0.0277
 5691TIP3    H238565   3.147   0.751  14.943 -0.4105 -2.4466 -0.2000
 5692TIP3   OH238566   1.191   0.355  16.532  0.5787 -0.2032  0.0295
 5692TIP3    H138567   1.117   0.299  16.513 -0.7534  0.6985  2.1702
 5692TIP3    H238568   1.153   0.430  16.579  2.6946  0.8537  0.1832
 5693TIP3   OH238569   2.190   5.567   1.086 -0.3213 -0.2178 -0.2732
 5693TIP3    H138570   2.132   5.499   1.049 -0.2230 -0.3584 -0.1700
 5693TIP3    H238571   2.192   5.549   1.180  1.7096 -1.6642 -0.5170
 5694TIP3   OH238572   3.347   1.161  14.724 -0.1917  0.1869  0.1497
 5694TIP3    H138573   3.328   1.253  14.708 -0.4169  0.1630  0.2807
 5694TIP3    H238574   3.360   1.155  14.819  1.7656  0.4489 -0.0453
 5695TIP3   OH238575   3.619   2.329   0.764 -0.0403  0.0909 -0.0451
 5695TIP3    H138576   3.618   2.404   0.824  0.4286 -0.5038  0.7348
 5695TIP3    H238577   3.598   2.366   0.679  0.9269  1.2435  0.1804
 5696TIP3   OH238578   4.852   2.020   1.021 -0.3281 -0.2847 -0.7327
 5696TIP3    H138579   4.931   2.066   0.993  1.4987 -1.8697  1.4074
 5696TIP3    H238580   4.783   2.086   1.019  1.0856  1.2393 -2.3842
 5697TIP3   OH238581   5.570   2.526   5.073 -0.3237  0.0400  0.5952
 5697TIP3    H138582   5.504   2.570   5.127 -0.2380  1.1414 -0.1626
 5697TIP3    H238583   5.526   2.511   4.989  0.1896  0.2155  0.2916
 5698TIP3   OH238584   4.090   0.159   1.023  0.0101  0.4325  0.3013
 5698TIP3    H138585   4.083   0.063   1.023  0.4619  0.3547  2.9080
 5698TIP3    H238586   4.145   0.178   0.947 -2.0122 -1.1470 -1.7132
 5699TIP3   OH238587   0.057   5.175   5.118 -0.2569  0.4714  0.1159
 5699TIP3    H138588   0.065   5.266   5.147  2.5781  0.7456 -1.1798
 5699TIP3    H238589   0.056   5.179   5.023  0.1436 -0.8489  0.0254
 5700TIP3   OH238590   2.187   1.292   4.221 -0.2939  0.1951  0.7118
 5700TIP3    H138591   2.260   1.248   4.263  0.7293  2.1687  1.1267
 5700TIP3    H238592   2.152   1.228   4.159  1.4126 -0.9878  0.9124
 5701TIP3   OH238593   6.527   0.703   1.968  0.8800  0.1246  0.6779
 5701TIP3    H138594   6.489   0.668   2.048  1.4548 -0.2043  0.8077
 5701TIP3    H238595   6.577   0.780   1.996  0.9575  0.0979  0.6128
 5702TIP3   OH238596   6.545   3.314  12.615  0.0174  0.1012  0.3364
 5702TIP3    H138597   6.474   3.329  12.676  0.2163 -0.1589  0.6351
 5702TIP3    H238598   6.610   3.264  12.665 -0.0443 -0.5724 -0.2294
 5703TIP3   OH238599   3.671   3.212  13.037  0.0731  0.0094  0.0959
 5703TIP3    H138600   3.759   3.249  13.034 -0.0939  0.4601  0.5447
 5703TIP3    H238601   3.615   3.286  13.062 -0.4654 -0.2177 -0.4046
 5704TIP3   OH238602   3.174   6.018   0.400  0.3280 -0.5328 -0.1566
 5704TIP3    H138603   3.178   6.036   0.307  0.8478 -0.3887 -0.1088
 5704TIP3    H238604   3.091   5.971   0.412 -0.3473  0.5286 -0.5006
 5705TIP3   OH238605   2.808   2.147   0.308 -0.7398  0.0390 -0.3790
 5705TIP3    H138606   2.730   2.096   0.331  0.2266 -2.4723 -2.2796
 5705TIP3    H238607   2.815   2.212   0.378 -2.4830 -1.9535  1.8157
 5706TIP3   OH238608   3.752   4.803  11.580  0.1161  0.1876 -0.0990
 5706TIP3    H138609   3.822   4.747  11.614  0.4834 -0.0179 -1.1550
 5706TIP3    H238610   3.772   4.890  11.614 -0.0269 -0.1643  0.9244
 5707TIP3   OH238611   5.644   4.561   3.573 -0.3613 -0.2293 -0.1753
 5707TIP3    H138612   5.702   4.568   3.497 -0.3932 -1.1457 -0.2943
 5707TIP3    H238613   5.603   4.647   3.580  1.0108  0.4340 -0.0931
 5708TIP3   OH238614   0.351   6.515   4.174 -0.6848 -0.2990  0.0963
 5708TIP3    H138615   0.260   6.492   4.157 -0.5043 -0.5966 -0.4841
 5708TIP3    H238616   0.398   6.491   4.094 -0.1656  0.2423  0.2236
 5709TIP3   OH238617   4.837   6.535   0.858 -0.1451  0.7212 -0.0073
 5709TIP3    H138618   4.811   6.613   0.809  0.7491  1.2558  0.3439
 5709TIP3    H238619   4.772   6.527   0.928 -1.1614  0.2192 -0.9696
 5710TIP3   OH238620   1.636   1.074  12.057  0.0228  0.5009 -0.2740
 5710TIP3    H138621   1.573   1.014  12.099  1.2989 -0.1531  0.7880
 5710TIP3    H238622   1.605   1.082  11.967  0.1067 -2.2629 -0.6522
 5711TIP3   OH238623   2.501   5.414   5.964 -0.4185  0.1068  0.6283
 5711TIP3    H138624   2.523   5.507   5.977 -0.6939 -0.0258  2.2000
 5711TIP3    H238625   2.560   5.367   6.022  1.2875 -0.9243 -1.7924
 5712TIP3   OH238626   0.728   6.552   4.564  0.1249  0.7061  0.5084
 5712TIP3    H138627   0.743   6.560   4.470  0.2202 -0.4944  0.4076
 5712TIP3    H238628   0.639   6.519   4.571  0.1432  0.7283  0.8352
 5713TIP3   OH238629   3.322   6.114   6.034 -0.1223 -0.6535 -0.2102
 5713TIP3    H138630   3.352   6.033   6.077  2.9202  0.5016  0.1391
 5713TIP3    H238631   3.369   6.184   6.081 -2.3161  1.3267 -0.7723
 5714TIP3   OH238632   0.412   4.297   0.606 -0.3451  0.1110  0.1678
 5714TIP3    H138633   0.490   4.312   0.552  0.5096 -0.9213  1.0830
 5714TIP3    H238634   0.440   4.316   0.695 -0.1978 -3.1386  0.9324
 5715TIP3   OH238635   2.379   6.096  12.631  0.1906 -0.6320  0.0084
 5715TIP3    H138636   2.295   6.050  12.637 -1.1053  1.7370  2.3535
 5715TIP3    H238637   2.371   6.151  12.553 -0.0259 -1.1142 -0.3145
 5716TIP3   OH238638   2.803   3.019  17.269 -0.3171  0.0247 -0.7671
 5716TIP3    H138639   2.854   3.037  17.348  1.8249 -1.4149 -1.7304
 5716TIP3    H238640   2.778   3.105  17.236  2.5891  0.9275 -0.8726
 5717TIP3   OH238641   3.051   1.800   3.936 -0.5124 -0.6394  0.1830
 5717TIP3    H138642   2.998   1.850   3.874 -1.4432 -0.9998  0.6658
 5717TIP3    H238643   3.110   1.749   3.881  0.2430  0.7387 -0.3229
 5718TIP3   OH238644   1.665   5.001   0.060 -0.3746 -0.4351  0.0086
 5718TIP3    H138645   1.614   5.064   0.009  0.4878  0.2618 -0.0120
 5718TIP3    H238646   1.646   5.024   0.151 -0.8759 -0.8279  0.0084
 5719TIP3   OH238647   3.376   0.331  12.164 -0.3139 -0.3995  0.4909
 5719TIP3    H138648   3.298   0.379  12.191 -0.3753 -0.8961  1.2167
 5719TIP3    H238649   3.399   0.370  12.080 -1.0649  0.0739  0.4888
 5720TIP3   OH238650   4.959   1.456   5.277 -0.3613 -0.2846  0.1337
 5720TIP3    H138651   4.937   1.489   5.364  0.2405 -1.6211  0.8279
 5720TIP3    H238652   5.001   1.530   5.233 -0.6863  0.4140  0.9754
 5721TIP3   OH238653   0.850   0.313  14.074 -0.0341  0.1843  0.0815
 5721TIP3    H138654   0.889   0.263  14.146 -1.6335 -0.2718  0.6706
 5721TIP3    H238655   0.781   0.366  14.116 -0.1818  0.8323 -0.9362
 5722TIP3   OH238656   5.822   2.952  13.283 -0.0494  0.3041 -0.0817
 5722TIP3    H138657   5.908   2.927  13.318  0.7231  1.2135 -1.2194
 5722TIP3    H238658   5.824   3.048  13.283 -0.6341  0.3312 -1.1029
 5723TIP3   OH238659   5.484   0.548   2.793  0.0449  0.2021 -0.1369
 5723TIP3    H138660   5.537   0.507   2.862 -1.7272 -1.2523  0.4527
 5723TIP3    H238661   5.475   0.480   2.726 -0.6485  0.5869 -0.4464
 5724TIP3   OH238662   3.474   4.372   5.339 -0.1714 -0.0582 -0.1230
 5724TIP3    H138663   3.495   4.308   5.271 -1.2577  0.1449 -0.6678
 5724TIP3    H238664   3.415   4.433   5.297 -0.6740  0.2108  0.9427
 5725TIP3   OH238665   0.621   3.251  13.168  0.0490 -0.0696  0.0556
 5725TIP3    H138666   0.612   3.343  13.142  0.7300  0.0878  0.3509
 5725TIP3    H238667   0.698   3.220  13.121  0.0158 -0.3945  0.2115
 5726TIP3   OH238668   1.425   6.563  13.908  0.3891  0.3407  0.0084
 5726TIP3    H138669   1.427   6.538  13.816 -1.9161  2.3596 -0.6990
 5726TIP3    H238670   1.476   6.645  13.912  1.8138 -0.5346  0.8967
 5727TIP3   OH238671   2.253   1.996  14.142 -0.3905 -0.4719 -0.0427
 5727TIP3    H138672   2.175   2.037  14.179  0.4465  0.6192  0.5803
 5727TIP3    H238673   2.234   1.902  14.145 -1.0828 -0.3231  1.5346
 5728TIP3   OH238674   4.903   6.354  15.199  0.8150 -0.3901  0.5718
 5728TIP3    H138675   4.998   6.344  15.209  1.1028  1.6585  0.4674
 5728TIP3    H238676   4.893   6.413  15.124 -0.5217 -0.3970  0.7223
 5729TIP3   OH238677   6.612   2.741  16.608  0.6168 -0.0618  0.0056
 5729TIP3    H138678   6.655   2.765  16.526  0.8320  1.6365  0.5849
 5729TIP3    H238679   6.675   2.764  16.676 -0.7362  1.4432  0.8085
 5730TIP3   OH238680   4.958   4.479   1.710 -0.1303  0.1311  0.0178
 5730TIP3    H138681   4.879   4.426   1.723 -0.7176  1.1221  0.6698
 5730TIP3    H238682   4.999   4.480   1.797 -0.7022  1.6068  0.2898
 5731TIP3   OH238683   4.241   6.760  15.816  0.3879 -0.1754  0.0555
 5731TIP3    H138684   4.223   6.813  15.894 -0.1121  1.0176 -0.8281
 5731TIP3    H238685   4.320   6.710  15.838  0.1886  0.0542  1.3516
 5732TIP3   OH238686   3.294   3.708   1.609  0.0177 -0.0614 -0.6336
 5732TIP3    H138687   3.317   3.713   1.702 -0.0559 -0.4533 -0.5925
 5732TIP3    H238688   3.227   3.640   1.605  1.5780 -1.6401 -1.2553
 5733TIP3   OH238689   6.449   6.337   4.136 -0.5458 -0.4162 -0.1267
 5733TIP3    H138690   6.419   6.419   4.096  0.2324 -0.0713 -0.0076
 5733TIP3    H238691   6.534   6.320   4.096 -0.6428 -1.1122 -0.0600
 5734TIP3   OH238692   4.474   1.336   5.587 -0.2477  0.1802 -0.2365
 5734TIP3    H138693   4.443   1.270   5.523 -0.9253 -0.2084  0.4695
 5734TIP3    H238694   4.541   1.290   5.637 -0.3406  0.1997 -0.0952
 5735TIP3   OH238695   4.937   4.569   2.933  0.3009  0.1617 -0.0963
 5735TIP3    H138696   4.992   4.533   2.863 -0.4884 -0.3584 -0.4525
 5735TIP3    H238697   4.876   4.628   2.888  0.7612  0.9987  0.3365
 5736TIP3   OH238698   6.628   1.943  16.677  0.2154  0.1081 -0.1558
 5736TIP3    H138699   6.597   1.957  16.767 -0.4729 -2.0257  0.0010
 5736TIP3    H238700   6.608   1.851  16.659  1.1964  0.2350 -2.1788
 5737TIP3   OH238701   4.739   5.829   4.938  0.2765 -0.3026  0.5924
 5737TIP3    H138702   4.811   5.887   4.964  1.2248 -1.0353 -0.3410
 5737TIP3    H238703   4.781   5.745   4.921 -0.8613 -0.8397  0.3715
 5738TIP3   OH238704   2.432   2.367  12.150 -0.1810  0.4135  0.3268
 5738TIP3    H138705   2.464   2.282  12.121  0.8789  0.8334  0.2479
 5738TIP3    H238706   2.483   2.387  12.229 -1.3343  0.3912  1.1133
 5739TIP3   OH238707   2.193   0.520  16.479  0.1994  0.3471  0.4795
 5739TIP3    H138708   2.136   0.493  16.551  0.3972 -1.2882  0.0588
 5739TIP3    H238709   2.172   0.459  16.408  0.1722  1.7678 -0.7831
 5740TIP3   OH238710   3.736   0.191   5.928  0.2367 -0.1674 -0.3462
 5740TIP3    H138711   3.700   0.225   6.009  1.0477 -0.5594  0.1956
 5740TIP3    H238712   3.831   0.202   5.937  0.2567  2.2905 -2.3778
 5741TIP3   OH238713   0.930   4.652  12.369  0.9183 -0.0706  0.4938
 5741TIP3    H138714   0.909   4.721  12.306  1.1883 -1.7796 -1.5788
 5741TIP3    H238715   0.941   4.698  12.453 -1.1008  2.0975 -0.3282
 5742TIP3   OH238716   3.709   3.756  12.540  0.0945 -0.1943  0.2131
 5742TIP3    H138717   3.660   3.825  12.585 -1.2565 -1.0426  0.0984
 5742TIP3    H238718   3.789   3.746  12.591 -0.7226 -0.0999  1.5783
 5743TIP3   OH238719   5.679   2.647  13.145  0.5714 -0.1114 -0.4103
 5743TIP3    H138720   5.676   2.728  13.095  0.6452 -2.1438 -4.0469
 5743TIP3    H238721   5.588   2.617  13.150  0.7087 -0.5561 -0.4776
 5744TIP3   OH238722   1.082   1.999  14.480 -0.2595 -0.4031  0.7636
 5744TIP3    H138723   1.105   1.917  14.435 -2.0731  0.3505 -1.8060
 5744TIP3    H238724   1.164   2.028  14.520  1.5701 -1.2437 -2.0359
 5745TIP3   OH238725   2.991   5.346  16.895 -0.2535 -0.7191 -0.4272
 5745TIP3    H138726   3.072   5.382  16.861 -0.5907 -2.9457 -4.2133
 5745TIP3    H238727   2.922   5.397  16.853 -0.7185 -1.7698 -1.0004
 5746TIP3   OH238728   1.408   1.689   1.732  0.9625  0.4786  0.4053
 5746TIP3    H138729   1.387   1.740   1.810  0.8836  0.2293  0.5476
 5746TIP3    H238730   1.490   1.728   1.700  0.4295  1.2865 -0.0104
 5747TIP3   OH238731   4.687   4.703   4.405  0.1765  0.3219 -0.0970
 5747TIP3    H138732   4.774   4.732   4.431  0.0306  1.1446 -0.4755
 5747TIP3    H238733   4.656   4.772   4.346 -0.9371  0.3167  0.4547
 5748TIP3   OH238734   5.415   0.286  16.389 -0.0318 -0.5830 -1.1119
 5748TIP3    H138735   5.341   0.253  16.439 -0.0991 -2.5640 -2.4278
 5748TIP3    H238736   5.487   0.293  16.452 -0.9990  0.2964 -0.0692
 5749TIP3   OH238737   5.317   1.271   5.305  0.3705 -0.2436  0.0528
 5749TIP3    H138738   5.361   1.354   5.290  0.9930 -0.5340  0.2573
 5749TIP3    H238739   5.353   1.212   5.239 -1.3685  0.0951 -1.2902
 5750TIP3   OH238740   5.627   4.030   2.627 -0.2711  0.4083 -0.4400
 5750TIP3    H138741   5.552   4.033   2.567 -0.9038  2.5849  0.3547
 5750TIP3    H238742   5.589   4.046   2.714  1.0223  0.7982  0.0722
 5751TIP3   OH238743   5.005   5.253   0.909  0.1678 -0.1472  0.5973
 5751TIP3    H138744   4.933   5.235   0.848  0.6344  0.3573 -0.1109
 5751TIP3    H238745   5.084   5.242   0.857  0.5592  0.8359  0.9566
 5752TIP3   OH238746   1.330   5.571   4.185  0.4423 -0.3273 -0.2836
 5752TIP3    H138747   1.312   5.488   4.230 -0.6881 -0.6422 -1.2781
 5752TIP3    H238748   1.290   5.561   4.099 -1.8981  2.1321  0.3773
 5753TIP3   OH238749   0.452   6.506   4.632  0.3525  0.4548 -0.2560
 5753TIP3    H138750   0.425   6.465   4.714 -1.0903  0.8956 -0.4822
 5753TIP3    H238751   0.388   6.475   4.568  1.2296  0.4220 -1.1441
 5754TIP3   OH238752   5.995   0.697   6.707 -0.0505  1.4616 -0.1150
 5754TIP3    H138753   5.977   0.783   6.669 -1.2748  2.2366  2.0563
 5754TIP3    H238754   5.910   0.664   6.734  0.2265 -1.0018 -1.8682
 5755TIP3   OH238755   4.646   4.821  11.778 -0.1842  0.2258 -0.3207
 5755TIP3    H138756   4.709   4.790  11.712 -0.6727 -0.4284 -0.4944
 5755TIP3    H238757   4.565   4.834  11.728 -1.2367 -2.5086  0.4883
 5756TIP3   OH238758   3.836   6.415   5.325  0.8362 -0.2518 -0.1866
 5756TIP3    H138759   3.831   6.324   5.355  1.7061  0.0588  0.9412
 5756TIP3    H238760   3.865   6.465   5.401  1.0292  0.8847 -0.9687
 5757TIP3   OH238761   0.985   6.688  16.906 -0.1113  0.0567 -0.2778
 5757TIP3    H138762   0.947   6.765  16.948 -1.1444 -1.3809  1.6077
 5757TIP3    H238763   0.910   6.643  16.866  0.3171 -0.4483 -0.5240
 5758TIP3   OH238764   6.116   2.565  17.039 -0.3804 -0.0985  0.1954
 5758TIP3    H138765   6.135   2.657  17.057  1.7099 -0.6915  1.4180
 5758TIP3    H238766   6.126   2.557  16.944  1.6044  0.5647  0.2908
 5759TIP3   OH238767   6.723   5.308  11.833  1.0756  0.7495  0.4981
 5759TIP3    H138768   6.769   5.392  11.828  0.9149  0.8537  0.7128
 5759TIP3    H238769   6.783   5.245  11.792 -0.2357  1.5283 -2.9344
 5760TIP3   OH238770   1.899   2.042   3.964 -0.4116  0.1249  0.4609
 5760TIP3    H138771   1.906   2.136   3.974 -0.5382  0.3503 -1.2661
 5760TIP3    H238772   1.967   2.019   3.901 -1.2146 -0.7397 -0.1314
 5761TIP3   OH238773   0.233   3.398  15.424  0.5269 -0.1180  0.4865
 5761TIP3    H138774   0.174   3.327  15.398  1.5896 -0.6563 -0.5140
 5761TIP3    H238775   0.188   3.440  15.497 -0.3796 -1.4721  0.7473
 5762TIP3   OH238776   1.240   1.881   4.698 -0.1137  0.4523 -0.3888
 5762TIP3    H138777   1.209   1.924   4.778  1.5222  0.0064  0.5173
 5762TIP3    H238778   1.235   1.949   4.631  0.1294  1.3363  0.4735
 5763TIP3   OH238779   5.639   5.835  15.669 -0.4035  0.2263 -0.4842
 5763TIP3    H138780   5.555   5.860  15.631  0.1090 -0.3120 -2.0552
 5763TIP3    H238781   5.625   5.745  15.700 -0.4986  0.2539 -0.4469
 5764TIP3   OH238782   5.922   6.222   2.069  0.2658  0.2588 -0.8187
 5764TIP3    H138783   5.926   6.181   2.155  2.7827 -0.8444 -1.3559
 5764TIP3    H238784   5.880   6.157   2.013 -2.1151  1.2962 -0.3345
 5765TIP3   OH238785   5.832   2.405  13.234  0.0851  0.2462 -0.4246
 5765TIP3    H138786   5.900   2.377  13.173  0.8009 -0.1982  0.5448
 5765TIP3    H238787   5.780   2.469  13.185  1.0500  0.4022 -1.2705
 5766TIP3   OH238788   4.150   0.590  14.199 -0.2611 -0.3321  0.5966
 5766TIP3    H138789   4.060   0.605  14.228 -0.4753 -0.5803  0.0792
 5766TIP3    H238790   4.197   0.670  14.225 -0.9745  0.4796 -0.4982
 5767TIP3   OH238791   5.984   2.476  14.776  0.1606  1.4211 -0.8066
 5767TIP3    H138792   5.974   2.556  14.724 -0.1025  1.6786 -0.3668
 5767TIP3    H238793   6.011   2.507  14.863 -1.6014  1.1890 -0.1244
 5768TIP3   OH238794   6.368   4.289  11.811  0.0149 -0.1405 -0.7119
 5768TIP3    H138795   6.441   4.327  11.860 -0.4028 -0.8589  0.5264
 5768TIP3    H238796   6.339   4.359  11.754  1.9344  0.0263 -1.5601
 5769TIP3   OH238797   6.524   3.003  12.685  0.6955  0.2207 -0.3615
 5769TIP3    H138798   6.619   3.018  12.682  0.7258 -0.1835 -2.7024
 5769TIP3    H238799   6.502   3.012  12.778  2.8235  1.4809  0.0854
 5770TIP3   OH238800   2.177   1.147  16.688 -0.6405  0.0866 -0.1554
 5770TIP3    H138801   2.194   1.137  16.782 -0.4483  0.1730 -0.1791
 5770TIP3    H238802   2.114   1.218  16.682 -0.7023  0.0370 -0.0870
 5771TIP3   OH238803   6.599   2.226  11.750  0.4327  0.1306 -0.3236
 5771TIP3    H138804   6.508   2.199  11.738  0.2932  0.5236 -0.1670
 5771TIP3    H238805   6.629   2.174  11.825  1.1161 -1.8570 -1.8891
 5772TIP3   OH238806   5.269   5.585   3.148  0.4031  0.1427  0.3620
 5772TIP3    H138807   5.211   5.661   3.150  0.0332 -0.1470  1.0933
 5772TIP3    H238808   5.340   5.610   3.088  0.1194  0.9373  0.3496
 5773TIP3   OH238809   5.749   4.101  14.978  0.3979  0.5131  0.0052
 5773TIP3    H138810   5.740   4.189  15.013 -1.0372  1.2951 -2.1368
 5773TIP3    H238811   5.669   4.056  15.005 -1.3556  1.5066 -2.9948
 5774TIP3   OH238812   2.169   0.126  11.747  0.5643 -0.4623 -0.1966
 5774TIP3    H138813   2.157   0.123  11.842  0.4950 -1.0811 -0.2236
 5774TIP3    H238814   2.083   0.148  11.712 -0.3591 -3.7115 -0.3174
 5775TIP3   OH238815   1.434   6.146   2.968  0.4591 -0.4950  0.2190
 5775TIP3    H138816   1.443   6.061   2.926  2.0155 -0.9352  1.3669
 5775TIP3    H238817   1.440   6.127   3.062  0.4913  0.8335  0.5025
 5776TIP3   OH238818   1.767   2.544   0.037  0.1979  0.5230  0.1352
 5776TIP3    H138819   1.724   2.458   0.044 -0.8301  1.0361  0.4027
 5776TIP3    H238820   1.859   2.524   0.021  0.0361 -0.6314  0.5544
 5777TIP3   OH238821   6.318   3.406  11.192 -0.3530 -0.7661  0.4547
 5777TIP3    H138822   6.373   3.386  11.268  0.2880  0.3654  0.3010
 5777TIP3    H238823   6.349   3.345  11.125 -0.8421 -1.6914  1.0419
 5778TIP3   OH238824   5.464   2.282  12.014 -0.6393 -0.1511  0.0596
 5778TIP3    H138825   5.383   2.332  12.024  0.9717  2.6095  0.3465
 5778TIP3    H238826   5.523   2.318  12.081  1.6050 -0.3082 -1.6940
 5779TIP3   OH238827   6.169   2.638  16.746 -0.1011  0.5854 -0.2772
 5779TIP3    H138828   6.160   2.655  16.652 -0.8211  0.2181 -0.2814
 5779TIP3    H238829   6.255   2.598  16.755 -0.0905  0.4808 -0.8009
 5780TIP3   OH238830   5.530   5.835   2.022  0.2004  0.1956  0.0286
 5780TIP3    H138831   5.450   5.875   2.055  0.7486  1.3948 -0.0400
 5780TIP3    H238832   5.500   5.768   1.960 -0.7530  0.1880  0.4837
 5781TIP3   OH238833   4.436   5.029  13.487 -0.1282  0.5715 -0.3900
 5781TIP3    H138834   4.345   5.015  13.515 -0.5925 -0.3434 -2.2173
 5781TIP3    H238835   4.478   4.944  13.500 -0.3384  0.1379 -2.2655
 5782TIP3   OH238836   4.591   6.537  10.865  0.4765  0.2026  0.0094
 5782TIP3    H138837   4.574   6.444  10.853  0.7511  0.2254 -0.5942
 5782TIP3    H238838   4.682   6.541  10.895  0.5216  0.2916 -0.1423
 5783TIP3   OH238839   6.671   4.501   1.399 -0.0211  0.9646 -0.5845
 5783TIP3    H138840   6.708   4.424   1.356  0.3784  2.3226 -2.8273
 5783TIP3    H238841   6.603   4.466   1.457  1.9862 -1.2717  0.5976
 5784TIP3   OH238842   3.461   4.326  16.122 -0.3600  0.0921 -0.3872
 5784TIP3    H138843   3.510   4.403  16.148 -0.9155  0.8329 -1.4536
 5784TIP3    H238844   3.521   4.253  16.135  0.5922  0.8407 -0.5285
 5785TIP3   OH238845   4.165   3.525  13.016  0.0321  0.1937  0.2186
 5785TIP3    H138846   4.238   3.585  13.003 -0.6049  0.8010 -0.6404
 5785TIP3    H238847   4.126   3.552  13.100  1.3235 -0.7357  1.1681
 5786TIP3   OH238848   2.731   0.378   3.684  0.0238 -0.7398 -0.3850
 5786TIP3    H138849   2.787   0.454   3.673 -2.5074  1.3152 -0.0412
 5786TIP3    H238850   2.786   0.314   3.730  1.5768  1.7511  1.4490
 5787TIP3   OH238851   5.322   3.272   0.268 -0.0678  0.2916  0.1848
 5787TIP3    H138852   5.266   3.196   0.260 -0.5274  0.6791 -0.2947
 5787TIP3    H238853   5.326   3.310   0.180 -0.6550  1.3850  0.6089
 5788TIP3   OH238854   4.793   5.243  13.579 -0.6694  0.1008 -0.6606
 5788TIP3    H138855   4.703   5.213  13.587 -1.0425  1.6218  1.5482
 5788TIP3    H238856   4.830   5.234  13.667  0.8507  0.9849 -1.1601
 5789TIP3   OH238857   6.215   0.060   2.856  0.4442 -0.3522  0.2375
 5789TIP3    H138858   6.177   0.133   2.806  1.9318 -0.1362 -0.6421
 5789TIP3    H238859   6.140   0.016   2.895 -0.6255  0.6011 -0.6674
 5790TIP3   OH238860   3.686   0.485   0.118  0.8232  0.1582 -0.2566
 5790TIP3    H138861   3.681   0.577   0.091 -0.7979  0.6689  1.6044
 5790TIP3    H238862   3.771   0.455   0.085  1.7530  2.5527 -0.2117
 5791TIP3   OH238863   5.195   2.934   5.944  0.3997 -0.1888 -0.1578
 5791TIP3    H138864   5.197   3.003   6.010  0.5006 -0.2341 -0.1129
 5791TIP3    H238865   5.124   2.958   5.885  0.1753 -0.2533  0.0860
 5792TIP3   OH238866   6.086   1.304  13.176 -0.2238 -0.2442 -0.0457
 5792TIP3    H138867   6.149   1.237  13.149  0.7402  1.0758 -1.1810
 5792TIP3    H238868   6.128   1.347  13.250  0.1867  0.5732 -0.7419
 5793TIP3   OH238869   4.965   2.438   5.156 -0.2230  0.5412  0.0069
 5793TIP3    H138870   4.958   2.512   5.216 -1.8049  0.2960  0.1684
 5793TIP3    H238871   4.883   2.390   5.166  0.9872 -1.6077  0.3592
 5794TIP3   OH238872   3.286   5.365   1.558  0.5205 -0.0535 -0.1150
 5794TIP3    H138873   3.211   5.308   1.540  0.1084 -0.0578  1.5024
 5794TIP3    H238874   3.360   5.321   1.516 -0.2316 -0.4129 -1.1204
 5795TIP3   OH238875   2.151   6.819   5.794  0.6979  0.3663 -0.3714
 5795TIP3    H138876   2.058   6.840   5.804  1.0132  1.0303  1.8941
 5795TIP3    H238877   2.161   6.735   5.837  1.1497  0.2967 -0.6116
 5796TIP3   OH238878   0.026   5.695  13.283  0.0256  0.4840  0.1360
 5796TIP3    H138879  -0.068   5.688  13.299 -0.1503 -0.0050 -1.0085
 5796TIP3    H238880   0.042   5.640  13.206  1.3160  0.2612  0.5355
 5797TIP3   OH238881   1.956   0.941   2.343  0.1315 -0.5162  0.2331
 5797TIP3    H138882   1.986   0.973   2.429 -0.6795 -1.1688  0.7748
 5797TIP3    H238883   2.036   0.910   2.301  0.6398  0.4251  0.4806
 5798TIP3   OH238884   4.527   2.302  13.495  0.4011  0.3069 -0.6249
 5798TIP3    H138885   4.599   2.347  13.538 -0.1934  0.2758  0.4385
 5798TIP3    H238886   4.516   2.348  13.412  2.4772 -0.5138 -1.4271
 5799TIP3   OH238887   1.588   3.873  13.304 -0.0305  0.3776  0.2853
 5799TIP3    H138888   1.557   3.958  13.273 -0.0656  0.4097  0.4071
 5799TIP3    H238889   1.621   3.890  13.392 -1.8552 -0.0944  1.0996
 5800TIP3   OH238890   3.391   0.066  15.696 -0.7244 -0.1445 -0.3057
 5800TIP3    H138891   3.436   0.148  15.677 -1.6531  0.2247 -0.9792
 5800TIP3    H238892   3.405   0.012  15.618 -0.6360 -0.3945 -0.1185
 5801TIP3   OH238893   0.401   2.832   5.706  0.4990  0.1111  0.0511
 5801TIP3    H138894   0.472   2.788   5.658  0.7335  0.7329 -0.1738
 5801TIP3    H238895   0.435   2.840   5.796  0.4100 -0.2602  0.1216
 5802TIP3   OH238896   3.414   5.053   3.848  0.5982  0.1427  0.5604
 5802TIP3    H138897   3.324   5.085   3.846  0.0430 -1.3570 -1.7166
 5802TIP3    H238898   3.450   5.076   3.763  1.5689 -1.4106  0.5164
 5803TIP3   OH238899   3.412   6.325   2.288 -0.0032 -0.0763  0.2641
 5803TIP3    H138900   3.477   6.367   2.345 -0.2942  1.3396 -0.3970
 5803TIP3    H238901   3.461   6.299   2.210  0.0179 -0.1979  0.3177
 5804TIP3   OH238902   3.400   3.495   0.555  0.0327 -0.0759  0.0078
 5804TIP3    H138903   3.459   3.438   0.603 -0.0526  0.3495  0.6375
 5804TIP3    H238904   3.358   3.438   0.490  2.3080 -0.0682 -1.5743
 5805TIP3   OH238905   2.641   5.060  13.118 -0.0374  0.2379 -0.0533
 5805TIP3    H138906   2.596   5.074  13.034  1.2063  0.8707 -0.6350
 5805TIP3    H238907   2.576   5.086  13.184 -0.3367  1.7370 -0.8896
 5806TIP3   OH238908   2.697   6.567  12.926  0.5850  0.3132  0.6446
 5806TIP3    H138909   2.740   6.634  12.978 -1.1790  0.9278  1.3994
 5806TIP3    H238910   2.711   6.486  12.974 -0.2801  0.7383  1.6545
 5807TIP3   OH238911   5.109   3.399  16.518 -0.3543 -0.2038  0.3666
 5807TIP3    H138912   5.044   3.428  16.583 -2.3532 -0.1750 -1.5150
 5807TIP3    H238913   5.068   3.418  16.434  1.5696 -1.4658 -0.9359
 5808TIP3   OH238914   3.523   1.916  14.354 -0.4078  0.4679  0.1156
 5808TIP3    H138915   3.469   1.973  14.300 -2.4798  0.8521  2.4143
 5808TIP3    H238916   3.473   1.905  14.435  1.5918 -1.7011  1.1821
 5809TIP3   OH238917   2.012   0.261   3.603  0.3249 -0.6587 -0.4813
 5809TIP3    H138918   1.984   0.332   3.662 -1.0244 -1.2902 -0.3122
 5809TIP3    H238919   2.043   0.306   3.525  0.0355  0.1480 -0.1494
 5810TIP3   OH238920   1.109   6.020   0.028 -0.3694  0.2931  0.1439
 5810TIP3    H138921   1.032   6.041  -0.025 -0.1782 -1.3600 -0.8582
 5810TIP3    H238922   1.083   5.942   0.077  1.0705 -1.1593 -1.2710
 5811TIP3   OH238923   1.042   6.654   4.885 -0.1302  0.5401  0.1448
 5811TIP3    H138924   1.130   6.692   4.893  0.3555 -0.7259  1.3182
 5811TIP3    H238925   1.007   6.692   4.804  1.2459  1.5615 -0.0185
 5812TIP3   OH238926   5.216   1.523   1.795 -0.1979  0.5337 -0.5024
 5812TIP3    H138927   5.164   1.597   1.764 -1.3132 -1.1932 -3.1697
 5812TIP3    H238928   5.305   1.557   1.804 -1.0505  2.6542  0.4654
 5813TIP3   OH238929   0.976   6.457   1.255  0.3861  0.4793 -0.1298
 5813TIP3    H138930   0.882   6.452   1.236  0.1932  2.0429  0.2444
 5813TIP3    H238931   1.008   6.530   1.203  1.2589  0.4036  0.2683
 5814TIP3   OH238932   1.182   0.388   3.779 -0.0595  0.2827  0.0357
 5814TIP3    H138933   1.232   0.307   3.792 -2.4243 -1.2249  0.3935
 5814TIP3    H238934   1.177   0.427   3.866  1.7662  1.3222 -0.2699
 5815TIP3   OH238935   0.613   5.807  15.625 -0.0435  0.1198 -0.2473
 5815TIP3    H138936   0.682   5.782  15.687 -0.7619  0.4155  0.6928
 5815TIP3    H238937   0.555   5.731  15.623  0.7422 -0.4668 -1.6888
 5816TIP3   OH238938   4.990   4.692   4.044  0.1003 -0.0234  0.4678
 5816TIP3    H138939   4.964   4.630   4.111  1.0909 -0.5908  0.3439
 5816TIP3    H238940   4.926   4.763   4.051 -0.8364 -0.8798  0.8434
 5817TIP3   OH238941   6.390   1.854  12.737 -0.0984  0.4461 -0.2380
 5817TIP3    H138942   6.456   1.790  12.761  0.1300  0.9043  0.3654
 5817TIP3    H238943   6.359   1.824  12.651 -1.0092 -1.2559  0.6408
 5818TIP3   OH238944   1.264   0.952   2.523 -0.0607 -0.0575  0.3203
 5818TIP3    H138945   1.279   0.994   2.608 -0.9575 -0.0647  0.4903
 5818TIP3    H238946   1.308   1.008   2.460  1.9975 -0.8946  0.9455
 5819TIP3   OH238947   6.779   1.772  13.581  0.6908 -0.5494  0.3264
 5819TIP3    H138948   6.789   1.855  13.627  0.7689 -0.1220 -0.4490
 5819TIP3    H238949   6.869   1.738  13.575  0.5558 -1.2098  1.5470
 5820TIP3   OH238950   1.342   1.179   5.809  0.1852 -0.3294 -0.4046
 5820TIP3    H138951   1.282   1.162   5.736 -0.6010 -0.8907  0.3375
 5820TIP3    H238952   1.327   1.105   5.869  0.3105  0.4598  0.6322
 5821TIP3   OH238953   5.774   5.353  13.461 -0.2385  0.0901 -0.1772
 5821TIP3    H138954   5.852   5.362  13.406  0.0219 -2.5254 -0.3685
 5821TIP3    H238955   5.704   5.393  13.410  0.7208  1.4061 -0.5305
 5822TIP3   OH238956   5.713   0.956   1.956 -0.1792  0.0655  0.3098
 5822TIP3    H138957   5.663   1.011   2.017 -1.4580 -0.6326 -0.0766
 5822TIP3    H238958   5.660   0.956   1.876  0.3153 -0.9074 -0.0214
 5823TIP3   OH238959   6.148   3.856   1.283  0.2227 -0.1285  0.6050
 5823TIP3    H138960   6.213   3.873   1.352  1.2234  2.6637 -0.8887
 5823TIP3    H238961   6.089   3.931   1.286 -0.4845 -0.5999 -0.7705
 5824TIP3   OH238962   0.006   3.741  15.705  0.7521 -0.3760  0.1735
 5824TIP3    H138963  -0.011   3.745  15.611 -0.6875 -0.6937  0.3916
 5824TIP3    H238964   0.018   3.647  15.722 -0.1753 -0.4578  0.4659
 5825TIP3   OH238965   2.539   3.214   2.421 -0.8634  0.8000 -0.0253
 5825TIP3    H138966   2.617   3.264   2.398  0.9177 -1.5577  0.3863
 5825TIP3    H238967   2.513   3.172   2.339  1.1791 -1.9676  0.5612
 5826TIP3   OH238968   0.647   1.610   4.901 -0.0607  0.7011 -0.1345
 5826TIP3    H138969   0.645   1.641   4.992  0.3855  0.8195 -0.1647
 5826TIP3    H238970   0.589   1.669   4.854  0.3959  1.1845 -0.0973
 5827TIP3   OH238971   0.020   1.637   6.130  0.5825  0.7829 -0.1040
 5827TIP3    H138972  -0.049   1.674   6.185 -2.7783 -2.5883 -1.6000
 5827TIP3    H238973   0.056   1.565   6.183  0.7883  0.5966 -0.4960
 5828TIP3   OH238974   2.421   2.924   1.536 -0.4508 -0.0464  0.0775
 5828TIP3    H138975   2.347   2.978   1.510 -0.0630  0.4483 -0.0003
 5828TIP3    H238976   2.394   2.885   1.620 -1.2198 -0.7062 -0.4559
 5829TIP3   OH238977   6.495   5.881  12.733  0.3339  0.3124  0.1734
 5829TIP3    H138978   6.440   5.883  12.812 -1.0789 -2.0029 -0.6428
 5829TIP3    H238979   6.468   5.959  12.684 -1.5661 -0.2249  0.2684
 5830TIP3   OH238980   2.900   5.694   1.604 -0.4166  0.5090  0.2055
 5830TIP3    H138981   2.868   5.784   1.616 -0.1153  0.5060  1.0845
 5830TIP3    H238982   2.838   5.640   1.652 -0.6237  0.2384 -0.3650
 5831TIP3   OH238983   5.951   6.407  10.591 -0.0244 -0.0081 -0.2317
 5831TIP3    H138984   6.040   6.375  10.575  0.5260  1.2592  0.2085
 5831TIP3    H238985   5.895   6.340  10.552  1.1211 -0.6597 -0.8307
 5832TIP3   OH238986   3.908   0.620   5.014  0.1360  0.2568 -0.2895
 5832TIP3    H138987   3.863   0.688   4.965 -0.3865 -0.6844 -1.1562
 5832TIP3    H238988   3.838   0.570   5.057  0.4972  0.1674  0.2071
 5833TIP3   OH238989   6.073   3.204   0.499 -0.3086  0.1015 -0.1264
 5833TIP3    H138990   6.153   3.254   0.511 -0.2982  0.1990 -0.5884
 5833TIP3    H238991   6.009   3.267   0.467  0.3403 -0.5862 -3.0863
 5834TIP3   OH238992   0.399   2.378   6.622  0.0150  0.4937  0.5259
 5834TIP3    H138993   0.461   2.351   6.689  0.9519 -0.8278 -0.8010
 5834TIP3    H238994   0.421   2.324   6.546 -3.4654 -0.8335  0.3158
 5835TIP3   OH238995   4.350   2.246   4.719  0.6630 -0.3755 -0.5045
 5835TIP3    H138996   4.288   2.184   4.681 -0.3009  0.3059 -0.1077
 5835TIP3    H238997   4.308   2.274   4.801  2.8057 -2.0157  1.2816
 5836TIP3   OH238998   0.791   0.657  15.729  0.0447 -0.5022  0.4662
 5836TIP3    H138999   0.716   0.682  15.675  0.2543 -0.0229  0.3899
 5836TIP3    H239000   0.867   0.695  15.685  0.7461 -3.4324 -1.1060
 5837TIP3   OH239001   4.264   1.620  11.751 -0.1418  0.0679  0.4835
 5837TIP3    H139002   4.172   1.649  11.755 -0.7732 -1.7964  0.3269
 5837TIP3    H239003   4.271   1.551  11.817  0.8072 -0.6884 -0.3678
 5838TIP3   OH239004   0.024   6.443   5.642 -0.2086 -0.4321 -0.4158
 5838TIP3    H139005   0.059   6.526   5.674  0.6988 -1.5847  1.7717
 5838TIP3    H239006  -0.005   6.462   5.552 -0.5297  2.3437  0.2001
 5839TIP3   OH239007   5.965   5.106  14.464  0.2970  0.3046  0.3703
 5839TIP3    H139008   6.039   5.122  14.522  0.8118  2.2532 -0.7390
 5839TIP3    H239009   5.997   5.042  14.401  0.4054 -0.2737  1.0043
 5840TIP3   OH239010   4.348   0.335   0.413  0.3878 -0.2588 -0.1608
 5840TIP3    H139011   4.325   0.382   0.493  0.5289  0.4106 -0.5078
 5840TIP3    H239012   4.283   0.265   0.407  1.0832 -1.0521  1.1580
 5841TIP3   OH239013   6.444   6.671  11.500  0.1800  0.4966 -0.7476
 5841TIP3    H139014   6.493   6.592  11.481 -0.3273  0.1907 -0.7886
 5841TIP3    H239015   6.496   6.715  11.567 -0.0225 -0.3564 -0.0076
 5842TIP3   OH239016   2.704   6.455   3.559  0.2898  0.1018  0.2884
 5842TIP3    H139017   2.736   6.433   3.472 -2.3854  2.5483 -1.4849
 5842TIP3    H239018   2.704   6.551   3.561 -2.2201  0.1565  1.9460
 5843TIP3   OH239019   5.179   1.056  12.752  0.0286 -0.3934 -0.3114
 5843TIP3    H139020   5.231   1.132  12.776 -1.9111  0.6338  0.8587
 5843TIP3    H239021   5.175   1.059  12.656  1.0639  0.1707 -0.3588
 5844TIP3   OH239022   1.353   0.683   3.349  0.3333  0.0634 -0.0757
 5844TIP3    H139023   1.387   0.770   3.327  0.3501  0.0199 -0.2251
 5844TIP3    H239024   1.259   0.689   3.332  0.2728  0.1677  0.2867
 5845TIP3   OH239025   0.502   0.495  11.892 -0.5342  0.1570 -0.2763
 5845TIP3    H139026   0.422   0.547  11.878 -1.6568 -0.2989  3.3294
 5845TIP3    H239027   0.556   0.550  11.949  0.3725 -0.7510 -0.2361
 5846TIP3   OH239028   6.816   0.004  16.537 -0.2096 -0.1459 -0.1342
 5846TIP3    H139029   6.887  -0.042  16.492 -1.2481 -1.1872 -0.7766
 5846TIP3    H239030   6.844   0.095  16.540  1.8241 -0.7425  0.9706
 5847TIP3   OH239031   4.012   1.875  15.245  0.2008  0.3928  0.7388
 5847TIP3    H139032   4.069   1.848  15.173 -1.1520  1.1998 -0.6772
 5847TIP3    H239033   3.924   1.877  15.207 -0.9779 -1.6110  3.0632
 5848TIP3   OH239034   0.731   3.023   2.993  0.1402 -0.4199  0.4474
 5848TIP3    H139035   0.808   3.061   3.036  1.9457 -1.6279 -1.5217
 5848TIP3    H239036   0.685   3.098   2.957  0.8309  0.2777  0.9601
 5849TIP3   OH239037   6.706   3.453  17.087 -0.0467  0.0611 -0.5551
 5849TIP3    H139038   6.684   3.430  16.997  1.4630  1.3562 -1.3143
 5849TIP3    H239039   6.788   3.409  17.104 -0.4287 -0.3491  0.2874
 5850TIP3   OH239040   5.871   1.581  14.402  0.2496 -0.4093  0.5565
 5850TIP3    H139041   5.871   1.559  14.495  2.2555 -2.3629  0.1783
 5850TIP3    H239042   5.838   1.503  14.358 -0.1979  0.3109 -0.4267
 5851TIP3   OH239043   5.870   0.008   3.875 -0.2542  0.0475 -0.3284
 5851TIP3    H139044   5.776   0.022   3.864 -0.1889  0.1599 -0.7940
 5851TIP3    H239045   5.881  -0.021   3.965 -0.5543  1.7408  0.2952
 5852TIP3   OH239046   6.361   4.605   0.932  0.9634  0.2378  0.5541
 5852TIP3    H139047   6.397   4.569   1.013  0.0806  1.1409  1.3789
 5852TIP3    H239048   6.368   4.700   0.942 -1.2616  0.4541  0.6255
 5853TIP3   OH239049   4.641   1.603   0.254 -0.2558  0.5045 -0.1982
 5853TIP3    H139050   4.619   1.658   0.178 -0.7626  0.3151 -0.1939
 5853TIP3    H239051   4.719   1.643   0.291  0.6660 -0.0300 -1.4705
 5854TIP3   OH239052   1.558   5.563   1.091 -0.0828 -0.1023  0.0635
 5854TIP3    H139053   1.505   5.600   1.161 -0.4172  3.6608 -1.9055
 5854TIP3    H239054   1.648   5.581   1.117 -0.0281 -1.3401  0.7927
 5855TIP3   OH239055   4.021   1.579   2.218  0.7326  0.5114 -0.1873
 5855TIP3    H139056   4.085   1.605   2.152  0.7081  0.2941 -0.2991
 5855TIP3    H239057   3.941   1.562   2.169  1.4490 -2.4248 -0.5202
 5856TIP3   OH239058   6.480   5.117   2.300  0.0558  0.0756  0.7157
 5856TIP3    H139059   6.532   5.152   2.373  0.9576  1.0566 -0.3389
 5856TIP3    H239060   6.440   5.195   2.261 -0.0259 -0.3690 -0.1069
 5857TIP3   OH239061   3.752   2.157   2.464 -1.0984  0.3044 -0.5763
 5857TIP3    H139062   3.696   2.198   2.529  0.1894  1.3117 -0.0631
 5857TIP3    H239063   3.832   2.134   2.511 -0.3809  0.4939 -1.6449
 5858TIP3   OH239064   3.508   6.734  15.898  0.8589  0.6735  0.4630
 5858TIP3    H139065   3.478   6.765  15.813  1.5994  0.9936  0.3086
 5858TIP3    H239066   3.448   6.664  15.921  0.9059  0.2984 -0.5212
 5859TIP3   OH239067   3.465   1.025   3.418  0.0127 -0.5614 -0.4460
 5859TIP3    H139068   3.514   0.998   3.496 -0.1917 -1.1821 -0.5317
 5859TIP3    H239069   3.532   1.040   3.352  0.3207  1.3046  0.2041
 5860TIP3   OH239070   6.437   1.086  15.504 -0.5838 -0.2521 -0.3522
 5860TIP3    H139071   6.378   1.151  15.465 -0.0524 -0.4727 -1.5547
 5860TIP3    H239072   6.483   1.134  15.573  0.1057  0.7892 -1.5049
 5861TIP3   OH239073   1.803   0.612   6.120 -0.2896  0.2721  0.4972
 5861TIP3    H139074   1.718   0.622   6.077 -0.0088 -0.8279 -0.3845
 5861TIP3    H239075   1.850   0.692   6.100 -0.7654  0.4693  0.1508
 5862TIP3   OH239076   2.032   3.871   2.875  0.6395  0.3277 -0.1731
 5862TIP3    H139077   2.046   3.953   2.923 -1.4919  2.6759 -3.1813
 5862TIP3    H239078   2.062   3.889   2.786 -1.8503 -1.3405 -1.4779
 5863TIP3   OH239079   6.784   3.452   2.619 -0.0639  0.1776  0.1781
 5863TIP3    H139080   6.754   3.383   2.560 -1.7694  0.6708  0.4261
 5863TIP3    H239081   6.753   3.425   2.705  0.8977  0.3305  0.5803
 5864TIP3   OH239082   0.550   0.594  16.805 -0.7441  0.1738 -0.0992
 5864TIP3    H139083   0.467   0.555  16.780 -1.4489  1.6349 -0.1108
 5864TIP3    H239084   0.527   0.679  16.844  0.8474  1.6002 -2.0709
 5865TIP3   OH239085   4.989   6.517  12.939  0.2830  0.2088  0.1240
 5865TIP3    H139086   5.011   6.429  12.970 -0.2966  0.1297  0.3168
 5865TIP3    H239087   4.894   6.524  12.950  0.2758  0.7350 -0.2108
 5866TIP3   OH239088   6.441   2.909   0.086  0.1366 -0.2487  0.0687
 5866TIP3    H139089   6.353   2.919   0.122 -0.3540 -1.8279 -0.5927
 5866TIP3    H239090   6.426   2.885  -0.006  1.3291  3.0801 -1.1444
 5867TIP3   OH239091   2.364   1.083   3.376  0.6143  0.5521  0.1499
 5867TIP3    H139092   2.399   1.150   3.435 -0.7404 -0.4176  2.1789
 5867TIP3    H239093   2.435   1.019   3.367  1.3266  1.4039 -0.4594
 5868TIP3   OH239094   5.349   5.498  11.442  0.4396  0.1294 -0.5743
 5868TIP3    H139095   5.273   5.469  11.392  1.1671  1.1671 -2.3743
 5868TIP3    H239096   5.330   5.590  11.464 -0.1932 -0.4866  1.8134
 5869TIP3   OH239097   1.695   3.047  10.095  0.1367 -0.4863 -0.4503
 5869TIP3    H139098   1.786   3.059  10.122  0.1145  0.2763 -0.6637
 5869TIP3    H239099   1.659   3.136  10.095 -0.8598 -0.8663  0.4824
 5870TIP3   OH239100   0.702   2.885  15.093  0.1584  0.2719  0.3497
 5870TIP3    H139101   0.638   2.933  15.145 -0.6508 -2.3283  1.9195
 5870TIP3    H239102   0.651   2.814  15.052  1.5202 -0.1035 -0.7586
 5871TIP3   OH239103   1.874   1.471  12.282  0.1225  0.0729 -0.3711
 5871TIP3    H139104   1.879   1.376  12.284 -0.1677  0.0374 -1.1453
 5871TIP3    H239105   1.962   1.500  12.307  0.2213 -0.3985 -0.1748
 5872TIP3   OH239106   3.941   0.422  12.858  0.3479  0.4095  0.2655
 5872TIP3    H139107   3.907   0.354  12.917  1.1639 -0.6812 -0.4721
 5872TIP3    H239108   3.902   0.402  12.773  0.7365  0.7519  0.0005
 5873TIP3   OH239109   1.270   1.150   0.733 -0.1133  0.4912 -0.5078
 5873TIP3    H139110   1.347   1.105   0.699 -0.9604 -1.3201 -0.1710
 5873TIP3    H239111   1.305   1.220   0.788  1.2659  0.2052 -0.9845
 5874TIP3   OH239112   0.616   6.805  12.249  0.4154  0.3995  0.0979
 5874TIP3    H139113   0.554   6.754  12.197 -0.0776 -0.1996  1.2347
 5874TIP3    H239114   0.591   6.788  12.340  2.0609  0.3913  0.5832
 5875TIP3   OH239115   5.697   0.229  16.082 -0.1816 -0.0358  0.2484
 5875TIP3    H139116   5.612   0.225  16.037  0.2608  1.5524 -0.8216
 5875TIP3    H239117   5.725   0.138  16.088 -1.3962 -0.4873 -0.5218
 5876TIP3   OH239118   5.114   5.550  13.692  0.1691 -0.4910  0.1117
 5876TIP3    H139119   5.038   5.568  13.747  0.2449  2.5987 -0.6165
 5876TIP3    H239120   5.095   5.465  13.651 -0.5250 -2.2424  3.6770
 5877TIP3   OH239121   2.549   0.135  15.925 -0.6606  0.8912  0.4012
 5877TIP3    H139122   2.472   0.089  15.892  1.0942 -2.1387  0.1277
 5877TIP3    H239123   2.527   0.228  15.917 -4.3344  0.1988  0.6027
 5878TIP3   OH239124   6.216   4.764  13.232 -0.1636  0.2288  0.5741
 5878TIP3    H139125   6.271   4.837  13.258  2.6094 -1.5030 -0.0279
 5878TIP3    H239126   6.173   4.736  13.313  2.2638 -0.2336  1.7892
 5879TIP3   OH239127   3.707   2.239   1.489  0.3164 -0.3402  0.1485
 5879TIP3    H139128   3.753   2.163   1.524 -1.6998 -1.1762  1.1289
 5879TIP3    H239129   3.703   2.301   1.562 -0.0194 -0.2531  0.0601
 5880TIP3   OH239130   0.032   6.030  16.413  0.0165  0.1693 -0.6476
 5880TIP3    H139131   0.105   6.079  16.453  0.7120 -0.0317 -1.6362
 5880TIP3    H239132   0.040   5.942  16.449 -0.9640  0.6287  0.7861
 5881TIP3   OH239133   2.584   3.630   3.944 -0.0810 -0.2225 -0.7441
 5881TIP3    H139134   2.644   3.705   3.941 -0.9245  0.5011  0.0597
 5881TIP3    H239135   2.545   3.627   3.856  2.3722 -1.7994 -1.9010
 5882TIP3   OH239136   1.990   5.808  13.828 -0.3458 -0.1059  0.3115
 5882TIP3    H139137   1.984   5.899  13.858  0.9034 -0.5443  2.0577
 5882TIP3    H239138   1.901   5.787  13.799 -0.6428  1.6877 -0.2383
 5883TIP3   OH239139   5.328   4.233  16.978 -0.7450  0.0420  0.7328
 5883TIP3    H139140   5.394   4.203  17.040 -0.6158 -1.6583 -0.1688
 5883TIP3    H239141   5.379   4.264  16.902 -0.9477 -0.0170  0.5713
 5884TIP3   OH239142   2.300   4.466   2.364  0.5590 -0.1686 -0.4179
 5884TIP3    H139143   2.305   4.554   2.401 -0.2493 -0.1328 -0.3781
 5884TIP3    H239144   2.243   4.476   2.288  2.0007 -0.2819 -1.5653
 5885TIP3   OH239145   0.309   3.038  15.439  0.6871 -0.1040 -0.0831
 5885TIP3    H139146   0.332   3.114  15.385  1.6087 -0.5329 -0.3249
 5885TIP3    H239147   0.262   2.980  15.379  2.1709 -0.8139 -0.6023
 5886TIP3   OH239148   6.183   6.094  14.963 -0.1627 -0.0784  0.2939
 5886TIP3    H139149   6.178   6.152  14.886 -0.3272  0.5349  0.7580
 5886TIP3    H239150   6.190   6.006  14.926 -0.8440  0.1586 -0.4296
 5887TIP3   OH239151   2.001   0.970   0.197  0.2826  0.1159  0.0420
 5887TIP3    H139152   2.082   1.011   0.166  0.3788 -0.3243 -0.3070
 5887TIP3    H239153   1.992   0.891   0.143 -0.2467  0.0274  0.2499
 5888TIP3   OH239154   3.158   5.043   1.724 -0.2741  0.2429  0.2067
 5888TIP3    H139155   3.161   5.069   1.631 -0.3811  1.9919  0.6553
 5888TIP3    H239156   3.197   4.956   1.725  1.4423  0.9053 -1.2619
 5889TIP3   OH239157   3.272   5.663   2.386 -0.1517 -0.3895  0.1662
 5889TIP3    H139158   3.198   5.705   2.430 -0.2977 -1.1160  0.6182
 5889TIP3    H239159   3.315   5.735   2.339 -1.9887 -0.1974 -1.3379
 5890TIP3   OH239160   6.031   2.915  12.808  0.0835  0.0702 -0.2243
 5890TIP3    H139161   5.993   2.977  12.747 -0.4371 -1.2830 -1.3199
 5890TIP3    H239162   6.110   2.883  12.765 -0.0041 -0.5053  0.0213
 5891TIP3   OH239163   5.760   0.270   1.493 -0.1410  0.0275 -0.6481
 5891TIP3    H139164   5.771   0.230   1.407 -1.5479 -0.4835 -0.6194
 5891TIP3    H239165   5.841   0.248   1.540 -0.3862 -1.8367 -1.0177
 5892TIP3   OH239166   0.959   4.704   3.331 -0.2627  0.0063  0.8881
 5892TIP3    H139167   1.038   4.741   3.293 -1.1003  0.2532 -0.6891
 5892TIP3    H239168   0.888   4.760   3.299 -1.2093 -0.9594  1.2235
 5893TIP3   OH239169   1.853   6.612   5.093  0.6168  0.4868  0.0970
 5893TIP3    H139170   1.794   6.594   5.167 -0.2902 -0.3616 -0.8002
 5893TIP3    H239171   1.801   6.664   5.033  0.5988 -0.6536 -0.9155
 5894TIP3   OH239172   6.209   6.785   4.276 -0.1798 -0.0858  0.7102
 5894TIP3    H139173   6.157   6.808   4.353 -1.7172 -0.7679 -0.0660
 5894TIP3    H239174   6.223   6.691   4.283 -0.9709 -0.2849 -0.1882
 5895TIP3   OH239175   4.654   0.319  17.022  0.7127  0.1556 -0.3283
 5895TIP3    H139176   4.647   0.364  17.106  0.6596 -1.5848  0.6363
 5895TIP3    H239177   4.633   0.387  16.957 -2.0754  0.9185  1.1830
 5896TIP3   OH239178   1.675   6.495   5.856 -0.1341  0.3704 -0.0790
 5896TIP3    H139179   1.763   6.532   5.857 -0.5946  1.8207 -2.8334
 5896TIP3    H239180   1.617   6.570   5.857 -1.2846 -0.4960 -0.0447
 5897TIP3   OH239181   6.121   5.378  16.980 -0.0120 -0.1026 -0.0466
 5897TIP3    H139182   6.105   5.385  17.074  0.5601 -0.3317  0.0714
 5897TIP3    H239183   6.183   5.305  16.971  1.0829  0.8440 -0.4618
 5898TIP3   OH239184   3.282   6.670  13.146  0.0540  0.3034 -0.4087
 5898TIP3    H139185   3.319   6.743  13.097 -1.9389  1.4254 -0.3567
 5898TIP3    H239186   3.312   6.682  13.236 -2.2766  2.6336  0.1692
 5899TIP3   OH239187   3.015   6.001   4.010  0.0063  0.3013 -0.6847
 5899TIP3    H139188   2.971   6.021   4.093  0.0435 -0.9696 -0.3486
 5899TIP3    H239189   2.953   5.947   3.962  1.2531 -1.7743 -0.0797
 5900TIP3   OH239190   4.182   2.286   2.612 -0.0945  0.4744 -0.0940
 5900TIP3    H139191   4.217   2.334   2.687  0.8516 -0.9582  0.4238
 5900TIP3    H239192   4.255   2.232   2.582 -0.2128  1.5890 -2.5844
 5901TIP3   OH239193   6.003   3.062  14.851  0.4000 -0.1417 -0.2073
 5901TIP3    H139194   5.944   3.100  14.915  0.0776 -0.1580 -0.4895
 5901TIP3    H239195   6.024   2.975  14.885 -0.2377 -0.3781 -0.4143
 5902TIP3   OH239196   0.861   3.327  11.681 -0.3976 -0.0939 -0.5501
 5902TIP3    H139197   0.816   3.304  11.600 -0.0965  0.4065 -0.8629
 5902TIP3    H239198   0.950   3.293  11.669 -0.4848 -0.4466 -0.2275
 5903TIP3   OH239199   1.415   2.903   4.744  0.3724 -0.0458 -0.3725
 5903TIP3    H139200   1.482   2.877   4.808  1.4275  1.4198 -0.8145
 5903TIP3    H239201   1.408   2.830   4.684 -0.2284 -1.2267  1.0675
 5904TIP3   OH239202   1.731   0.847  12.786 -0.2306 -0.1220 -0.5506
 5904TIP3    H139203   1.812   0.814  12.826  0.4726  0.1440 -1.7094
 5904TIP3    H239204   1.726   0.801  12.702 -0.3156  1.2023 -1.2885
 5905TIP3   OH239205   4.481   2.857  10.777 -0.4343 -0.0012  0.1528
 5905TIP3    H139206   4.476   2.929  10.714  0.4984  0.4440  0.5648
 5905TIP3    H239207   4.522   2.785  10.727 -1.4190 -0.2840 -0.2733
 5906TIP3   OH239208   5.903   4.901   3.363 -0.1862 -0.2033  0.0963
 5906TIP3    H139209   5.983   4.854   3.339 -0.2351 -0.2407  0.0067
 5906TIP3    H239210   5.887   4.877   3.454  0.2956  0.3486  0.3345
 5907TIP3   OH239211   3.742   6.316  15.273  0.1679  0.1588  0.4120
 5907TIP3    H139212   3.801   6.313  15.349 -0.6918  0.1356  1.0894
 5907TIP3    H239213   3.748   6.407  15.242 -0.0643  0.3742  0.9831
 5908TIP3   OH239214   1.265   1.189  12.091 -0.3677 -0.2913  0.6225
 5908TIP3    H139215   1.325   1.256  12.125  0.4627  0.7700 -2.6070
 5908TIP3    H239216   1.307   1.106  12.112 -0.0228  0.2516  2.2502
 5909TIP3   OH239217   3.097   5.723   2.114 -0.4481 -0.5957 -0.1552
 5909TIP3    H139218   3.095   5.810   2.154 -1.3127 -1.2440  1.2960
 5909TIP3    H239219   3.174   5.724   2.057  0.6305  0.5235  1.2680
 5910TIP3   OH239220   3.118   5.011   2.207  0.4774  0.1717  0.1501
 5910TIP3    H139221   3.146   4.980   2.121  0.3231 -0.2564  0.2563
 5910TIP3    H239222   3.100   5.104   2.194  0.8942  0.2074 -0.1748
 5911TIP3   OH239223   3.103   5.324   1.075 -0.3438  0.0033  0.2190
 5911TIP3    H139224   3.191   5.321   1.111  0.6097  3.1868 -1.4703
 5911TIP3    H239225   3.045   5.321   1.152  1.3442  0.7785  1.5744
 5912TIP3   OH239226   3.041   3.518  10.973 -0.2539  0.5133 -0.6238
 5912TIP3    H139227   3.062   3.473  10.891 -1.8163  0.1811 -0.8868
 5912TIP3    H239228   2.957   3.480  11.000 -0.2674  1.3458  0.5946
 5913TIP3   OH239229   4.441   3.416  14.313 -0.0610  0.0373 -0.3928
 5913TIP3    H139230   4.497   3.349  14.276  1.1930  0.9811 -0.2701
 5913TIP3    H239231   4.421   3.385  14.402  0.0341 -0.4275 -0.5311
 5914TIP3   OH239232   4.986   2.462   0.183  0.3817  0.2707 -0.1432
 5914TIP3    H139233   5.035   2.470   0.265  1.0677 -3.7231 -0.0022
 5914TIP3    H239234   5.051   2.477   0.115  0.5441  0.3463  0.0264
 5915TIP3   OH239235   5.350   6.432   2.630  0.5009 -0.1936  0.2173
 5915TIP3    H139236   5.437   6.434   2.590  0.9795 -1.2729  1.1469
 5915TIP3    H239237   5.360   6.482   2.712 -0.3709  1.6685 -0.7401
 5916TIP3   OH239238   6.280   5.792  16.405  0.2925  0.0148 -0.4511
 5916TIP3    H139239   6.322   5.875  16.426  0.3443 -0.1971  0.3352
 5916TIP3    H239240   6.255   5.799  16.313  3.3547 -0.4123 -1.4367
 5917TIP3   OH239241   2.967   3.483   6.141  0.1789 -0.3082 -0.9373
 5917TIP3    H139242   3.032   3.536   6.095 -0.4167  2.1631  0.8534
 5917TIP3    H239243   3.017   3.435   6.207  0.2791  1.8857  0.7045
 5918TIP3   OH239244   0.420   6.259  15.495  0.5041  0.0401 -0.6786
 5918TIP3    H139245   0.422   6.304  15.410  0.0118 -2.2615 -2.0045
 5918TIP3    H239246   0.481   6.185  15.484  0.6140 -0.1704  1.0733
 5919TIP3   OH239247   5.482   5.726  14.695  0.6254 -0.6981 -0.3184
 5919TIP3    H139248   5.458   5.719  14.787 -2.6212 -0.6493 -1.0563
 5919TIP3    H239249   5.509   5.638  14.670  1.4224 -0.7335  0.6159
 5920TIP3   OH239250   1.974   1.601   2.120 -0.3784 -0.0137 -0.4569
 5920TIP3    H139251   1.920   1.522   2.128  1.1858 -1.4071 -2.5796
 5920TIP3    H239252   2.057   1.570   2.085  1.1113  2.3391  0.7430
 5921TIP3   OH239253   1.861   1.638  15.882  0.4919  0.2040  0.2874
 5921TIP3    H139254   1.814   1.677  15.955 -0.9272  0.2686 -0.6148
 5921TIP3    H239255   1.845   1.544  15.889 -0.9658  0.3337 -0.7646
 5922TIP3   OH239256   6.808   6.498  11.840  0.4583  0.6980  0.7059
 5922TIP3    H139257   6.837   6.576  11.886  0.3168  1.3716 -0.3159
 5922TIP3    H239258   6.845   6.506  11.752 -0.6059  0.2577  0.1973
 5923TIP3   OH239259   6.626   0.169  12.152 -0.2511  0.3095 -0.3619
 5923TIP3    H139260   6.531   0.156  12.154 -0.4679  1.7141 -0.6309
 5923TIP3    H239261   6.647   0.172  12.059 -0.0178  0.4959 -0.3018
 5924TIP3   OH239262   3.583   4.110   4.263  0.3786  0.8018 -0.1229
 5924TIP3    H139263   3.517   4.171   4.230 -0.1924  0.4857  0.3981
 5924TIP3    H239264   3.632   4.161   4.327  0.5825  1.0156 -0.4496
 5925TIP3   OH239265   0.986   3.253  14.740 -0.0930 -0.2260 -0.1603
 5925TIP3    H139266   0.946   3.322  14.688 -0.5764 -1.0748 -0.9441
 5925TIP3    H239267   1.013   3.297  14.821 -1.1003  0.7136 -0.3012
 5926TIP3   OH239268   3.569   6.384  15.473 -0.5156 -0.2594  0.4699
 5926TIP3    H139269   3.627   6.370  15.398 -1.2512  1.6225 -0.5111
 5926TIP3    H239270   3.487   6.340  15.449 -1.3243  1.7143 -0.6549
 5927TIP3   OH239271   4.121   0.075   4.359  0.0118  0.4533 -0.0186
 5927TIP3    H139272   4.118   0.076   4.455  1.2726 -0.9311  0.0644
 5927TIP3    H239273   4.215   0.072   4.338 -0.2698 -0.4751 -1.2602
 5928TIP3   OH239274   4.086   6.147   4.509 -0.2922 -0.1423  0.3677
 5928TIP3    H139275   4.098   6.220   4.447  2.3153 -1.2831 -0.6112
 5928TIP3    H239276   4.133   6.175   4.588  0.4091 -0.6175  0.1182
 5929TIP3   OH239277   4.048   5.272   0.158 -0.1297  0.7221  0.6134
 5929TIP3    H139278   4.101   5.289   0.236 -0.8015  4.3933  0.4212
 5929TIP3    H239279   4.097   5.205   0.110  1.8005  0.4879  2.7396
 5930TIP3   OH239280   0.687   5.435  16.835  0.0919 -0.5256  0.5787
 5930TIP3    H139281   0.692   5.470  16.746  2.7886 -0.9706  0.4817
 5930TIP3    H239282   0.593   5.417  16.848 -0.6187  1.1993 -1.4744
 5931TIP3   OH239283   4.560   1.782   0.072  0.0452 -0.2260  1.0436
 5931TIP3    H139284   4.563   1.846   0.143 -0.3645  1.4063 -0.3600
 5931TIP3    H239285   4.571   1.833  -0.008  1.3164 -2.0905 -0.0812
 5932TIP3   OH239286   1.984   1.970  12.140 -0.1402  0.0792 -0.1756
 5932TIP3    H139287   1.935   1.891  12.114 -2.2523  0.5268  2.0557
 5932TIP3    H239288   1.961   2.035  12.073 -0.6644 -0.4143 -0.4887
 5933TIP3   OH239289   2.227   3.339  14.560  0.3759  0.0784  0.4815
 5933TIP3    H139290   2.182   3.358  14.477  1.7920 -1.8350 -0.8276
 5933TIP3    H239291   2.298   3.403  14.564  0.0620  0.4357  0.4455
 5934TIP3   OH239292   1.076   4.921   0.277 -0.1212 -0.3767  0.3497
 5934TIP3    H139293   1.084   5.012   0.307 -1.5903 -0.6695  1.7573
 5934TIP3    H239294   1.010   4.925   0.208  2.8286  0.2005 -2.7315
 5935TIP3   OH239295   6.019   0.626   4.119  0.5623 -0.5478  0.1936
 5935TIP3    H139296   6.030   0.613   4.213 -0.6294 -0.5688  0.3545
 5935TIP3    H239297   6.055   0.547   4.079 -0.2029 -1.1949  0.7369
 5936TIP3   OH239298   4.431   0.808   1.707 -0.2400 -0.1753 -0.2931
 5936TIP3    H139299   4.366   0.875   1.682 -0.1516 -0.4709 -1.3523
 5936TIP3    H239300   4.515   0.852   1.698 -0.2819  0.4015  1.6808
 5937TIP3   OH239301   6.747   3.266   3.924 -0.5116  0.1780  0.4146
 5937TIP3    H139302   6.816   3.204   3.947  0.6326  1.7869  1.5914
 5937TIP3    H239303   6.733   3.254   3.830  1.4894 -0.0808  0.1165
 5938TIP3   OH239304   3.930   3.915   1.313  0.0072 -0.3486 -0.0239
 5938TIP3    H139305   3.875   3.840   1.336 -1.2995  0.8170  0.8212
 5938TIP3    H239306   3.926   3.920   1.217 -1.6006 -0.1511  0.0319
 5939TIP3   OH239307   0.222   3.325   2.912 -0.0653 -0.1911  0.0021
 5939TIP3    H139308   0.280   3.259   2.949 -0.0626 -0.1725  0.0314
 5939TIP3    H239309   0.272   3.365   2.841  0.6624  1.0751  1.1704
 5940TIP3   OH239310   0.867   3.652   0.582  0.0431 -0.1117  0.0531
 5940TIP3    H139311   0.906   3.704   0.513  0.2699 -0.7735 -0.3212
 5940TIP3    H239312   0.828   3.576   0.537 -1.0954  0.1885  0.4792
 5941TIP3   OH239313   5.740   1.612   4.350 -0.0994 -0.3621  0.0260
 5941TIP3    H139314   5.768   1.536   4.300  0.2434  1.5659 -2.9311
 5941TIP3    H239315   5.814   1.673   4.346 -1.0975  0.9521  0.5203
 5942TIP3   OH239316   5.103   2.345   0.571 -0.2101  0.2522  0.5291
 5942TIP3    H139317   5.136   2.389   0.492  0.4807 -1.2630 -0.0738
 5942TIP3    H239318   5.182   2.323   0.620 -0.4406 -1.2974  0.2508
 5943TIP3   OH239319   1.219   5.274   1.880 -0.1543  0.7803 -0.1679
 5943TIP3    H139320   1.264   5.189   1.883  1.1857  1.3387 -2.2300
 5943TIP3    H239321   1.126   5.251   1.876  0.2336 -0.7564 -2.6422
 5944TIP3   OH239322   1.942   6.452  16.012 -0.6481  0.0691  0.6514
 5944TIP3    H139323   1.973   6.381  15.957  1.0586  0.5319  0.9554
 5944TIP3    H239324   1.859   6.421  16.047 -0.0755 -1.6569  0.5691
 5945TIP3   OH239325   0.946   3.231   0.289  0.6425 -0.4219 -0.3361
 5945TIP3    H139326   1.018   3.253   0.230  0.6701 -0.1685 -0.2107
 5945TIP3    H239327   0.928   3.313   0.336 -0.0256 -0.3651 -0.6811
 5946TIP3   OH239328   2.647   2.516  13.253  0.1550 -0.6019 -0.4475
 5946TIP3    H139329   2.592   2.473  13.187 -1.1754 -0.5639  0.5890
 5946TIP3    H239330   2.693   2.585  13.204  0.7634 -1.8563 -1.7161
 5947TIP3   OH239331   2.192   3.018  11.859 -0.2718 -0.1493 -0.0064
 5947TIP3    H139332   2.231   2.931  11.872  0.5266  0.0512 -0.9301
 5947TIP3    H239333   2.219   3.068  11.936  2.2032  0.2850 -1.0826
 5948TIP3   OH239334   6.412   3.100  12.437  0.5329 -0.2249 -0.0270
 5948TIP3    H139335   6.442   3.071  12.523  0.2188  0.3960  0.3000
 5948TIP3    H239336   6.437   3.030  12.378  1.0622 -0.5018  0.5172
 5949TIP3   OH239337   4.482   0.221  14.117 -0.2125 -0.2363  0.1928
 5949TIP3    H139338   4.568   0.233  14.156 -0.8531 -0.0231  1.6166
 5949TIP3    H239339   4.492   0.248  14.026  0.5542  2.5256  1.0069
 5950TIP3   OH239340   0.929   5.989  15.179  0.5808  0.5266 -0.0852
 5950TIP3    H139341   0.966   6.035  15.104  0.5663  1.6802  0.5901
 5950TIP3    H239342   0.987   6.012  15.252 -1.9578  3.3010  1.2549
 5951TIP3   OH239343   4.827   0.226   3.681  0.2824 -0.0959 -0.3470
 5951TIP3    H139344   4.735   0.233   3.707 -0.1938 -2.0134 -1.3452
 5951TIP3    H239345   4.863   0.313   3.698 -0.9857 -0.0593  2.7105
 5952TIP3   OH239346   4.529   5.602   5.283  0.2752  0.3181 -0.7123
 5952TIP3    H139347   4.611   5.637   5.247 -0.0449  2.1388  0.2463
 5952TIP3    H239348   4.535   5.618   5.377 -0.0917 -1.9038 -0.2395
 5953TIP3   OH239349   3.555   4.405   4.853  0.1915 -0.0798  0.3168
 5953TIP3    H139350   3.557   4.310   4.843 -0.5687  0.0043 -0.8427
 5953TIP3    H239351   3.634   4.426   4.903 -0.4079 -1.4587  1.9511
 5954TIP3   OH239352   4.477   5.682  16.164 -0.6620 -0.2744  0.0032
 5954TIP3    H139353   4.462   5.762  16.215 -1.3001 -0.1627 -0.3476
 5954TIP3    H239354   4.553   5.641  16.205 -0.3557  0.4886  0.2227
 5955TIP3   OH239355   2.981   4.462  13.663  0.2799  0.3218  0.0181
 5955TIP3    H139356   2.988   4.368  13.680  0.9441  0.5350  1.0185
 5955TIP3    H239357   2.940   4.468  13.577  2.1824 -0.9332 -1.0421
 5956TIP3   OH239358   0.213   4.726   3.998  0.5345  0.0183  0.1676
 5956TIP3    H139359   0.198   4.661   4.067  3.3708 -1.5697 -0.5742
 5956TIP3    H239360   0.244   4.804   4.045  0.2067 -0.2327  0.8223
 5957TIP3   OH239361   4.314   1.169   5.144 -0.4782 -0.5444  0.7263
 5957TIP3    H139362   4.228   1.173   5.102 -0.3496 -0.7423  0.4348
 5957TIP3    H239363   4.302   1.212   5.228 -0.2048  2.0052 -0.4372
 5958TIP3   OH239364   0.128   0.126  12.710  0.0316  0.1665 -0.0537
 5958TIP3    H139365   0.198   0.191  12.707  0.3418  0.0352  2.2911
 5958TIP3    H239366   0.081   0.144  12.791  0.6955 -3.0161  1.2172
 5959TIP3   OH239367   3.035   1.489   5.707  0.6390 -0.0524 -0.2547
 5959TIP3    H139368   3.009   1.580   5.725  0.4286  0.0492 -1.0175
 5959TIP3    H239369   3.003   1.440   5.782  0.7701  0.5102  0.1776
 5960TIP3   OH239370   5.817   3.388   4.917  0.4940  0.1665  0.3624
 5960TIP3    H139371   5.831   3.478   4.889 -0.9499  0.4470  0.5087
 5960TIP3    H239372   5.898   3.343   4.890  1.1107  1.4177  0.0203
 5961TIP3   OH239373   2.680   0.236   0.843  0.0009  0.0544  0.1013
 5961TIP3    H139374   2.697   0.225   0.749  1.8022  0.6084  0.3152
 5961TIP3    H239375   2.625   0.161   0.866 -1.7706  0.7125 -1.6625
 5962TIP3   OH239376   0.992   3.829   3.299  0.4524  0.0567 -0.1487
 5962TIP3    H139377   1.000   3.904   3.357  0.5685 -0.5270  0.6123
 5962TIP3    H239378   0.961   3.865   3.216 -1.3604  0.7144  0.7668
 5963TIP3   OH239379   1.692   5.031   2.565 -0.1495 -0.0500 -0.2884
 5963TIP3    H139380   1.650   5.047   2.649 -0.5495  0.9599 -0.6744
 5963TIP3    H239381   1.636   5.074   2.501  0.6542 -0.0071 -0.9747
 5964TIP3   OH239382   5.966   5.764  12.528  0.0039 -0.1842 -0.0791
 5964TIP3    H139383   5.994   5.760  12.437 -0.3054 -1.1805 -0.1415
 5964TIP3    H239384   6.048   5.759  12.578  0.2475  1.3357 -0.2964
 5965TIP3   OH239385   1.465   6.820  13.698 -0.0758  0.2067 -0.1727
 5965TIP3    H139386   1.459   6.752  13.630 -2.5812  1.0560 -0.9222
 5965TIP3    H239387   1.525   6.884  13.661 -1.1788  0.5187 -1.5572
 5966TIP3   OH239388   0.391   3.843   5.457 -0.3979  0.1987  0.1707
 5966TIP3    H139389   0.435   3.793   5.388 -2.1245 -1.3080  0.0814
 5966TIP3    H239390   0.454   3.845   5.529  0.0385 -1.5062 -0.1063
 5967TIP3   OH239391   6.165   2.686  12.247  0.0904 -0.1249 -0.0862
 5967TIP3    H139392   6.146   2.744  12.173 -1.3946 -0.1921  0.2060
 5967TIP3    H239393   6.187   2.745  12.319  2.5196 -0.0757 -0.7616
 5968TIP3   OH239394   0.832   3.247  11.066  0.4422  0.3278  0.2075
 5968TIP3    H139395   0.777   3.169  11.059  1.5196 -0.5371  0.8965
 5968TIP3    H239396   0.801   3.305  10.997 -2.5255  0.6643  1.6404
 5969TIP3   OH239397   4.135   3.371   3.152 -0.2094 -0.5814  0.0614
 5969TIP3    H139398   4.184   3.294   3.124  0.3343 -0.3068  0.2374
 5969TIP3    H239399   4.178   3.399   3.233 -0.4022 -0.0977  0.0036
 5970TIP3   OH239400   0.512   6.447  13.203  0.5266  0.1068  0.0377
 5970TIP3    H139401   0.563   6.496  13.139  2.3035  0.7280  1.8333
 5970TIP3    H239402   0.511   6.503  13.281  1.0776 -1.8992  1.5622
 5971TIP3   OH239403   0.482   6.209  14.905 -0.1429  0.1217  0.3621
 5971TIP3    H139404   0.539   6.174  14.837 -0.4368 -0.8866  0.6215
 5971TIP3    H239405   0.447   6.132  14.950  0.2184  0.7731  1.8102
 5972TIP3   OH239406   6.207   2.751   3.224  0.3636 -0.4978 -0.4220
 5972TIP3    H139407   6.168   2.797   3.150 -1.4162 -2.1807 -0.6287
 5972TIP3    H239408   6.229   2.664   3.189  2.3463 -0.3226  0.2759
 5973TIP3   OH239409   1.034   1.654  15.093  0.1728  0.0582 -0.0332
 5973TIP3    H139410   1.067   1.713  15.025  0.3566  0.3173  0.2746
 5973TIP3    H239411   1.110   1.639  15.150 -0.0242 -0.0105  0.2123
 5974TIP3   OH239412   2.121   6.395   2.822 -0.2943 -0.2239 -0.1265
 5974TIP3    H139413   2.094   6.389   2.913  0.2450  0.6247  0.1017
 5974TIP3    H239414   2.117   6.305   2.790 -2.0420 -0.3119  0.2593
 5975TIP3   OH239415   3.027   3.211  12.666  0.2414  0.6783 -0.0082
 5975TIP3    H139416   3.087   3.177  12.599 -0.7346 -0.4381 -0.3556
 5975TIP3    H239417   2.988   3.132  12.705 -0.4230  1.3629  0.7399
 5976TIP3   OH239418   1.888   3.044  12.056  0.0241 -0.3544  0.3234
 5976TIP3    H139419   1.885   2.954  12.089 -0.7980  0.2235  1.9197
 5976TIP3    H239420   1.876   3.098  12.134  0.5783  1.1522 -0.6027
 5977TIP3   OH239421   5.817   3.091   2.108 -0.7413  0.8171 -0.0797
 5977TIP3    H139422   5.894   3.147   2.123  0.5826 -0.8592 -0.3787
 5977TIP3    H239423   5.762   3.106   2.186  1.6229 -0.6745  2.0393
 5978TIP3   OH239424   2.146   3.516  12.024 -0.1272 -0.0383  0.0743
 5978TIP3    H139425   2.058   3.554  12.022  0.0535  0.5178  1.5534
 5978TIP3    H239426   2.166   3.498  11.932 -1.3026  0.9432 -0.4096
 5979TIP3   OH239427   4.373   2.652  12.936  0.0299  0.4724 -0.1014
 5979TIP3    H139428   4.345   2.697  13.016  1.7877 -0.9054  1.3811
 5979TIP3    H239429   4.467   2.669  12.931 -0.3653  2.4891 -3.2542
 5980TIP3   OH239430   5.158   3.490  16.069 -0.6411 -0.6961 -0.1721
 5980TIP3    H139431   5.208   3.408  16.070  0.4367 -0.1340  2.7799
 5980TIP3    H239432   5.222   3.558  16.047 -0.9889 -0.3737 -0.2068
 5981TIP3   OH239433   5.900   4.931   2.785 -0.0230  0.5298  0.2133
 5981TIP3    H139434   5.926   4.947   2.694  0.2866  0.4133  0.2800
 5981TIP3    H239435   5.980   4.902   2.828 -0.5341 -1.1074  0.1161
 5982TIP3   OH239436   3.376   6.263  15.133  0.1461  0.0496 -0.0797
 5982TIP3    H139437   3.434   6.315  15.188  0.3140 -1.6549  1.4215
 5982TIP3    H239438   3.384   6.174  15.166  0.3244 -1.1205 -2.9219
 5983TIP3   OH239439   4.269   1.338   0.077 -0.3308 -0.5655 -0.2170
 5983TIP3    H139440   4.305   1.363   0.162  0.7802  0.6632 -1.0181
 5983TIP3    H239441   4.177   1.319   0.095  0.1619 -1.5485  1.4684
 5984TIP3   OH239442   4.933   4.157   1.994  0.3108  0.1826 -0.2409
 5984TIP3    H139443   4.955   4.116   1.911 -2.9306 -1.0775 -0.6396
 5984TIP3    H239444   4.851   4.204   1.976 -0.3544  0.0606  2.1681
 5985TIP3   OH239445   3.941   4.186   0.474  0.1054 -0.0270 -0.4853
 5985TIP3    H139446   3.889   4.110   0.501  1.3868 -0.6676  0.2515
 5985TIP3    H239447   4.029   4.167   0.504  0.0376  2.8766  2.0451
 5986TIP3   OH239448   5.629   0.507  15.615  0.3131 -0.7202 -0.2613
 5986TIP3    H139449   5.575   0.447  15.563 -1.8283  2.7174 -2.4149
 5986TIP3    H239450   5.585   0.511  15.700  1.0435 -2.7966  0.2548
 5987TIP3   OH239451   5.766   6.588   5.062 -0.7822  0.1789 -0.2553
 5987TIP3    H139452   5.806   6.527   5.125 -0.4550  1.2708  0.6272
 5987TIP3    H239453   5.722   6.653   5.117 -1.5773  0.4469 -1.1877
 5988TIP3   OH239454   0.344   4.594   3.501  0.5182 -0.2324 -0.0168
 5988TIP3    H139455   0.361   4.655   3.429 -0.3548 -0.0778 -0.0950
 5988TIP3    H239456   0.393   4.630   3.575  1.3905 -0.3748 -0.5130
 5989TIP3   OH239457   4.458   4.953  15.554 -0.1963  0.6949  0.4331
 5989TIP3    H139458   4.384   4.893  15.565  0.3670  0.3281  2.4659
 5989TIP3    H239459   4.535   4.899  15.571  0.6270  1.0263 -1.8399
 5990TIP3   OH239460   1.220   0.698  16.418  0.1213 -0.2773  0.0605
 5990TIP3    H139461   1.197   0.621  16.472 -0.8031 -0.6850 -0.8791
 5990TIP3    H239462   1.136   0.736  16.395  0.5884  1.4395  1.0499
 5991TIP3   OH239463   6.046   6.781  13.483  0.5456  0.4616 -0.0745
 5991TIP3    H139464   6.049   6.868  13.443 -1.2036  0.7359  0.3255
 5991TIP3    H239465   5.998   6.727  13.420  2.1886 -0.4401 -0.6353
 5992TIP3   OH239466   2.628   6.591   5.798  0.3725  0.5033  0.4601
 5992TIP3    H139467   2.612   6.498   5.777  0.3089  0.5257  0.4090
 5992TIP3    H239468   2.719   6.593   5.829  0.3348  0.4050  0.5777
 5993TIP3   OH239469   5.582   1.239   2.941  0.2338 -0.7615  0.2452
 5993TIP3    H139470   5.566   1.334   2.948 -0.6809 -0.8569 -0.2794
 5993TIP3    H239471   5.677   1.230   2.945  0.4242  0.3214 -1.0241
 5994TIP3   OH239472   2.192   3.569  12.356  0.0445  0.1363  0.0087
 5994TIP3    H139473   2.147   3.519  12.424 -2.5503  2.4123  0.1339
 5994TIP3    H239474   2.124   3.586  12.291  0.8584  3.0631 -0.1983
 5995TIP3   OH239475   6.655   0.420   4.499  0.1742 -0.6918  0.5344
 5995TIP3    H139476   6.656   0.435   4.594 -0.8060 -0.5667  0.5431
 5995TIP3    H239477   6.570   0.455   4.471 -0.1220 -1.9377 -0.1809
 5996TIP3   OH239478   6.406   0.244  13.719 -0.4173 -0.2356 -0.6006
 5996TIP3    H139479   6.382   0.287  13.801  0.9021 -0.9990  0.2105
 5996TIP3    H239480   6.457   0.310  13.672  0.3350 -0.3931 -0.0168
 5997TIP3   OH239481   0.014   2.966   0.464 -1.1131  0.2244 -0.0775
 5997TIP3    H139482   0.029   3.060   0.452  1.8741 -0.0640  0.5358
 5997TIP3    H239483  -0.021   2.936   0.380 -1.0745  1.7166 -0.6546
 5998TIP3   OH239484   0.328   0.263  11.865  0.2748 -0.4190 -0.4677
 5998TIP3    H139485   0.395   0.331  11.879  0.2885 -0.7183  1.0514
 5998TIP3    H239486   0.341   0.236  11.774  2.0251 -0.2435 -0.3044
 5999TIP3   OH239487   2.971   5.128   6.295  0.1955  0.4673 -0.7572
 5999TIP3    H139488   2.944   5.049   6.249 -2.2190  0.0619  1.1442
 5999TIP3    H239489   3.066   5.120   6.300  0.1029 -1.9883 -1.2292
 6000TIP3   OH239490   5.212   6.619   6.766  0.0712 -0.5872  0.3288
 6000TIP3    H139491   5.172   6.609   6.853 -1.0766  0.0016 -0.1154
 6000TIP3    H239492   5.138   6.623   6.706  0.8437 -0.5807 -0.6406
 6001TIP3   OH239493   2.646   6.340  13.752  0.0726 -0.0554 -0.1855
 6001TIP3    H139494   2.556   6.309  13.744  0.2614 -0.2056 -2.3939
 6001TIP3    H239495   2.680   6.295  13.830 -1.5280 -0.5485  0.2669
 6002TIP3   OH239496   6.184   1.113   3.011 -0.0969  0.3766 -0.2646
 6002TIP3    H139497   6.232   1.143   2.934  1.0134  1.1284  0.6934
 6002TIP3    H239498   6.207   1.175   3.080  1.7841 -2.2680  1.6575
 6003TIP3   OH239499   0.833   0.009  12.535  0.8610  0.8194  0.2550
 6003TIP3    H139500   0.816  -0.065  12.477 -1.6084 -0.2330  2.1055
 6003TIP3    H239501   0.904  -0.022  12.592  1.8501  1.0631 -0.7982
 6004TIP3   OH239502   4.397   1.869   5.275 -0.1167  0.2424 -0.1602
 6004TIP3    H139503   4.326   1.930   5.296 -0.3327 -0.0910  0.0915
 6004TIP3    H239504   4.369   1.786   5.313  0.1848 -0.0087 -0.4809
 6005TIP3   OH239505   3.356   1.441  16.790 -0.4901 -0.7693  0.1439
 6005TIP3    H139506   3.305   1.522  16.782 -3.5123 -2.6069 -0.6221
 6005TIP3    H239507   3.425   1.451  16.725 -0.6780  1.2424  0.1678
 6006TIP3   OH239508   0.519   2.509  16.613  0.0880 -0.1377 -0.6873
 6006TIP3    H139509   0.566   2.465  16.543  0.1133  0.1831 -0.8735
 6006TIP3    H239510   0.585   2.566  16.654  0.0265 -0.1827 -0.5262
 6007TIP3   OH239511   2.926   5.903  15.892  0.2191 -0.3117  0.3093
 6007TIP3    H139512   2.994   5.839  15.910  2.3001  0.6497 -3.1119
 6007TIP3    H239513   2.846   5.852  15.882  0.9837 -1.8315  1.6314
 6008TIP3   OH239514   0.532   0.543   2.243 -0.0388 -0.5465  0.0625
 6008TIP3    H139515   0.613   0.491   2.243 -0.1337 -0.7268  1.2272
 6008TIP3    H239516   0.498   0.535   2.155  1.1981 -0.5063 -0.4415
 6009TIP3   OH239517   4.429   0.956  12.423  0.4415  0.0818  0.6747
 6009TIP3    H139518   4.401   0.945  12.332  1.0053 -0.1801  0.5285
 6009TIP3    H239519   4.524   0.959  12.418  0.4435  1.1341  1.1417
 6010TIP3   OH239520   3.675   0.369  14.594  0.2588 -0.4685  0.0073
 6010TIP3    H139521   3.613   0.402  14.530 -1.2877 -1.4876  0.9174
 6010TIP3    H239522   3.719   0.296  14.550  1.1310  0.5118 -0.7776
 6011TIP3   OH239523   2.295   4.502   0.094 -0.1570 -0.0755 -0.3144
 6011TIP3    H139524   2.301   4.463   0.007 -1.8198  0.8859 -0.9048
 6011TIP3    H239525   2.226   4.451   0.138 -2.1512  1.8661 -0.9944
 6012TIP3   OH239526   5.593   6.227  14.451  0.0709  0.1100 -0.5421
 6012TIP3    H139527   5.619   6.135  14.442 -0.5769 -0.1591  0.2113
 6012TIP3    H239528   5.664   6.276  14.409  0.2536 -0.7463 -1.2767
 6013TIP3   OH239529   2.208   0.705  16.266 -0.3345  0.2203 -0.3363
 6013TIP3    H139530   2.239   0.637  16.206  0.1017  1.3321 -1.4207
 6013TIP3    H239531   2.225   0.670  16.353  0.3391 -0.8410 -0.8741
 6014TIP3   OH239532   3.567   1.091  15.889 -0.6664 -0.0449 -0.9123
 6014TIP3    H139533   3.603   1.002  15.887 -1.1286 -0.3785  1.9545
 6014TIP3    H239534   3.644   1.147  15.900 -0.6278 -0.4187  0.9561
 6015TIP3   OH239535   4.161   1.854  11.295  0.2987  0.0638  0.0252
 6015TIP3    H139536   4.151   1.942  11.331  1.1882  0.1197  0.1528
 6015TIP3    H239537   4.110   1.798  11.353  1.7910  0.1344  1.4556
 6016TIP3   OH239538   6.269   2.899  15.280 -0.0270 -0.1476 -0.3974
 6016TIP3    H139539   6.318   2.834  15.229 -0.5719 -0.8996  0.0241
 6016TIP3    H239540   6.213   2.942  15.217 -0.2329 -0.6346 -0.5494
 6017TIP3   OH239541   4.243   2.159  16.480  0.4158 -0.1623 -0.0976
 6017TIP3    H139542   4.154   2.131  16.500 -0.9300  3.7495  0.1321
 6017TIP3    H239543   4.276   2.197  16.561  1.5038  0.2957 -0.7225
 6018TIP3   OH239544   2.961   1.618   4.306 -0.1444 -0.7088 -0.2225
 6018TIP3    H139545   2.980   1.543   4.363  0.0661 -0.2731  0.2850
 6018TIP3    H239546   3.033   1.619   4.243 -1.4086 -2.4250 -1.8187
 6019TIP3   OH239547   1.987   2.926   5.827  0.0302 -0.1579 -0.1992
 6019TIP3    H139548   1.921   2.913   5.895 -0.3419  2.8840  0.1521
 6019TIP3    H239549   1.941   2.911   5.745 -1.0520  1.5135  0.0611
 6020TIP3   OH239550   6.483   4.640   3.318  0.0401  0.2986  0.0210
 6020TIP3    H139551   6.550   4.595   3.370  2.0889  2.6837 -0.3985
 6020TIP3    H239552   6.424   4.678   3.383  0.2079 -0.1781  0.4589
 6021TIP3   OH239553   5.875   4.048  16.232 -0.1275  0.3216  0.1227
 6021TIP3    H139554   5.910   4.013  16.314 -0.3470 -0.2835 -0.0394
 6021TIP3    H239555   5.949   4.094  16.192  0.4354 -0.7463 -0.1102
 6022TIP3   OH239556   4.966   5.132  11.305  0.3747 -0.2929 -0.0296
 6022TIP3    H139557   5.017   5.054  11.329  0.9739  0.5762  1.7013
 6022TIP3    H239558   4.923   5.158  11.386 -0.2005  0.9106 -0.6989
 6023TIP3   OH239559   1.636   5.998   6.827 -0.0551  0.5137 -0.5140
 6023TIP3    H139560   1.609   5.932   6.890  0.3478 -0.0830 -0.9500
 6023TIP3    H239561   1.630   6.081   6.874 -0.2837  0.1362  0.1313
 6024TIP3   OH239562   1.789   5.392  13.389  0.2113  0.4283 -0.0943
 6024TIP3    H139563   1.703   5.358  13.368 -0.3227  3.0381 -2.9610
 6024TIP3    H239564   1.850   5.336  13.340 -0.2871  0.9391 -1.3590
 6025TIP3   OH239565   1.035   6.687   3.794 -0.9055  0.7882 -0.3496
 6025TIP3    H139566   1.119   6.675   3.747 -1.0156  1.0347 -0.6104
 6025TIP3    H239567   0.970   6.692   3.724 -1.3808 -1.1980 -0.1248
 6026TIP3   OH239568   2.901   5.803   4.783 -0.0460 -0.0342 -0.6255
 6026TIP3    H139569   2.894   5.778   4.875 -0.1842 -1.2750 -0.9549
 6026TIP3    H239570   2.935   5.725   4.739  3.3441  1.5567 -1.1354
 6027TIP3   OH239571   1.680   0.088  13.413 -0.0347 -0.5891 -0.0100
 6027TIP3    H139572   1.716  -0.000  13.401 -1.0795 -0.9698 -0.4871
 6027TIP3    H239573   1.705   0.112  13.502  1.7882 -0.6266 -0.4644
 6028TIP3   OH239574   5.701   6.345   4.306  0.4880 -0.4242 -0.6295
 6028TIP3    H139575   5.757   6.268   4.306  0.6028 -0.3547 -1.6682
 6028TIP3    H239576   5.651   6.338   4.225 -0.0398  0.2119 -0.3681
 6029TIP3   OH239577   1.327   2.156   0.165  0.3790 -0.4394 -0.3988
 6029TIP3    H139578   1.242   2.141   0.123 -0.3790  0.7667  0.6525
 6029TIP3    H239579   1.321   2.113   0.250  0.2165  0.9592  0.3282
 6030TIP3   OH239580   0.604   3.176   1.715  0.1724 -0.2509  0.5660
 6030TIP3    H139581   0.512   3.196   1.734  0.3815 -0.2171  1.5633
 6030TIP3    H239582   0.602   3.091   1.672 -0.4640  0.4889 -0.9675
 6031TIP3   OH239583   4.094   2.534   5.431  0.2971 -0.1793 -0.6071
 6031TIP3    H139584   4.044   2.458   5.460  1.0765 -0.1154  1.0158
 6031TIP3    H239585   4.048   2.609   5.470 -0.4292  0.2076 -2.1420
 6032TIP3   OH239586   3.210   2.022   4.265  0.5447 -0.2310  0.0401
 6032TIP3    H139587   3.251   1.939   4.289 -1.0915 -1.0745  0.0005
 6032TIP3    H239588   3.260   2.052   4.189  0.8058 -1.4520 -0.2932
 6033TIP3   OH239589   4.293   3.419  16.289  0.0467 -0.1610 -0.1611
 6033TIP3    H139590   4.344   3.388  16.214 -1.6812  0.2526 -1.5605
 6033TIP3    H239591   4.223   3.356  16.299  0.2665 -0.2224  1.1573
 6034TIP3   OH239592   2.923   4.328   0.283 -0.6320  0.4562 -0.6211
 6034TIP3    H139593   2.926   4.422   0.299  0.2035  0.3707 -0.2176
 6034TIP3    H239594   2.989   4.314   0.215 -0.4754  0.1083 -0.3957
 6035TIP3   OH239595   2.694   3.209   2.668 -0.6582 -0.5612  0.1606
 6035TIP3    H139596   2.766   3.152   2.639  0.5075  1.3054 -0.8692
 6035TIP3    H239597   2.645   3.227   2.587 -0.6761  0.3161  0.3622
 6036TIP3   OH239598   1.100   0.084   5.644  0.6146 -0.1630 -0.1951
 6036TIP3    H139599   1.095  -0.011   5.642 -0.4705 -0.1216  0.2497
 6036TIP3    H239600   1.096   0.110   5.552  0.2627 -0.5186 -0.2831
 6037TIP3   OH239601   0.918   3.541  16.621  0.1417 -0.1569  0.2910
 6037TIP3    H139602   0.902   3.538  16.527  0.4899 -0.1374  0.2297
 6037TIP3    H239603   0.968   3.621  16.634 -1.6876  0.9774  0.7809
 6038TIP3   OH239604   5.823   2.468  16.354 -0.3118  0.4562 -0.3667
 6038TIP3    H139605   5.867   2.437  16.275  0.3359 -0.0091  0.1650
 6038TIP3    H239606   5.847   2.405  16.422  1.4964  2.3507  0.8905
 6039TIP3   OH239607   2.320   0.173  13.961 -0.1900 -0.0950  0.0961
 6039TIP3    H139608   2.255   0.175  13.891  1.3374  1.6226 -1.3690
 6039TIP3    H239609   2.350   0.263  13.969  1.8679 -0.7888  0.8469
 6040TIP3   OH239610   2.575   1.132   2.268 -0.3883  0.2092  0.3221
 6040TIP3    H139611   2.488   1.159   2.240  0.5803  1.1483 -2.0339
 6040TIP3    H239612   2.616   1.212   2.300  1.0428  0.8212 -2.7316
 6041TIP3   OH239613   6.254   2.298   0.636 -0.0168  0.0388 -0.1145
 6041TIP3    H139614   6.338   2.341   0.624  0.0691 -0.0706  0.0787
 6041TIP3    H239615   6.194   2.345   0.579  0.0215  0.5706  0.2791
 6042TIP3   OH239616   0.734   0.395  11.742 -0.3711  0.3487  0.0728
 6042TIP3    H139617   0.810   0.361  11.790  0.4074  1.3738 -0.3968
 6042TIP3    H239618   0.679   0.433  11.809  0.2119  0.8480  0.2761
 6043TIP3   OH239619   4.091   1.696   1.696  0.1962 -0.0996 -0.7878
 6043TIP3    H139620   4.033   1.732   1.628  0.7455  1.1669 -0.6102
 6043TIP3    H239621   4.166   1.754   1.696  0.7289 -0.7716  0.1267
 6044TIP3   OH239622   4.572   4.233   4.600  0.0580  0.7977 -0.2698
 6044TIP3    H139623   4.571   4.278   4.515  0.9189  1.0432 -0.1600
 6044TIP3    H239624   4.596   4.301   4.663  2.6247 -0.0157 -0.2629
 6045TIP3   OH239625   2.304   0.765   0.234 -0.1327 -0.2935  0.0198
 6045TIP3    H139626   2.265   0.730   0.154 -0.6928 -0.5226  0.3841
 6045TIP3    H239627   2.397   0.750   0.224 -0.3138 -1.3962 -0.0791
 6046TIP3   OH239628   2.015   2.947  16.891  0.5529  0.2547  0.1816
 6046TIP3    H139629   2.089   2.969  16.947  1.6187 -0.0019 -1.0658
 6046TIP3    H239630   1.993   3.029  16.847  1.7519 -0.1682 -1.2921
 6047TIP3   OH239631   4.416   5.416   2.025 -0.0459 -0.4320 -0.0912
 6047TIP3    H139632   4.359   5.475   2.075  1.8063  0.6632  0.8310
 6047TIP3    H239633   4.488   5.395   2.085  0.9186 -1.1513 -1.4449
 6048TIP3   OH239634   0.042   0.977   3.745  0.0091  0.4604 -0.3975
 6048TIP3    H139635   0.036   1.046   3.811  1.5458  1.1297 -0.9184
 6048TIP3    H239636   0.105   0.915   3.780  0.9603  0.8995 -1.2838
 6049TIP3   OH239637   2.233   3.199   6.042  0.3552 -0.5519 -0.1694
 6049TIP3    H139638   2.199   3.125   6.093 -3.3792  0.6520 -0.5591
 6049TIP3    H239639   2.197   3.277   6.086  1.5543  0.8552 -1.5636
 6050TIP3   OH239640   1.127   4.727   0.450  0.3681 -0.1689  0.2904
 6050TIP3    H139641   1.112   4.808   0.401 -0.2355  0.5132  1.5575
 6050TIP3    H239642   1.071   4.662   0.408  1.8737 -0.3458 -1.6202
 6051TIP3   OH239643   0.856   3.331   5.613 -0.6097  0.1925 -0.7015
 6051TIP3    H139644   0.920   3.311   5.545  0.2891 -0.4666  0.3120
 6051TIP3    H239645   0.856   3.426   5.619  0.1132  0.2092 -0.8669
 6052TIP3   OH239646   1.458   6.341   0.034 -1.0608  0.3675  0.2907
 6052TIP3    H139647   1.501   6.257   0.020  0.0699  0.9748 -0.0930
 6052TIP3    H239648   1.377   6.320   0.081  0.0287 -0.7598  1.7633
 6053TIP3   OH239649   1.231   3.335   1.562 -0.2443 -0.0843 -0.3136
 6053TIP3    H139650   1.271   3.315   1.647  0.2225 -0.4851 -0.6240
 6053TIP3    H239651   1.139   3.314   1.573 -0.6678  2.0139  0.8081
 6054TIP3   OH239652   0.369   5.105  12.382  0.5717 -0.0164 -0.0813
 6054TIP3    H139653   0.383   5.174  12.446 -1.6805  1.5024 -1.1207
 6054TIP3    H239654   0.454   5.096  12.338  0.7767  2.6168 -0.3952
 6055TIP3   OH239655   2.412   1.641  13.379 -0.3198  0.2973 -0.5172
 6055TIP3    H139656   2.439   1.725  13.417  1.2810 -0.0257 -0.8543
 6055TIP3    H239657   2.344   1.609  13.438  0.1338  1.1192  0.4902
 6056TIP3   OH239658   6.252   2.296  15.936  0.2509  0.3890 -0.0487
 6056TIP3    H139659   6.245   2.229  15.867 -0.7579 -0.6672  1.0326
 6056TIP3    H239660   6.303   2.366  15.895  0.8827 -0.7919 -1.4098
 6057TIP3   OH239661   5.389   5.210  11.051  0.0069 -0.2885 -0.0055
 6057TIP3    H139662   5.470   5.255  11.077 -0.4014 -0.2593  1.2268
 6057TIP3    H239663   5.326   5.231  11.119 -1.9072  1.9262 -2.2426
 6058TIP3   OH239664   2.416   2.647  13.380 -0.3380  0.0117  0.0733
 6058TIP3    H139665   2.337   2.602  13.353 -2.1485  2.7595  0.3702
 6058TIP3    H239666   2.485   2.582  13.373 -1.6704 -1.2471 -5.0444
 6059TIP3   OH239667   5.957   1.662   2.897 -0.4184  0.2828 -0.1503
 6059TIP3    H139668   6.040   1.666   2.849 -0.0031  0.3402  0.5526
 6059TIP3    H239669   5.983   1.667   2.989 -1.1275 -0.6853  0.1221
 6060TIP3   OH239670   2.539   2.421   6.074  0.0656 -0.2124 -0.5022
 6060TIP3    H139671   2.494   2.487   6.022 -0.8006 -0.0023  0.4636
 6060TIP3    H239672   2.469   2.364   6.105  0.6223 -0.6684 -0.0568
 6061TIP3   OH239673   0.351   4.735   5.021  0.4754  0.0405  0.1360
 6061TIP3    H139674   0.395   4.802   5.073 -0.0435 -0.3310  1.0823
 6061TIP3    H239675   0.304   4.681   5.085  0.9914 -1.3218 -0.5853
 6062TIP3   OH239676   2.568   6.053   4.242 -0.1974 -0.1945  0.0688
 6062TIP3    H139677   2.527   6.007   4.315 -0.6714  0.5639  0.2984
 6062TIP3    H239678   2.495   6.076   4.185  0.1330 -0.4814 -0.4732
 6063TIP3   OH239679   4.094   1.708   5.103  0.6680 -0.1111  0.2254
 6063TIP3    H139680   4.149   1.639   5.065 -0.2392 -0.4843 -0.4421
 6063TIP3    H239681   4.143   1.738   5.179  2.3790  0.4118 -1.0241
 6064TIP3   OH239682   6.041   5.317   0.582 -0.3846  0.0050 -0.1705
 6064TIP3    H139683   6.064   5.338   0.673 -0.3939 -0.6182 -0.0213
 6064TIP3    H239684   5.946   5.307   0.584 -0.7732  2.6954 -0.8082
 6065TIP3   OH239685   6.221   0.064  11.166 -0.6740  0.8551  0.1649
 6065TIP3    H139686   6.242   0.112  11.086  0.1802 -1.0399 -0.8084
 6065TIP3    H239687   6.306   0.033  11.198 -1.2764 -1.2102 -0.0851
 6066TIP3   OH239688   3.671   0.923   1.652  0.0348 -0.0832  0.0116
 6066TIP3    H139689   3.728   0.940   1.728  1.3160 -0.3733 -0.8493
 6066TIP3    H239690   3.732   0.912   1.579 -1.2248  1.1397 -1.2617
 6067TIP3   OH239691   0.610   2.210  10.401  0.2275  0.2376  0.2955
 6067TIP3    H139692   0.533   2.172  10.444  0.5514 -0.0579  0.6242
 6067TIP3    H239693   0.645   2.139  10.348  0.2560  0.3826  0.1204
 6068TIP3   OH239694   0.614   5.872   2.399 -0.3409 -0.0708 -0.4441
 6068TIP3    H139695   0.555   5.898   2.327 -2.4830  1.2393  1.6417
 6068TIP3    H239696   0.578   5.788   2.429 -2.4385  1.5506  1.9706
 6069TIP3   OH239697   3.390   5.759   1.003 -0.0106  0.3308  0.1056
 6069TIP3    H139698   3.347   5.778   0.919 -0.5688  0.2067  0.3623
 6069TIP3    H239699   3.377   5.838   1.055 -3.5780 -1.0733  1.7059
 6070TIP3   OH239700   4.440   0.957   3.962 -0.4657  0.4989 -0.2719
 6070TIP3    H139701   4.345   0.943   3.956 -0.1868 -1.6824 -0.4888
 6070TIP3    H239702   4.456   1.033   3.906 -1.9429  0.0830 -1.3384
 6071TIP3   OH239703   3.756   2.162  14.646 -0.0171  0.3394 -0.7003
 6071TIP3    H139704   3.770   2.082  14.696 -0.5875  0.2614 -0.6669
 6071TIP3    H239705   3.813   2.151  14.569 -0.4516 -0.3183 -0.9415
 6072TIP3   OH239706   4.290   1.679   0.108  0.0007 -0.1228  0.3618
 6072TIP3    H139707   4.231   1.754   0.104  0.5182  0.2565 -2.6446
 6072TIP3    H239708   4.378   1.717   0.109  0.2574 -0.7002  0.7421
 6073TIP3   OH239709   2.513   1.130  16.902 -0.1234  0.4357 -0.1269
 6073TIP3    H139710   2.514   1.224  16.884  2.7069  0.4146 -0.4434
 6073TIP3    H239711   2.512   1.089  16.815 -1.2189  0.1474  0.0099
 6074TIP3   OH239712   6.679   0.126   3.698  0.3190 -0.2829  0.1326
 6074TIP3    H139713   6.670   0.036   3.666 -0.9259  0.0676 -0.5929
 6074TIP3    H239714   6.712   0.116   3.787 -2.4386 -1.6624  1.1557
 6075TIP3   OH239715   0.747   2.601  12.894 -0.4827  0.3563  0.1599
 6075TIP3    H139716   0.761   2.592  12.799  0.1396  0.7077  0.2106
 6075TIP3    H239717   0.835   2.612  12.930 -0.6989 -0.0572  0.8148
 6076TIP3   OH239718   3.145   2.289   4.466 -0.8566  0.2839 -0.0923
 6076TIP3    H139719   3.098   2.207   4.452 -0.2541 -0.3085  1.2125
 6076TIP3    H239720   3.238   2.264   4.465 -0.6870  0.7593  1.2946
 6077TIP3   OH239721   4.277   0.769   3.462 -0.1447  0.5263  0.3173
 6077TIP3    H139722   4.369   0.753   3.481  0.2198 -0.0044 -1.6608
 6077TIP3    H239723   4.229   0.714   3.524  0.9051 -0.0733  0.6112
 6078TIP3   OH239724   3.243   0.816  13.714 -0.5603  0.2750 -1.1154
 6078TIP3    H139725   3.232   0.906  13.683 -3.5326  0.9983  1.4769
 6078TIP3    H239726   3.311   0.823  13.781 -0.7476  0.5999 -0.9561
 6079TIP3   OH239727   0.188   5.764  14.319 -0.2252  0.0439  0.4792
 6079TIP3    H139728   0.235   5.776  14.236 -1.6684  0.8155 -0.2535
 6079TIP3    H239729   0.174   5.669  14.324  0.8559 -0.1410  0.4305
 6080TIP3   OH239730   0.802   4.241   0.648  0.4241 -0.1232  0.8604
 6080TIP3    H139731   0.814   4.267   0.740  1.6283 -0.2296  0.7531
 6080TIP3    H239732   0.805   4.323   0.600 -0.4005 -0.0501  0.9314
 6081TIP3   OH239733   0.847   1.493   2.680 -0.0337  0.6709  0.3623
 6081TIP3    H139734   0.768   1.545   2.693 -2.1241 -2.3700  0.7479
 6081TIP3    H239735   0.833   1.414   2.731  2.4487 -0.8460 -1.0762
 6082TIP3   OH239736   6.151   6.618   0.405  0.0921 -0.0749 -0.0600
 6082TIP3    H139737   6.163   6.542   0.348 -0.6595 -0.1674 -0.1063
 6082TIP3    H239738   6.099   6.679   0.354  0.6598  0.4703 -0.0062
 6083TIP3   OH239739   2.965   2.622   2.439 -0.3500 -0.6044 -0.2125
 6083TIP3    H139740   3.032   2.587   2.497 -0.3200 -0.5505 -0.2144
 6083TIP3    H239741   2.944   2.708   2.475 -0.3699 -0.5935 -0.2500
 6084TIP3   OH239742   3.635   6.739   3.360 -0.5495  0.8673  0.4476
 6084TIP3    H139743   3.698   6.708   3.425 -1.4235  0.6390  1.1978
 6084TIP3    H239744   3.592   6.814   3.401 -0.4794  1.2908 -0.2282
 6085TIP3   OH239745   1.212   1.105   5.573 -0.3594  0.0975 -0.1861
 6085TIP3    H139746   1.121   1.076   5.582 -1.1168  1.5933 -2.2936
 6085TIP3    H239747   1.246   1.055   5.499 -0.2412  1.2475 -0.9209
 6086TIP3   OH239748   4.591   5.585  16.651 -0.3552 -0.4633 -0.0172
 6086TIP3    H139749   4.568   5.493  16.663 -2.8606 -0.1482 -1.6914
 6086TIP3    H239750   4.610   5.616  16.740 -1.4058 -2.1322  0.8583
 6087TIP3   OH239751   5.513   3.221   1.980  0.0140 -0.1847  0.0147
 6087TIP3    H139752   5.532   3.292   1.918  2.7187 -1.6440 -0.9923
 6087TIP3    H239753   5.556   3.249   2.061  0.1211 -0.1629 -0.0485
 6088TIP3   OH239754   2.131   0.716  14.347 -0.3282  0.2635  0.3687
 6088TIP3    H139755   2.073   0.723  14.423 -0.3021  1.8227  0.2838
 6088TIP3    H239756   2.207   0.769  14.371  0.4681 -0.6483 -0.0687
 6089TIP3   OH239757   0.338   3.535   1.123 -0.3276  0.2508  0.0713
 6089TIP3    H139758   0.361   3.442   1.131  1.0159  0.3650 -1.6434
 6089TIP3    H239759   0.422   3.579   1.111 -0.9673  1.6632  0.6258
 6090TIP3   OH239760   0.484   1.119  16.698  0.1366  0.3677 -0.3482
 6090TIP3    H139761   0.493   1.147  16.789  0.4536  0.9981 -0.5684
 6090TIP3    H239762   0.573   1.103  16.669  0.1831  1.7588 -1.0296
 6091TIP3   OH239763   0.361   4.239   3.025 -0.3175 -0.4506  0.2735
 6091TIP3    H139764   0.290   4.277   2.973 -0.1749 -0.4001  0.1136
 6091TIP3    H239765   0.431   4.223   2.961  0.2405  0.5565  0.6217
 6092TIP3   OH239766   2.108   6.325  13.224 -0.0771 -0.0561  0.5804
 6092TIP3    H139767   2.194   6.326  13.268 -0.3678 -1.6423  1.2583
 6092TIP3    H239768   2.090   6.417  13.206  1.3563  0.3961  1.2424
 6093TIP3   OH239769   4.655   3.609  12.618  0.1220  0.5639 -0.0730
 6093TIP3    H139770   4.739   3.588  12.577  0.8636  3.1191 -0.0532
 6093TIP3    H239771   4.663   3.575  12.707  0.6892 -0.1708 -0.3907
 6094TIP3   OH239772   1.777   2.053  10.710 -0.5153 -0.5202  0.1891
 6094TIP3    H139773   1.842   2.103  10.759 -0.2940 -1.5692  0.9900
 6094TIP3    H239774   1.694   2.096  10.732 -0.2965 -0.3062  0.6155
 6095TIP3   OH239775   2.205   5.061  15.032 -0.2343 -0.1568 -0.1634
 6095TIP3    H139776   2.282   5.049  15.087 -0.9455 -3.3683  0.3051
 6095TIP3    H239777   2.141   5.104  15.090  0.5446  0.8739 -0.0237
 6096TIP3   OH239778   6.719   2.809  11.479  0.1205  0.6726  0.0253
 6096TIP3    H139779   6.720   2.758  11.398  0.2834  1.1827 -0.2995
 6096TIP3    H239780   6.809   2.840  11.489  0.0683  0.7335  0.3294
 6097TIP3   OH239781   4.952   0.875  11.587 -0.2366  0.7716  0.2399
 6097TIP3    H139782   4.996   0.866  11.502 -0.2791  1.3913  0.1536
 6097TIP3    H239783   4.866   0.909  11.565 -2.1677 -3.5924  0.0327
 6098TIP3   OH239784   3.347   6.537   6.375 -0.2503  0.2697  0.3187
 6098TIP3    H139785   3.440   6.515   6.379  0.1436  1.8915  1.0057
 6098TIP3    H239786   3.343   6.630   6.399 -1.8464  0.7911 -1.6114
 6099TIP3   OH239787   3.800   5.197   1.449 -0.6515  0.6362 -0.3760
 6099TIP3    H139788   3.781   5.103   1.451  0.7833  0.3187  1.7508
 6099TIP3    H239789   3.846   5.211   1.366  0.9924 -1.0004  0.1858
 6100TIP3   OH239790   2.515   2.432  16.276 -0.2832 -0.1183  0.1375
 6100TIP3    H139791   2.522   2.408  16.368 -0.0426  1.2073  0.4840
 6100TIP3    H239792   2.563   2.364  16.229 -0.8105 -1.0581  0.9471
 6101TIP3   OH239793   0.305   4.633  15.476  0.0588  0.1421 -0.0460
 6101TIP3    H139794   0.292   4.652  15.383  0.0949 -0.5964 -0.2054
 6101TIP3    H239795   0.328   4.718  15.515 -0.8232  0.6250 -0.5439
 6102TIP3   OH239796   3.253   5.199  14.046 -0.3547 -0.4033 -0.5115
 6102TIP3    H139797   3.197   5.153  13.983  0.4122 -0.4525 -1.1746
 6102TIP3    H239798   3.330   5.143  14.054  0.9238  1.0862 -1.8774
 6103TIP3   OH239799   4.586   4.935  13.156  0.1698 -0.4436  0.2609
 6103TIP3    H139800   4.583   4.839  13.148 -0.7137 -0.5481  1.4935
 6103TIP3    H239801   4.621   4.965  13.072 -0.1444 -1.8145 -0.3916
 6104TIP3   OH239802   2.688   3.273  17.223  0.3388  0.2754  0.1437
 6104TIP3    H139803   2.722   3.361  17.208 -1.7706  1.0043 -0.8337
 6104TIP3    H239804   2.631   3.282  17.299 -0.3410 -0.0757 -0.3068
 6105TIP3   OH239805   2.881   5.912  11.113 -0.1228  0.3579  0.0325
 6105TIP3    H139806   2.925   5.871  11.039  0.0372  1.7997 -0.7125
 6105TIP3    H239807   2.901   6.005  11.105 -1.8047  0.8338  0.7113
 6106TIP3   OH239808   1.180   4.089   3.872  0.0787  0.1886 -0.4930
 6106TIP3    H139809   1.128   4.013   3.898 -0.3041  0.9066  0.9330
 6106TIP3    H239810   1.216   4.122   3.954 -0.8094  2.3173 -0.9051
 6107TIP3   OH239811   4.867   2.776   4.669  0.1002  0.2526 -0.0718
 6107TIP3    H139812   4.776   2.760   4.694 -0.2257  0.2339 -1.2155
 6107TIP3    H239813   4.882   2.868   4.688 -0.3091  0.3754 -0.3590
 6108TIP3   OH239814   3.610   3.614  12.315  0.4558  0.0133  0.1178
 6108TIP3    H139815   3.515   3.627  12.313  0.7371  2.6612  0.0180
 6108TIP3    H239816   3.637   3.649  12.400  1.4346  0.2863 -0.2900
 6109TIP3   OH239817   6.135   6.210  13.278  0.5598  0.2640  0.4629
 6109TIP3    H139818   6.108   6.292  13.237  3.0522  1.4050  0.8662
 6109TIP3    H239819   6.169   6.237  13.363  1.8154 -1.0985  0.4239
 6110TIP3   OH239820   5.561   4.168  12.579  0.7419  0.1615  0.2471
 6110TIP3    H139821   5.606   4.097  12.533  0.0656 -1.2574  1.6870
 6110TIP3    H239822   5.540   4.231  12.510  0.3964 -1.5458 -1.3007
 6111TIP3   OH239823   6.298   4.509  15.486 -0.3503 -0.3621  0.5106
 6111TIP3    H139824   6.211   4.471  15.472 -1.1487  1.0190  1.4198
 6111TIP3    H239825   6.294   4.593  15.440  0.8035 -0.6324 -0.1179
 6112TIP3   OH239826   4.567   6.114   6.126  0.2443  0.1170  0.3935
 6112TIP3    H139827   4.485   6.075   6.098 -0.1542  0.8304  0.5464
 6112TIP3    H239828   4.558   6.207   6.105  0.6016  0.3782  1.3394
 6113TIP3   OH239829   5.344   6.197   0.405  0.2503 -0.8655  0.3082
 6113TIP3    H139830   5.436   6.180   0.384 -0.4655 -2.9528 -1.4485
 6113TIP3    H239831   5.347   6.272   0.465  3.0979 -1.0911  0.5894
 6114TIP3   OH239832   1.641   6.471   4.038  0.1179 -0.0463 -0.5777
 6114TIP3    H139833   1.724   6.473   3.989  0.5959 -0.3194  0.2046
 6114TIP3    H239834   1.590   6.402   3.996  0.9103 -0.9513 -0.1050
 6115TIP3   OH239835   1.093   0.431  15.009 -0.2963  0.5993 -0.0914
 6115TIP3    H139836   1.106   0.420  15.103  1.1493 -2.5334 -0.5111
 6115TIP3    H239837   0.999   0.427  14.996 -0.4320 -0.4557  1.1095
 6116TIP3   OH239838   0.772   1.197   1.059 -0.0242  0.6347  0.0749
 6116TIP3    H139839   0.793   1.289   1.074  0.8869  0.3847  0.3658
 6116TIP3    H239840   0.778   1.156   1.145  3.9356 -0.5364 -0.5556
 6117TIP3   OH239841   4.523   5.179  12.681 -0.2502 -0.1050  0.1050
 6117TIP3    H139842   4.436   5.149  12.653 -0.5999 -0.6309  1.6512
 6117TIP3    H239843   4.508   5.223  12.765  0.9669 -0.1420  0.3665
 6118TIP3   OH239844   3.969   6.316  12.468  0.3752  0.2909  0.1867
 6118TIP3    H139845   4.019   6.383  12.421  1.4755 -1.4972 -1.3272
 6118TIP3    H239846   4.008   6.313  12.555  2.8292 -0.8333 -0.8504
 6119TIP3   OH239847   6.679   6.273   2.089  0.0147  0.6281 -0.2335
 6119TIP3    H139848   6.598   6.265   2.139 -0.2037  0.0290 -0.6696
 6119TIP3    H239849   6.732   6.197   2.115 -0.2751  0.0709 -1.2004
 6120TIP3   OH239850   2.294   1.822   4.838  0.0309 -0.5524 -0.2700
 6120TIP3    H139851   2.287   1.785   4.750 -0.5833 -0.6589 -0.1841
 6120TIP3    H239852   2.271   1.750   4.896 -0.9308 -0.1140 -0.0897
 6121TIP3   OH239853   6.242   6.265  15.871 -0.1996  0.2832  0.0370
 6121TIP3    H139854   6.236   6.318  15.950  2.1352 -0.5856  0.8753
 6121TIP3    H239855   6.316   6.302  15.823  0.0573 -0.8143 -0.4494
 6122TIP3   OH239856   1.012   6.124   3.718 -1.0534 -0.3852  0.2795
 6122TIP3    H139857   0.969   6.208   3.736  0.7206  0.4527  0.8632
 6122TIP3    H239858   1.055   6.101   3.800  0.3719 -0.6906 -0.5140
 6123TIP3   OH239859   1.547   2.674   0.149  0.2665 -0.1943  0.5447
 6123TIP3    H139860   1.634   2.639   0.133  1.0096  1.2823  1.1552
 6123TIP3    H239861   1.495   2.599   0.177  0.9640 -1.3563 -1.1175
 6124TIP3   OH239862   4.859   6.232  14.110  0.3503 -0.4780 -0.4949
 6124TIP3    H139863   4.854   6.180  14.030  0.5912 -0.4424 -0.5328
 6124TIP3    H239864   4.952   6.234  14.131  0.2769 -0.5842 -0.1504
 6125TIP3   OH239865   5.448   5.906   3.322  0.0095 -0.2726 -0.2835
 6125TIP3    H139866   5.395   5.830   3.347 -1.6909  1.9971  4.1974
 6125TIP3    H239867   5.537   5.884   3.349 -0.2864 -1.0306  0.0933
 6126TIP3   OH239868   3.201   4.487  12.497  0.4351 -0.1744 -0.5433
 6126TIP3    H139869   3.253   4.418  12.454  0.6439 -0.1382 -0.3474
 6126TIP3    H239870   3.172   4.447  12.579  0.4095 -0.0895 -0.5109
 6127TIP3   OH239871   6.788   0.321   0.074  0.0978 -0.0070  0.1642
 6127TIP3    H139872   6.775   0.260   0.001  1.7919 -0.4242  0.1795
 6127TIP3    H239873   6.733   0.286   0.144  1.4031 -1.8508  0.3380
 6128TIP3   OH239874   6.666   5.165   0.639 -0.0214  0.2061 -0.2575
 6128TIP3    H139875   6.574   5.160   0.617 -0.2533  1.5628  0.2997
 6128TIP3    H239876   6.698   5.244   0.595 -0.4020  2.7464  3.5462
 6129TIP3   OH239877   4.603   4.175  13.107  0.3984  0.6941 -0.1556
 6129TIP3    H139878   4.687   4.135  13.084 -1.2212 -2.4580 -1.0138
 6129TIP3    H239879   4.587   4.148  13.197  0.6764  2.0699  0.3296
 6130TIP3   OH239880   5.588   2.055   0.380 -0.3400 -0.1853  0.0122
 6130TIP3    H139881   5.514   2.047   0.320 -0.4353 -2.6698  0.3529
 6130TIP3    H239882   5.575   1.984   0.443  1.5282  0.2794  0.9849
 6131TIP3   OH239883   3.292   1.725  16.838  0.3510 -0.1652  0.3308
 6131TIP3    H139884   3.360   1.790  16.823 -0.3417  0.7999  1.2045
 6131TIP3    H239885   3.234   1.765  16.903 -1.3276 -0.7170 -0.7286
 6132TIP3   OH239886   4.455   1.193  11.140  0.6879  0.1152 -0.6332
 6132TIP3    H139887   4.516   1.143  11.086  1.5036  0.0800  0.2935
 6132TIP3    H239888   4.388   1.224  11.078  1.0069 -0.8140 -1.4727
 6133TIP3   OH239889   5.496   5.005  13.717  0.0793 -0.2394  0.1609
 6133TIP3    H139890   5.542   4.923  13.733 -0.5840 -0.4053  1.3077
 6133TIP3    H239891   5.541   5.043  13.641  2.3424 -0.2246  1.4174
 6134TIP3   OH239892   2.306   0.419  11.849  0.1634  0.0857  0.3962
 6134TIP3    H139893   2.248   0.494  11.864 -0.8319  0.2138 -3.1086
 6134TIP3    H239894   2.266   0.348  11.899 -1.1659  0.9842  0.6734
 6135TIP3   OH239895   1.225   3.985   3.446 -0.6106 -0.0522  0.0569
 6135TIP3    H139896   1.288   3.960   3.379 -1.6037  2.0173 -1.7711
 6135TIP3    H239897   1.256   4.068   3.480 -2.2120  0.9516 -0.7974
 6136TIP3   OH239898   4.560   0.923  15.637  0.2435 -0.2209  0.1653
 6136TIP3    H139899   4.632   0.910  15.575  0.3260 -1.1799  0.4408
 6136TIP3    H239900   4.482   0.930  15.582  0.3841 -0.5284 -0.0752
 6137TIP3   OH239901   3.676   1.467   6.309  0.1225 -0.9237 -0.0396
 6137TIP3    H139902   3.748   1.405   6.316 -0.9515 -2.3373 -0.8195
 6137TIP3    H239903   3.640   1.452   6.221  1.7632  3.0587 -1.6369
 6138TIP3   OH239904   1.855   2.714  14.018  0.8225  0.3539 -0.0394
 6138TIP3    H139905   1.818   2.646  14.074  1.5438  1.3322  1.7180
 6138TIP3    H239906   1.789   2.729  13.951 -0.0266 -0.9618  0.4616
 6139TIP3   OH239907   0.440   6.673   2.871  0.2899  0.2345  0.3403
 6139TIP3    H139908   0.429   6.652   2.964 -1.2157  0.5317  0.2483
 6139TIP3    H239909   0.351   6.679   2.837  0.8232  0.1447 -1.1303
 6140TIP3   OH239910   3.122   6.385   0.984  0.2279  0.0718  0.3683
 6140TIP3    H139911   3.121   6.424   0.897 -1.0616  1.2156  0.8654
 6140TIP3    H239912   3.129   6.459   1.044  1.3518 -0.7143  1.2490
 6141TIP3   OH239913   6.524   6.344   1.627  0.1333  0.1394  0.0356
 6141TIP3    H139914   6.471   6.273   1.663 -0.8696  0.8584  0.0255
 6141TIP3    H239915   6.603   6.344   1.681 -0.2912 -0.3609  0.6802
 6142TIP3   OH239916   5.706   3.084  10.645 -0.2544 -0.6232  0.0325
 6142TIP3    H139917   5.703   2.993  10.614 -1.7295 -0.7560  0.4650
 6142TIP3    H239918   5.622   3.096  10.689  0.2550  0.7161  0.6766
 6143TIP3   OH239919   0.841   3.800   2.601 -0.0559 -0.1297 -0.1230
 6143TIP3    H139920   0.750   3.775   2.613  0.0889 -0.9024 -0.5374
 6143TIP3    H239921   0.850   3.814   2.506 -0.4604  2.9048  0.1798
 6144TIP3   OH239922   4.515   6.183  12.568 -0.6982  0.2128 -0.4165
 6144TIP3    H139923   4.512   6.097  12.611 -0.2438 -0.6597 -2.0123
 6144TIP3    H239924   4.461   6.240  12.622 -2.8837 -1.6466 -0.4886
 6145TIP3   OH239925   4.863   2.443   1.906  0.7640 -0.7460  0.2544
 6145TIP3    H139926   4.893   2.354   1.926  2.9243 -0.0090  0.4843
 6145TIP3    H239927   4.919   2.472   1.835  0.7388  0.7987  0.8276
 6146TIP3   OH239928   4.591   6.677  11.433 -0.4225 -0.1413  0.3096
 6146TIP3    H139929   4.546   6.621  11.370  0.9174 -1.2829  0.2856
 6146TIP3    H239930   4.522   6.727  11.476 -1.9101 -2.7786  1.2483
 6147TIP3   OH239931   3.943   5.230   1.201 -0.5098 -0.0050 -0.3042
 6147TIP3    H139932   3.920   5.144   1.167  2.1497 -0.6170 -0.7908
 6147TIP3    H239933   3.954   5.285   1.123  1.7268 -0.3608 -0.3042
 6148TIP3   OH239934   0.002   4.921  10.464 -0.2520  0.0243 -0.1114
 6148TIP3    H139935   0.033   4.884  10.382  0.1228 -3.0816  1.2841
 6148TIP3    H239936   0.080   4.924  10.520 -0.8533  0.3021  0.7374
 6149TIP3   OH239937   6.500   2.251   6.799  0.8309  0.2494  0.3329
 6149TIP3    H139938   6.497   2.240   6.704 -0.0425  1.7705  0.1429
 6149TIP3    H239939   6.498   2.346   6.812  1.2056  0.0754  1.8654
 6150TIP3   OH239940   5.848   0.112   4.792 -0.1884  0.0455 -0.0078
 6150TIP3    H139941   5.767   0.164   4.794 -1.2183 -1.5008  0.8367
 6150TIP3    H239942   5.894   0.135   4.873 -1.3532 -1.3460  1.1108
 6151TIP3   OH239943   6.386   1.215  13.762  0.0703  0.3291  0.0701
 6151TIP3    H139944   6.438   1.267  13.699  0.8978  0.9625  1.2317
 6151TIP3    H239945   6.415   1.125  13.748 -1.7588  0.0176 -2.3375
 6152TIP3   OH239946   5.243   2.218   2.682 -0.4199 -0.2050  0.0885
 6152TIP3    H139947   5.323   2.224   2.629 -0.3578 -0.9277  0.0943
 6152TIP3    H239948   5.236   2.125   2.705 -0.3195  0.1239  1.5413
 6153TIP3   OH239949   5.286   1.770  16.755 -0.5398 -0.4143  0.4453
 6153TIP3    H139950   5.240   1.700  16.707 -0.3127 -1.0156  1.0815
 6153TIP3    H239951   5.262   1.755  16.847 -0.2504  0.1729  0.6193
 6154TIP3   OH239952   5.532   0.269  12.009 -0.4112  0.1657 -0.2301
 6154TIP3    H139953   5.581   0.302  11.934 -0.3540  0.0727 -0.2336
 6154TIP3    H239954   5.495   0.347  12.050 -0.3219  0.2288 -0.2699
 6155TIP3   OH239955   2.387   6.624  10.987 -0.2845 -0.3732  0.2462
 6155TIP3    H139956   2.448   6.606  10.915 -1.8038 -0.9778 -0.9362
 6155TIP3    H239957   2.318   6.559  10.977 -1.8927  1.2022  0.6521
 6156TIP3   OH239958   3.898   0.969  15.019 -0.0934  0.5037  0.4898
 6156TIP3    H139959   3.969   0.908  15.037 -0.2983  0.6271  1.8270
 6156TIP3    H239960   3.844   0.924  14.954  0.7264  0.0475  0.0979
 6157TIP3   OH239961   3.118   1.453   0.684  0.2634  0.7803 -0.2161
 6157TIP3    H139962   3.097   1.410   0.601 -1.5060 -0.1365  0.6442
 6157TIP3    H239963   3.140   1.381   0.744  0.7501  1.3612  0.3197
 6158TIP3   OH239964   1.432   3.617  13.949  0.0015 -0.1146 -0.0487
 6158TIP3    H139965   1.514   3.629  13.901  1.2721 -1.2510  1.7094
 6158TIP3    H239966   1.412   3.524  13.939 -0.6356 -0.0113  0.2178
 6159TIP3   OH239967   2.933   4.735  16.143  0.4250 -0.1045 -0.0155
 6159TIP3    H139968   2.953   4.671  16.075 -0.1991 -1.1362  0.7562
 6159TIP3    H239969   2.988   4.711  16.217 -0.6721 -0.4982  0.6945
 6160TIP3   OH239970   5.257   5.528   2.458 -0.1094  0.2915 -0.0304
 6160TIP3    H139971   5.313   5.556   2.529  0.5284 -1.2314  0.1184
 6160TIP3    H239972   5.171   5.516   2.498  0.2815 -0.7062  0.5421
 6161TIP3   OH239973   3.077   3.357   3.389 -0.3239  0.1174  0.6144
 6161TIP3    H139974   3.009   3.424   3.381  0.0485  0.6434  1.6237
 6161TIP3    H239975   3.136   3.391   3.457 -0.1863 -1.2936  1.2306
 6162TIP3   OH239976   2.110   3.103  13.863  0.1298  0.5141 -0.0061
 6162TIP3    H139977   2.192   3.151  13.852 -0.4479  1.2900 -1.1358
 6162TIP3    H239978   2.070   3.141  13.942  0.0971  1.2890 -0.3860
 6163TIP3   OH239979   2.317   6.581  14.910 -0.8200 -0.0823 -0.0911
 6163TIP3    H139980   2.277   6.608  14.993 -0.2801  1.1840 -0.2248
 6163TIP3    H239981   2.387   6.521  14.937 -0.0754  0.9930  0.4667
 6164TIP3   OH239982   4.701   1.525  11.282 -0.3517 -0.6703  0.0846
 6164TIP3    H139983   4.691   1.539  11.377 -1.2309  2.9349 -0.4036
 6164TIP3    H239984   4.615   1.546  11.246  0.1109 -1.5237 -1.5879
 6165TIP3   OH239985   0.096   5.383  16.691 -0.2693  0.1951  0.2045
 6165TIP3    H139986   0.076   5.436  16.768 -1.8088 -2.0911  1.5208
 6165TIP3    H239987   0.041   5.420  16.622  0.3027  1.6105  0.4812
 6166TIP3   OH239988   2.148   3.831   1.175 -0.8432  0.0146 -0.3623
 6166TIP3    H139989   2.063   3.852   1.215 -0.4307 -0.6947  0.9448
 6166TIP3    H239990   2.146   3.736   1.164 -0.4121  0.0557 -0.8080
 6167TIP3   OH239991   6.625   3.617  11.027  0.2612  0.6632  0.2422
 6167TIP3    H139992   6.716   3.629  11.053  0.8197 -2.0598 -0.1649
 6167TIP3    H239993   6.626   3.620  10.931  0.3988 -1.6694  0.1134
 6168TIP3   OH239994   1.794   5.587  13.171  0.3577 -0.2617 -0.8391
 6168TIP3    H139995   1.800   5.512  13.230 -1.5015  0.3898  0.2929
 6168TIP3    H239996   1.878   5.590  13.126  1.4525 -1.4366  1.0213
 6169TIP3   OH239997   4.631   2.198  11.603  0.1107  0.2271  0.1930
 6169TIP3    H139998   4.615   2.180  11.696 -0.4595  2.9208  0.7083
 6169TIP3    H239999   4.700   2.265  11.603  0.7454 -0.3696 -1.3944
 6170TIP3   OH240000   3.033   3.464  15.493 -0.3570  0.6522  0.2459
 6170TIP3    H140001   2.940   3.454  15.474 -0.3187 -0.1936  0.4464
 6170TIP3    H240002   3.078   3.432  15.414 -0.2332  0.2649  0.4686
 6171TIP3   OH240003   0.497   3.494   4.359  0.5257 -0.2830  0.4652
 6171TIP3    H140004   0.430   3.515   4.424  1.1088  2.4553  0.3331
 6171TIP3    H240005   0.577   3.481   4.410  0.2742 -1.8007  0.5038
 6172TIP3   OH240006   2.910   3.475   2.830  0.3169 -0.5312  0.2177
 6172TIP3    H140007   2.840   3.409   2.836  0.5122 -0.9378 -1.4414
 6172TIP3    H240008   2.983   3.437   2.879 -0.2306 -0.6310  0.9756
 6173TIP3   OH240009   4.296   6.473   1.089  0.0610 -0.2876  0.6015
 6173TIP3    H140010   4.264   6.439   1.172  2.0256 -0.9581  1.1334
 6173TIP3    H240011   4.309   6.567   1.104 -3.8196  0.5925 -0.3824
 6174TIP3   OH240012   3.258   3.163  11.580 -0.2501 -0.0351  0.2580
 6174TIP3    H140013   3.319   3.207  11.521 -1.6648 -0.6199 -1.7173
 6174TIP3    H240014   3.280   3.198  11.667  1.8330  0.9173 -0.5772
 6175TIP3   OH240015   4.801   2.689  13.093 -0.1438  0.1764 -0.2584
 6175TIP3    H140016   4.717   2.704  13.048 -0.2901  0.4930  0.1217
 6175TIP3    H240017   4.842   2.775  13.098 -0.1609  0.1532  0.2865
 6176TIP3   OH240018   0.131   3.515  11.230  0.2667 -0.4437 -0.3316
 6176TIP3    H140019   0.119   3.427  11.266 -0.8920 -0.0475  0.3028
 6176TIP3    H240020   0.119   3.574  11.305  1.2264  0.2588 -0.7045
 6177TIP3   OH240021   4.553   3.241  14.616  0.4675  0.1919  0.3033
 6177TIP3    H140022   4.594   3.323  14.587  1.5476 -0.7241 -0.9302
 6177TIP3    H240023   4.617   3.202  14.675  0.4088 -0.2077  0.1080
 6178TIP3   OH240024   1.524   1.100  17.159  0.1905 -0.1938  0.3652
 6178TIP3    H140025   1.441   1.111  17.111 -0.0520 -0.7769  0.6418
 6178TIP3    H240026   1.584   1.163  17.118  0.5430 -1.9166 -1.9327
 6179TIP3   OH240027   2.981   1.498  12.135  0.1392 -0.1786 -0.2919
 6179TIP3    H140028   2.978   1.480  12.229  1.7662 -2.3174 -0.5427
 6179TIP3    H240029   3.029   1.580  12.128  1.2614 -0.6963  0.7531
 6180TIP3   OH240030   4.754   5.430   1.797  0.5245  0.5511 -0.7928
 6180TIP3    H140031   4.831   5.466   1.841  0.5107  1.3688 -1.4010
 6180TIP3    H240032   4.762   5.336   1.807  1.5257  0.6340 -0.7261
 6181TIP3   OH240033   0.854   4.941  16.030 -0.2985 -0.0769 -0.2356
 6181TIP3    H140034   0.939   4.984  16.026  0.2311 -1.0680  0.0552
 6181TIP3    H240035   0.826   4.950  16.121 -1.2322  1.5739 -0.6512
 6182TIP3   OH240036   4.333   4.821  16.412  0.0753 -0.3155  0.2635
 6182TIP3    H140037   4.361   4.729  16.411  0.8957 -0.0804 -1.0903
 6182TIP3    H240038   4.317   4.842  16.321  2.3389  1.5822  0.1965
 6183TIP3   OH240039   3.802   5.912  10.809 -0.0306  0.3073 -0.3621
 6183TIP3    H140040   3.819   5.837  10.866  1.9018 -0.5469 -1.9295
 6183TIP3    H240041   3.796   5.875  10.721  0.5766  1.9305 -1.1330
 6184TIP3   OH240042   4.294   1.082   1.903  0.5389 -0.6159  0.0441
 6184TIP3    H140043   4.280   1.131   1.984 -0.0948 -0.6014 -0.0699
 6184TIP3    H240044   4.377   1.115   1.870  0.9097 -0.7697  0.7945
 6185TIP3   OH240045   2.063   3.106   1.659  0.0528 -0.2851  0.0625
 6185TIP3    H140046   2.004   3.177   1.684  0.8804  0.3628  0.2387
 6185TIP3    H240047   2.146   3.151   1.638  1.1719 -1.3392  1.9727
 6186TIP3   OH240048   1.593   6.529  17.171 -0.6663  0.5782  0.1398
 6186TIP3    H140049   1.547   6.462  17.220  1.7425 -0.9291  0.4778
 6186TIP3    H240050   1.684   6.521  17.198  0.0947  2.3812 -1.6215
 6187TIP3   OH240051   0.458   1.838   5.314 -0.1459 -0.9183 -0.2355
 6187TIP3    H140052   0.434   1.828   5.406 -1.3415  1.1731 -0.2520
 6187TIP3    H240053   0.451   1.932   5.298  2.8039 -0.8427 -1.7604
 6188TIP3   OH240054   5.295   0.968  13.124 -0.6343  0.1673 -0.2528
 6188TIP3    H140055   5.359   1.022  13.078  1.8886 -0.6822  2.0267
 6188TIP3    H240056   5.293   0.886  13.075 -1.7204  0.9634 -1.6071
 6189TIP3   OH240057   2.267   1.763   5.230  0.0080 -0.1148  0.1674
 6189TIP3    H140058   2.257   1.825   5.302  0.4775  0.6822 -0.4381
 6189TIP3    H240059   2.207   1.795   5.162  0.7462  0.0671 -0.4060
 6190TIP3   OH240060   2.511   1.628  15.653 -0.2962 -0.3139 -0.1871
 6190TIP3    H140061   2.418   1.646  15.665  0.0978  0.9667  1.3439
 6190TIP3    H240062   2.515   1.567  15.579 -2.2890  0.1222 -0.7079
 6191TIP3   OH240063   3.374   3.401  15.676 -0.0293 -0.2510  0.4574
 6191TIP3    H140064   3.329   3.329  15.631  0.1025 -0.5544  0.7963
 6191TIP3    H240065   3.325   3.479  15.652  1.6781  0.0468 -2.4977
 6192TIP3   OH240066   3.610   0.718  10.629 -0.0264 -0.1955  0.1887
 6192TIP3    H140067   3.704   0.705  10.642 -0.0648 -0.3753  0.2916
 6192TIP3    H240068   3.573   0.631  10.638  0.0539 -0.5340 -2.1953
 6193TIP3   OH240069   6.557   0.384   1.869  0.0958  0.5265 -0.5490
 6193TIP3    H140070   6.635   0.423   1.908  0.6293 -0.5567 -0.4921
 6193TIP3    H240071   6.488   0.449   1.882  0.8124  1.1745  0.0808
 6194TIP3   OH240072   4.480   2.814  14.316  0.1954  0.3921  0.1313
 6194TIP3    H140073   4.575   2.829  14.315  0.2099  0.7614 -3.2388
 6194TIP3    H240074   4.444   2.891  14.361  1.3953  1.0987 -0.0712
 6195TIP3   OH240075   1.170   4.943   4.526 -0.5741 -0.4724  0.1399
 6195TIP3    H140076   1.198   4.853   4.541  2.1759  0.0880 -1.0341
 6195TIP3    H240077   1.119   4.939   4.445  0.8712 -0.8301 -0.8023
 6196TIP3   OH240078   1.829   4.754  11.759 -0.3184  0.4111  0.3827
 6196TIP3    H140079   1.784   4.822  11.708  0.0510  0.6903  0.4283
 6196TIP3    H240080   1.876   4.702  11.693  0.0991  0.7265  0.4343
 6197TIP3   OH240081   1.337   0.146  15.737 -0.3467  0.1982 -0.0733
 6197TIP3    H140082   1.395   0.085  15.692 -2.2928 -2.2199  0.4925
 6197TIP3    H240083   1.341   0.121  15.829 -0.8562  1.2272  0.2498
 6198TIP3   OH240084   1.367   6.106   3.817 -0.0231  0.3918  0.8299
 6198TIP3    H140085   1.278   6.075   3.837 -0.9314  1.9691 -0.4363
 6198TIP3    H240086   1.414   6.028   3.790 -1.8092 -0.1833 -0.9082
 6199TIP3   OH240087   6.382   3.025   5.419 -0.1823 -0.2828 -0.0660
 6199TIP3    H140088   6.346   2.951   5.467 -1.0676 -0.1594 -0.5312
 6199TIP3    H240089   6.336   3.025   5.336 -1.1584  1.5663  0.4165
 6200TIP3   OH240090   5.367   1.332  13.254  0.0761  0.1686 -0.7129
 6200TIP3    H140091   5.277   1.341  13.223  0.2841 -0.3313 -1.4945
 6200TIP3    H240092   5.408   1.274  13.190 -0.0435 -2.7829  1.6972
 6201TIP3   OH240093   6.674   0.828  16.698  0.2689 -0.6133 -0.7229
 6201TIP3    H140094   6.596   0.775  16.681 -0.0734 -0.1537 -0.6177
 6201TIP3    H240095   6.667   0.850  16.791  0.8954 -1.1579 -0.5400
 6202TIP3   OH240096   2.158   5.669  12.028 -0.1589  0.1910 -0.0778
 6202TIP3    H140097   2.249   5.641  12.041 -0.6165 -1.4373 -0.1592
 6202TIP3    H240098   2.153   5.754  12.070  0.7483 -0.8503  2.3141
 6203TIP3   OH240099   5.058   1.955   2.171 -0.6906  0.0849 -0.7596
 6203TIP3    H140100   5.134   1.970   2.115 -0.5464  0.7293 -0.3994
 6203TIP3    H240101   4.985   1.947   2.110 -0.4079 -0.0577 -1.0827
 6204TIP3   OH240102   0.995   5.469   3.977 -0.6932  0.4741  0.6201
 6204TIP3    H140103   1.002   5.521   4.057 -2.2719  1.4820  0.1492
 6204TIP3    H240104   0.966   5.531   3.911  0.6070 -0.3422 -0.7668
 6205TIP3   OH240105   2.883   3.470  17.180 -0.8184  0.0856 -0.2648
 6205TIP3    H140106   2.911   3.522  17.255 -0.7209  0.6298 -0.6724
 6205TIP3    H240107   2.857   3.534  17.115  0.8847 -0.3026 -1.3975
 6206TIP3   OH240108   0.292   4.241  15.339  0.2086 -0.1068  0.2494
 6206TIP3    H140109   0.370   4.297  15.342 -0.2236  0.4879  0.6385
 6206TIP3    H240110   0.219   4.302  15.334 -0.1764 -0.6676 -2.9674
 6207TIP3   OH240111   6.196   6.717   0.758  0.4704  0.1872  0.1723
 6207TIP3    H140112   6.263   6.764   0.709  0.2862  0.1386 -0.1240
 6207TIP3    H240113   6.165   6.781   0.823  0.0891  0.5372 -0.3502
 6208TIP3   OH240114   1.246   4.152   3.174 -0.5158  0.4345 -0.1889
 6208TIP3    H140115   1.332   4.116   3.153 -1.4758 -2.6510  0.6939
 6208TIP3    H240116   1.258   4.197   3.257  0.2868  0.1224 -0.1264
 6209TIP3   OH240117   5.964   6.698   1.217  0.2702  0.5191  0.0819
 6209TIP3    H140118   5.950   6.605   1.232  0.5622  0.3931 -0.4223
 6209TIP3    H240119   6.045   6.718   1.264  0.5598  0.3740 -0.3484
 6210TIP3   OH240120   3.562   0.147   1.045 -0.9993  0.1809  0.6441
 6210TIP3    H140121   3.650   0.180   1.065 -0.5088  0.5441 -1.8575
 6210TIP3    H240122   3.504   0.213   1.083 -0.2755 -0.2607  2.6819
 6211TIP3   OH240123   0.603   4.643   0.921 -0.5711  0.3104  0.5294
 6211TIP3    H140124   0.572   4.604   0.840 -0.1322  2.3377 -0.6687
 6211TIP3    H240125   0.694   4.667   0.902  0.1678 -0.8979  2.2777
 6212TIP3   OH240126   4.897   6.533  14.984  0.2153 -0.1232  0.0338
 6212TIP3    H140127   4.818   6.559  14.937  0.0053 -0.0092  0.4452
 6212TIP3    H240128   4.923   6.612  15.033  0.6660 -0.1162 -0.2161
 6213TIP3   OH240129   5.628   4.090  13.749 -0.6845  0.3810 -0.0895
 6213TIP3    H140130   5.663   4.113  13.663 -0.7678 -0.2322 -0.2878
 6213TIP3    H240131   5.560   4.156  13.766 -3.1108 -1.4353 -2.0151
 6214TIP3   OH240132   0.529   4.200   4.970  0.1531  0.3864  0.1236
 6214TIP3    H140133   0.545   4.114   5.010  0.6233  0.8841  1.0210
 6214TIP3    H240134   0.478   4.247   5.035  1.3474  1.3890  0.3605
 6215TIP3   OH240135   2.851   5.264   1.264  0.1547  0.8055  0.5218
 6215TIP3    H140136   2.812   5.207   1.331  0.6425  0.1937  0.2977
 6215TIP3    H240137   2.806   5.348   1.275 -1.3286  0.0981  0.1891
 6216TIP3   OH240138   5.302   1.695   1.411 -0.1003  0.0070  0.1063
 6216TIP3    H140139   5.350   1.747   1.475  0.4100  0.0030 -0.2677
 6216TIP3    H240140   5.247   1.637   1.464  0.4247 -0.0988  0.5457
 6217TIP3   OH240141   6.262   6.784  16.379  0.1119 -0.4170  0.2494
 6217TIP3    H140142   6.309   6.776  16.461  2.0332 -1.8545 -0.8937
 6217TIP3    H240143   6.328   6.813  16.316 -1.3203  0.7407 -0.7900
 6218TIP3   OH240144   0.290   6.347   5.571 -0.4774  0.3773 -0.5112
 6218TIP3    H140145   0.290   6.379   5.481  0.0338  0.3926 -0.5039
 6218TIP3    H240146   0.200   6.362   5.601 -1.2476 -1.4291 -1.6702
 6219TIP3   OH240147   4.617   2.056   1.764 -0.6492 -0.4706  0.3728
 6219TIP3    H140148   4.628   2.151   1.752 -1.0016 -0.6138 -1.2820
 6219TIP3    H240149   4.679   2.017   1.703  1.2854 -1.3869  2.7596
 6220TIP3   OH240150   0.499   5.716   0.859  0.3905  0.0724 -0.0211
 6220TIP3    H140151   0.485   5.808   0.833  1.8215  0.6831  1.2370
 6220TIP3    H240152   0.491   5.667   0.777 -1.0182  1.2320 -0.6248
 6221TIP3   OH240153   3.702   2.979  11.411  0.5277 -0.6268  0.6570
 6221TIP3    H140154   3.779   2.924  11.399  1.1662  0.4499 -0.4857
 6221TIP3    H240155   3.738   3.063  11.440 -0.1519  0.0455 -0.3877
 6222TIP3   OH240156   4.741   3.496  15.084  0.1199  0.6843  0.3914
 6222TIP3    H140157   4.729   3.550  15.162  0.9925  1.0883  0.2549
 6222TIP3    H240158   4.654   3.495  15.043 -0.7045 -0.6526  2.0511
 6223TIP3   OH240159   1.528   1.843  15.300  0.4119 -0.0074  0.9625
 6223TIP3    H140160   1.533   1.937  15.282 -0.8672 -0.0872  0.1200
 6223TIP3    H240161   1.469   1.808  15.233  1.1351 -1.4780  1.0484
 6224TIP3   OH240162   1.333   4.788   6.422 -0.5988 -0.5908 -0.6770
 6224TIP3    H140163   1.281   4.836   6.487  0.0651 -0.0077 -0.5610
 6224TIP3    H240164   1.378   4.857   6.373  0.3676 -1.0997 -0.5138
 6225TIP3   OH240165   5.764   3.300  13.840  0.0547  0.2825 -0.0707
 6225TIP3    H140166   5.836   3.245  13.870 -1.6094 -1.9004  0.2327
 6225TIP3    H240167   5.781   3.314  13.747  0.1805 -1.4052 -0.3280
 6226TIP3   OH240168   6.076   1.290  10.958 -0.0751 -0.5111  0.2838
 6226TIP3    H140169   6.023   1.242  11.022 -3.0380  1.0147 -0.8130
 6226TIP3    H240170   6.080   1.233  10.882 -2.6444  0.3667 -0.6154
 6227TIP3   OH240171   4.381   1.984  15.529 -0.3132  0.2886  0.3816
 6227TIP3    H140172   4.290   1.987  15.558 -0.2139 -1.8756  1.1117
 6227TIP3    H240173   4.431   2.022  15.601 -0.4689 -0.6789  1.0183
 6228TIP3   OH240174   6.516   2.465  12.448 -0.4014  0.1268  0.0037
 6228TIP3    H140175   6.573   2.404  12.401 -1.0211  0.4150 -1.1784
 6228TIP3    H240176   6.571   2.541  12.464  0.5732 -0.9282  2.0590
 6229TIP3   OH240177   2.858   2.135  14.783 -1.0581 -0.1777  0.0147
 6229TIP3    H140178   2.863   2.043  14.809  1.7791 -0.3426 -0.7399
 6229TIP3    H240179   2.851   2.132  14.688 -0.5574  0.3738 -0.0427
 6230TIP3   OH240180   0.518   5.743   4.959  0.0353 -0.5547  0.1844
 6230TIP3    H140181   0.552   5.757   4.870 -1.3696  1.0859 -0.1443
 6230TIP3    H240182   0.549   5.818   5.009 -1.9150  0.2860  0.2009
 6231TIP3   OH240183   3.532   4.234   0.444  0.0878 -0.4883  0.3578
 6231TIP3    H140184   3.572   4.162   0.395 -0.2934 -0.6713  0.3094
 6231TIP3    H240185   3.495   4.291   0.376 -2.0519 -1.6681  0.4327
 6232TIP3   OH240186   6.505   1.197  16.035  0.6612 -0.3101 -0.2869
 6232TIP3    H140187   6.524   1.275  16.087 -0.7831 -2.1108  3.3051
 6232TIP3    H240188   6.541   1.125  16.086  1.9869 -2.1345 -3.4801
 6233TIP3   OH240189   3.805   2.234  13.433  0.1056 -0.0739  0.4399
 6233TIP3    H140190   3.720   2.268  13.461  0.0035 -0.8731  1.1596
 6233TIP3    H240191   3.855   2.311  13.408 -0.7750  0.4235  0.1489
 6234TIP3   OH240192   1.201   6.028  11.992 -0.6059 -0.0879 -0.1630
 6234TIP3    H140193   1.203   5.942  12.034 -1.0231  0.0197  0.0888
 6234TIP3    H240194   1.143   6.080  12.048 -0.9591  0.1350 -0.7319
 6235TIP3   OH240195   2.025   0.094  13.358 -0.4219  0.2676  0.4592
 6235TIP3    H140196   1.976   0.012  13.358  0.2642 -0.2332 -1.9158
 6235TIP3    H240197   2.079   0.090  13.437 -3.2811  0.3546  2.5791
 6236TIP3   OH240198   0.689   0.620  11.611  0.0560 -0.1518 -0.2166
 6236TIP3    H140199   0.718   0.530  11.631  2.8095 -0.1337 -3.3508
 6236TIP3    H240200   0.727   0.673  11.682 -0.9702 -1.2798  1.2547
 6237TIP3   OH240201   1.831   0.224   2.086 -0.0551 -0.1469 -0.0632
 6237TIP3    H140202   1.837   0.316   2.060  0.6762 -0.6082 -1.6750
 6237TIP3    H240203   1.766   0.223   2.157 -0.6957  1.4900 -0.5746
 6238TIP3   OH240204   4.262   5.098  14.447 -0.5179 -0.3410  0.0223
 6238TIP3    H140205   4.355   5.120  14.453 -0.4033 -0.7792 -0.0637
 6238TIP3    H240206   4.252   5.023  14.507 -0.7597 -0.4611 -0.1675
 6239TIP3   OH240207   2.359   3.541  13.379  0.3559 -0.4986 -0.0013
 6239TIP3    H140208   2.328   3.502  13.460 -2.7937  0.2559 -0.7055
 6239TIP3    H240209   2.290   3.603  13.354  2.5385  1.3862 -1.7993
 6240TIP3   OH240210   1.189   0.988  14.933  0.1190 -0.1165  0.1534
 6240TIP3    H140211   1.102   1.023  14.915 -0.2226 -0.6675  0.6959
 6240TIP3    H240212   1.178   0.936  15.012  1.0924  0.3601  0.6212
 6241TIP3   OH240213   2.844   2.590  12.033 -0.7561 -0.6538  0.3105
 6241TIP3    H140214   2.871   2.525  12.098  0.3921  0.4376  0.9766
 6241TIP3    H240215   2.835   2.671  12.083  1.0420  0.4257 -0.9875
 6242TIP3   OH240216   5.225   3.184  16.089 -0.1549 -0.1808 -0.3817
 6242TIP3    H140217   5.296   3.191  16.153  0.2689  1.9952 -1.0244
 6242TIP3    H240218   5.161   3.125  16.130 -0.8100  2.5383  2.9188
 6243TIP3   OH240219   0.222   5.852  13.075  0.0017 -0.0073  0.2346
 6243TIP3    H140220   0.217   5.785  13.143  0.1017  1.3037  1.5672
 6243TIP3    H240221   0.140   5.901  13.083  0.4474  0.7732  0.0510
 6244TIP3   OH240222   3.381   3.659  16.221 -0.2799 -0.6869 -0.0265
 6244TIP3    H140223   3.311   3.634  16.162  1.1682 -0.0211 -2.1392
 6244TIP3    H240224   3.369   3.753  16.235 -1.0766 -0.9764  1.4525
 6245TIP3   OH240225   4.598   2.380   5.524 -0.4970  0.1682 -0.5445
 6245TIP3    H140226   4.516   2.393   5.475 -1.2465 -1.4049  0.2174
 6245TIP3    H240227   4.616   2.286   5.516  0.5102  0.2532  0.4348
 6246TIP3   OH240228   0.426   2.123   1.157 -0.4704 -0.2855 -0.1626
 6246TIP3    H140229   0.366   2.198   1.153 -1.6263 -1.1919 -0.3580
 6246TIP3    H240230   0.442   2.110   1.250  2.0327  1.9309 -0.1818
 6247TIP3   OH240231   4.711   0.020   4.965  0.5743  0.4214  0.0463
 6247TIP3    H140232   4.700  -0.003   5.057 -0.9634  2.5148  0.4581
 6247TIP3    H240233   4.672   0.107   4.957  0.0369  0.0213 -2.7256
 6248TIP3   OH240234   0.386   3.157   3.087  0.3059  0.2048  0.3103
 6248TIP3    H140235   0.309   3.104   3.065 -0.0591  0.1192  1.7225
 6248TIP3    H240236   0.420   3.119   3.168  2.7937 -0.7218 -1.0578
 6249TIP3   OH240237   1.019   4.082   2.525 -0.5102 -0.9999 -0.0044
 6249TIP3    H140238   1.110   4.101   2.545 -0.7742  0.7376 -0.3532
 6249TIP3    H240239   0.993   4.018   2.592 -0.4220  2.1454  3.3862
 6250TIP3   OH240240   6.294   5.713   1.709 -0.4527  0.1862  0.0047
 6250TIP3    H140241   6.278   5.635   1.656  1.2339 -0.1583 -0.0772
 6250TIP3    H240242   6.314   5.782   1.646  0.4958  0.0400  0.1198
 6251TIP3   OH240243   3.783   6.624  17.237 -0.2649  0.3644 -0.4856
 6251TIP3    H140244   3.862   6.570  17.250  0.4031  1.4057 -0.0564
 6251TIP3    H240245   3.713   6.573  17.277  0.0798 -0.8340 -1.3499
 6252TIP3   OH240246   6.709   1.222  13.864  0.4950  0.1372 -0.2553
 6252TIP3    H140247   6.771   1.184  13.802  1.4563  1.5463 -0.2105
 6252TIP3    H240248   6.699   1.313  13.835 -0.5235  0.3023  0.5441
 6253TIP3   OH240249   1.269   4.515  15.030 -0.1879 -0.1755  0.3722
 6253TIP3    H140250   1.202   4.562  15.079  0.8883  0.5998  1.1328
 6253TIP3    H240251   1.257   4.423  15.055  0.1156  0.1606  1.8128
 6254TIP3   OH240252   3.342   3.946  10.748  0.2341 -0.4474  0.2035
 6254TIP3    H140253   3.251   3.935  10.722  0.5322 -0.9347 -0.7214
 6254TIP3    H240254   3.342   4.021  10.807 -0.7280 -0.2948  0.0285
 6255TIP3   OH240255   5.401   4.246   2.299 -0.4845  0.3406 -0.0733
 6255TIP3    H140256   5.328   4.230   2.240  0.3869 -1.2527 -0.7917
 6255TIP3    H240257   5.467   4.288   2.244 -1.3846  3.3611  0.9571
 6256TIP3   OH240258   4.230   3.496  12.189 -0.5624  0.0964 -0.2738
 6256TIP3    H140259   4.293   3.567  12.176  0.0181 -0.2159  0.6709
 6256TIP3    H240260   4.270   3.420  12.146 -0.9767  0.2393 -0.9122
 6257TIP3   OH240261   4.468   1.273  14.571  0.8516 -0.2681  0.3962
 6257TIP3    H140262   4.424   1.206  14.625  0.1674 -0.0616  0.1035
 6257TIP3    H240263   4.401   1.341  14.559  1.2922  0.1008  0.0315
 6258TIP3   OH240264   6.618   3.365   1.462 -0.1828  0.1262 -0.3670
 6258TIP3    H140265   6.534   3.391   1.499 -0.0904  1.3348 -0.9431
 6258TIP3    H240266   6.599   3.336   1.373  0.0403  0.8081 -0.6484
 6259TIP3   OH240267   0.581   6.569  16.505 -0.1450 -0.1060 -0.4014
 6259TIP3    H140268   0.509   6.596  16.563  0.7287  0.0489  0.6486
 6259TIP3    H240269   0.572   6.474  16.499 -1.6724  0.0924 -1.9964
 6260TIP3   OH240270   3.491   2.287  16.729 -0.4181  0.3618  0.4712
 6260TIP3    H140271   3.571   2.272  16.779 -1.3078  1.4178  2.3186
 6260TIP3    H240272   3.468   2.200  16.695  0.7994 -0.1919  0.9953
 6261TIP3   OH240273   3.036   4.622  16.401  0.3601  0.3935 -0.0129
 6261TIP3    H140274   3.069   4.688  16.462 -0.8635  0.0664  1.0462
 6261TIP3    H240275   3.115   4.585  16.362  1.1461  1.2194  0.7246
 6262TIP3   OH240276   2.761   4.070  12.468 -0.4205  0.3299 -0.1386
 6262TIP3    H140277   2.680   4.118  12.451  0.9389  3.3115  0.9681
 6262TIP3    H240278   2.755   4.043  12.559  0.4993  2.2732  0.5677
 6263TIP3   OH240279   0.547   3.885  13.978  0.7710  0.0478 -0.4067
 6263TIP3    H140280   0.620   3.846  13.929  0.9401  0.0230 -0.1357
 6263TIP3    H240281   0.511   3.812  14.028  0.4516  0.0237 -0.6738
 6264TIP3   OH240282   5.688   2.675  14.763  0.6101  0.1871  0.3351
 6264TIP3    H140283   5.758   2.704  14.822  0.4637 -0.2509  0.7362
 6264TIP3    H240284   5.617   2.737  14.778  0.1224 -0.6288  1.5414
 6265TIP3   OH240285   1.805   1.775  15.644  0.0107 -0.5443  0.2017
 6265TIP3    H140286   1.734   1.735  15.593  0.3035  0.0344 -0.6936
 6265TIP3    H240287   1.821   1.713  15.715 -1.2034 -0.8110  0.2581
 6266TIP3   OH240288   3.117   2.530   1.764 -0.4731  0.2699 -0.1371
 6266TIP3    H140289   3.036   2.489   1.732 -0.9871  0.5468  0.7741
 6266TIP3    H240290   3.183   2.506   1.699 -1.4041  0.4972 -1.2018
 6267TIP3   OH240291   2.226   4.001  11.513  0.0027 -0.6591 -0.2017
 6267TIP3    H140292   2.160   4.067  11.489 -0.3222 -0.9559 -0.1398
 6267TIP3    H240293   2.245   3.956  11.431 -2.6384 -3.0661  0.3320
 6268TIP3   OH240294   4.095   1.423  15.649 -0.1864  0.5783 -0.5340
 6268TIP3    H140295   4.118   1.500  15.596 -0.1064  0.5210 -0.5824
 6268TIP3    H240296   4.040   1.370  15.591  2.1241 -0.8353 -1.5583
 6269TIP3   OH240297   1.160   5.597   3.545  0.2695  0.0497  0.3837
 6269TIP3    H140298   1.139   5.636   3.630  0.7655 -2.8394  1.9492
 6269TIP3    H240299   1.244   5.553   3.559  0.4635 -0.3324 -1.6956
 6270TIP3   OH240300   0.808   0.978  12.486  0.1436  0.1423  0.0453
 6270TIP3    H140301   0.864   0.916  12.438 -2.4438 -0.8918 -1.8432
 6270TIP3    H240302   0.753   0.922  12.541  1.3988  1.1924  2.5156
 6271TIP3   OH240303   2.739   0.544   3.185  0.4041 -0.0744  0.5271
 6271TIP3    H140304   2.666   0.595   3.151  0.2286  0.3133  1.4457
 6271TIP3    H240305   2.801   0.538   3.112 -0.6215 -0.5754 -0.3187
 6272TIP3   OH240306   0.754   2.567  13.737  0.2330 -0.2043  0.4275
 6272TIP3    H140307   0.705   2.489  13.711  0.0769 -0.6609  2.0378
 6272TIP3    H240308   0.819   2.536  13.800  0.3022  0.9380  0.9457
 6273TIP3   OH240309   3.337   0.878   6.095  0.4811  0.1785  0.2131
 6273TIP3    H140310   3.364   0.966   6.122  0.2644 -0.3462  2.3433
 6273TIP3    H240311   3.356   0.823   6.171 -3.2183 -0.8557  0.5835
 6274TIP3   OH240312   2.845   6.040   4.999 -0.5401 -0.0878 -0.0126
 6274TIP3    H140313   2.761   6.039   4.953 -0.6284  3.0472 -0.1217
 6274TIP3    H240314   2.847   5.957   5.045 -3.2817 -0.6863 -0.7543
 6275TIP3   OH240315   5.763   2.246   2.630  0.7470 -0.4103 -0.0456
 6275TIP3    H140316   5.780   2.288   2.715 -0.1983  0.0270 -0.0545
 6275TIP3    H240317   5.841   2.195   2.612  1.7073  0.9188  0.2411
 6276TIP3   OH240318   4.529   0.442   3.950  0.2088  0.0536  0.8859
 6276TIP3    H140319   4.536   0.531   3.983 -2.7009  2.3493 -3.6748
 6276TIP3    H240320   4.484   0.394   4.020 -1.5316  3.1801  2.1166
 6277TIP3   OH240321   1.085   3.958  16.790  0.1677  0.3292 -0.2759
 6277TIP3    H140322   1.039   3.912  16.860 -2.5826  1.2218 -1.3435
 6277TIP3    H240323   1.091   3.895  16.719  2.2159 -0.3126  0.4013
 6278TIP3   OH240324   0.536   6.822  11.673 -0.0388  0.5466  0.0051
 6278TIP3    H140325   0.449   6.856  11.653 -0.6917 -0.9118  0.2011
 6278TIP3    H240326   0.587   6.834  11.592 -0.8993  0.0071 -0.6327
 6279TIP3   OH240327   3.845   0.637  12.539 -0.0961 -0.1534  0.3742
 6279TIP3    H140328   3.856   0.612  12.447  0.5933  0.4354  0.2863
 6279TIP3    H240329   3.808   0.559  12.581  2.0593 -1.3907  0.1316
 6280TIP3   OH240330   3.548   1.797   0.021 -0.4550 -0.2418 -0.8636
 6280TIP3    H140331   3.513   1.878  -0.014 -1.5965  0.2862  1.3390
 6280TIP3    H240332   3.485   1.730  -0.005  0.1125 -0.3408 -2.0577
 6281TIP3   OH240333   6.338   0.644  12.992 -0.0900 -0.3283  0.2245
 6281TIP3    H140334   6.326   0.576  13.058 -0.5946  1.3907  2.0053
 6281TIP3    H240335   6.411   0.614  12.938  1.2469 -1.2081  2.4018
 6282TIP3   OH240336   4.845   3.576   5.859  0.2791  0.3361  0.4098
 6282TIP3    H140337   4.800   3.499   5.824 -0.7028  0.8986  0.3867
 6282TIP3    H240338   4.911   3.542   5.918  2.2417 -0.7066 -2.1774
 6283TIP3   OH240339   6.814   2.732   2.099 -0.0893 -0.7337 -0.1455
 6283TIP3    H140340   6.904   2.722   2.068  0.5514 -1.6205  1.8210
 6283TIP3    H240341   6.808   2.674   2.175 -1.6887  0.8455  1.0306
 6284TIP3   OH240342   1.550   0.928   1.377 -0.1267  0.6403 -0.3792
 6284TIP3    H140343   1.462   0.947   1.344 -0.6718  0.1924  0.7757
 6284TIP3    H240344   1.606   0.991   1.332 -0.7479 -0.2579 -2.5378
 6285TIP3   OH240345   4.643   5.538   6.337 -0.3774  0.3413 -0.3116
 6285TIP3    H140346   4.639   5.627   6.303 -0.0405  0.6910  0.5245
 6285TIP3    H240347   4.573   5.491   6.291  0.1741  0.7328 -1.6016
 6286TIP3   OH240348   4.646   4.665  12.510  0.6761  0.4000 -0.0926
 6286TIP3    H140349   4.570   4.674  12.453 -0.2993  0.5912  1.1788
 6286TIP3    H240350   4.720   4.655  12.451 -0.8043 -4.9621 -1.5890
 6287TIP3   OH240351   4.901   5.302   4.078  0.1110 -0.5369  0.4408
 6287TIP3    H140352   4.832   5.360   4.112 -0.1267 -1.2119  1.1156
 6287TIP3    H240353   4.950   5.358   4.018 -0.4956  0.1992  0.6054
 6288TIP3   OH240354   6.048   1.110  15.059  0.7735 -0.9207 -0.1832
 6288TIP3    H140355   5.968   1.066  15.030  1.2953 -1.0008 -1.6204
 6288TIP3    H240356   6.017   1.188  15.105 -0.2059  0.2771 -2.6549
 6289TIP3   OH240357   1.736   5.880  12.534 -0.3897 -0.4840  0.2146
 6289TIP3    H140358   1.707   5.889  12.625 -2.8599 -0.0080 -0.5286
 6289TIP3    H240359   1.670   5.928  12.484  1.6270  0.3908 -1.7584
 6290TIP3   OH240360   4.328   3.599   2.951  0.0318 -0.8421 -0.2845
 6290TIP3    H140361   4.272   3.615   2.875 -0.1402 -0.5900 -0.1068
 6290TIP3    H240362   4.289   3.523   2.993 -0.2856 -0.5609 -0.0632
 6291TIP3   OH240363   1.544   3.404  14.656  0.2331  0.0963 -0.7596
 6291TIP3    H140364   1.581   3.389  14.743 -0.0929  0.3596 -0.5741
 6291TIP3    H240365   1.577   3.490  14.630 -1.1877  0.8888 -0.0826
 6292TIP3   OH240366   4.840   3.874  11.456  0.4880  0.3006 -0.0637
 6292TIP3    H140367   4.834   3.790  11.501 -2.1513 -0.1212 -1.0362
 6292TIP3    H240368   4.776   3.930  11.500 -0.3358  0.6517 -1.6209
 6293TIP3   OH240369   2.851   5.940   1.669 -0.1899  0.3481  0.2177
 6293TIP3    H140370   2.871   6.023   1.626 -4.2715  1.6473  0.3774
 6293TIP3    H240371   2.877   5.955   1.760  2.3122  0.0474 -0.3743
 6294TIP3   OH240372   0.734   5.576  14.678 -0.5658  1.0163 -0.7658
 6294TIP3    H140373   0.645   5.589  14.645 -0.4692 -2.5282 -3.0264
 6294TIP3    H240374   0.723   5.564  14.773 -2.4845  0.8179 -0.9756
 6295TIP3   OH240375   0.584   2.352   4.573 -0.2161 -0.1356 -0.2761
 6295TIP3    H140376   0.504   2.354   4.625 -1.6136 -0.9795 -2.2528
 6295TIP3    H240377   0.620   2.440   4.581  0.2998 -0.5200  2.9793
 6296TIP3   OH240378   3.325   6.711   1.191 -0.0045  0.3609 -0.1286
 6296TIP3    H140379   3.309   6.616   1.189 -0.1084  0.3804 -0.3572
 6296TIP3    H240380   3.262   6.746   1.128  0.6714  0.4869 -0.7560
 6297TIP3   OH240381   1.951   4.711  11.502 -0.5291 -0.0092  0.3801
 6297TIP3    H140382   2.024   4.769  11.479 -0.7993 -0.3133 -1.3641
 6297TIP3    H240383   1.884   4.730  11.437 -0.8358 -1.8591  0.1019
 6298TIP3   OH240384   6.798   6.335   0.833 -0.6038 -0.0780 -0.0681
 6298TIP3    H140385   6.704   6.347   0.847 -0.4183  0.1144  1.1903
 6298TIP3    H240386   6.819   6.253   0.878 -0.0705  0.2072  0.2182
 6299TIP3   OH240387   0.416   3.380  16.455  0.3244  0.0528  0.0305
 6299TIP3    H140388   0.418   3.381  16.551 -1.9139  0.1709  0.1380
 6299TIP3    H240389   0.497   3.335  16.430  1.8103  1.5336  1.8824
 6300TIP3   OH240390   5.302   1.116  11.577 -0.0319 -0.7104 -0.3795
 6300TIP3    H140391   5.379   1.172  11.567  0.2162 -0.8585  0.5799
 6300TIP3    H240392   5.296   1.068  11.494 -0.6266  1.1641 -1.4952
 6301TIP3   OH240393   0.031   0.560   2.617  0.3040 -0.4640  0.3165
 6301TIP3    H140394   0.099   0.602   2.566 -0.1697  0.1748  0.2044
 6301TIP3    H240395   0.079   0.507   2.682  0.9077 -1.4746 -0.9153
 6302TIP3   OH240396   0.653   2.020   1.021 -0.2246 -0.5690  0.3449
 6302TIP3    H140397   0.597   2.097   1.012  0.0947 -0.2878  0.6990
 6302TIP3    H240398   0.710   2.041   1.095  0.6439 -0.6620 -0.2815
 6303TIP3   OH240399   0.974   5.867   0.242  0.1301 -0.0472 -0.6159
 6303TIP3    H140400   0.952   5.790   0.294  2.1234 -0.6073 -0.5226
 6303TIP3    H240401   0.917   5.936   0.275 -0.6902 -1.1242  0.2745
 6304TIP3   OH240402   3.719   2.919  16.007 -0.1226  0.4576  0.1126
 6304TIP3    H140403   3.776   2.955  15.939  0.9399  0.0582  0.7723
 6304TIP3    H240404   3.683   2.996  16.052  1.2067  0.7243  0.7533
 6305TIP3   OH240405   1.341   0.719  13.449  0.7290 -1.2437  0.0591
 6305TIP3    H140406   1.404   0.716  13.520  0.7370 -3.7099  0.0272
 6305TIP3    H240407   1.286   0.642  13.462 -1.0086 -0.2648 -1.0658
 6306TIP3   OH240408   2.343   1.348  14.215 -0.2707  0.4285  0.3387
 6306TIP3    H140409   2.431   1.365  14.247 -0.5496 -0.1726  1.4681
 6306TIP3    H240410   2.352   1.350  14.119  1.5343 -2.1956  0.3364
 6307TIP3   OH240411   4.423   4.836  11.601 -0.3327 -0.1893 -0.1996
 6307TIP3    H140412   4.368   4.776  11.653  1.0681 -0.6233  0.8423
 6307TIP3    H240413   4.443   4.787  11.522  0.3805 -0.9263  0.4184
 6308TIP3   OH240414   3.869   3.432   3.729  0.0123 -0.2294 -0.1818
 6308TIP3    H140415   3.781   3.430   3.692  0.2186  0.9030 -0.7746
 6308TIP3    H240416   3.925   3.458   3.657  0.5869  0.7961  0.6038
 6309TIP3   OH240417   0.427   2.944   5.178  0.4986  0.3433  0.1620
 6309TIP3    H140418   0.425   2.853   5.148 -0.1977  0.8281 -1.3743
 6309TIP3    H240419   0.482   2.943   5.256 -0.2630 -1.5488  0.7329
 6310TIP3   OH240420   5.181   1.937   0.331  0.0975 -0.1497 -0.1687
 6310TIP3    H140421   5.232   1.944   0.411 -0.7690 -0.2825  0.4102
 6310TIP3    H240422   5.241   1.965   0.261  0.0802  2.5277  0.7948
 6311TIP3   OH240423   6.124   1.839  15.694 -0.5220 -0.3289 -0.4508
 6311TIP3    H140424   6.101   1.874  15.780 -2.9421 -0.0581 -1.1309
 6311TIP3    H240425   6.219   1.853  15.686 -0.4713  0.7997  1.6246
 6312TIP3   OH240426   6.075   4.132   4.744 -0.1455  0.2500  0.0673
 6312TIP3    H140427   6.065   4.057   4.686 -2.5372 -0.5288  1.3638
 6312TIP3    H240428   6.169   4.148   4.747  0.1902 -0.6940 -2.6792
 6313TIP3   OH240429   1.009   6.083   1.363 -0.7484  0.1298  0.4453
 6313TIP3    H140430   0.963   6.103   1.282 -1.0400  1.4805  0.9142
 6313TIP3    H240431   1.033   5.990   1.355 -2.3307 -0.2388 -0.4016
 6314TIP3   OH240432   0.814   1.459   1.117  0.0110  0.1017 -0.1859
 6314TIP3    H140433   0.891   1.484   1.067 -0.2089  1.0283 -0.0694
 6314TIP3    H240434   0.756   1.535   1.112 -2.3752 -1.6620 -3.0685
 6315TIP3   OH240435   6.575   5.440  14.756 -0.0788 -0.4244 -0.1876
 6315TIP3    H140436   6.587   5.350  14.724  1.3358  0.1663 -1.4262
 6315TIP3    H240437   6.664   5.472  14.771 -0.5706  0.7131  0.4366
 6316TIP3   OH240438   1.660   0.016   1.104 -0.5827 -0.2237 -0.7173
 6316TIP3    H140439   1.694   0.056   1.024  0.2308 -1.3885 -0.9626
 6316TIP3    H240440   1.721   0.043   1.172 -1.3990  0.9554 -0.4152
 6317TIP3   OH240441   0.914   4.606  16.632  0.6339 -0.2484 -0.0711
 6317TIP3    H140442   0.993   4.561  16.660  0.8204 -1.0326 -1.6936
 6317TIP3    H240443   0.931   4.630  16.541 -0.1040  1.6951  0.2487
 6318TIP3   OH240444   5.408   4.072  12.294  0.6142 -0.0865  0.1506
 6318TIP3    H140445   5.340   4.057  12.229  0.7791  1.3178 -0.3736
 6318TIP3    H240446   5.468   4.134  12.253  0.1620  1.6954  1.9796
 6319TIP3   OH240447   5.522   0.226  11.706 -0.1330 -0.1534  0.0406
 6319TIP3    H140448   5.500   0.133  11.710  0.5279 -0.3079  0.3845
 6319TIP3    H240449   5.439   0.270  11.692 -0.7853 -0.6508  2.0262
 6320TIP3   OH240450   5.200   4.722  14.243 -0.0191  0.7156  0.1575
 6320TIP3    H140451   5.274   4.776  14.272  0.5815 -0.5964  1.1707
 6320TIP3    H240452   5.241   4.651  14.193 -0.0894 -2.0249  3.5929
 6321TIP3   OH240453   6.631   5.229  15.486 -0.0910  0.1631  0.8230
 6321TIP3    H140454   6.651   5.138  15.467 -1.4940  0.3203 -2.0325
 6321TIP3    H240455   6.703   5.278  15.446 -0.3530  0.3531  0.5785
 6322TIP3   OH240456   5.393   0.899   4.002 -0.3105 -0.2098 -0.9994
 6322TIP3    H140457   5.300   0.877   4.013 -0.7101  1.6135 -0.4428
 6322TIP3    H240458   5.438   0.815   4.006 -2.0262 -1.2535 -2.3358
 6323TIP3   OH240459   1.267   2.247   2.993  0.3272 -0.4855 -0.1019
 6323TIP3    H140460   1.330   2.308   2.953 -0.4477  0.5759  0.2561
 6323TIP3    H240461   1.321   2.190   3.048  1.1810 -0.7729 -1.1944
 6324TIP3   OH240462   3.529   0.102  11.667 -1.1510  0.2654  0.0228
 6324TIP3    H140463   3.441   0.070  11.650 -0.7088 -1.6914  1.1543
 6324TIP3    H240464   3.552   0.066  11.753  1.9035 -2.0142 -1.5405
 6325TIP3   OH240465   0.175   0.890  13.243 -0.8108  0.6406 -0.2340
 6325TIP3    H140466   0.127   0.953  13.190  1.1171  2.2724 -0.1413
 6325TIP3    H240467   0.207   0.825  13.179  0.9957  2.2655 -1.0946
 6326TIP3   OH240468   3.840   2.027  12.373  0.5053 -0.3126 -0.3804
 6326TIP3    H140469   3.866   1.951  12.425  0.2191 -0.9724 -1.1737
 6326TIP3    H240470   3.908   2.092  12.391 -0.3973  0.0513  1.9831
 6327TIP3   OH240471   1.639   4.260   1.820  0.0651  0.9160  0.2489
 6327TIP3    H140472   1.582   4.206   1.766  0.3520  1.1668 -0.3227
 6327TIP3    H240473   1.585   4.335   1.845 -0.6186 -0.0421  1.8025
 6328TIP3   OH240474   4.867   6.121  13.833  0.2311 -0.2125 -0.1299
 6328TIP3    H140475   4.957   6.094  13.812 -0.0973 -1.7967  0.3779
 6328TIP3    H240476   4.813   6.073  13.770 -0.2478  1.5743 -1.1820
 6329TIP3   OH240477   5.137   0.083   6.048  0.7967 -0.1662  0.0002
 6329TIP3    H140478   5.193   0.030   5.991  3.5946  0.5212  1.9274
 6329TIP3    H240479   5.196   0.146   6.088 -1.2597  0.2661  2.6278
 6330TIP3   OH240480   0.353   3.884   3.665 -0.0475  0.2083 -0.3114
 6330TIP3    H140481   0.371   3.831   3.587 -1.2439 -0.2489 -0.3058
 6330TIP3    H240482   0.274   3.845   3.702  0.2656  0.6838  0.9023
 6331TIP3   OH240483   6.564   6.153  16.871 -0.0470  0.8394 -0.0191
 6331TIP3    H140484   6.553   6.098  16.793 -0.0600 -0.0481  0.5934
 6331TIP3    H240485   6.658   6.153  16.888 -0.1503  0.0645  0.6290
 6332TIP3   OH240486   1.982   0.945   5.024 -0.0003 -0.4127  0.5365
 6332TIP3    H140487   2.046   0.970   4.957 -0.1459 -1.2985  0.0442
 6332TIP3    H240488   1.925   0.882   4.979 -0.2480 -0.8319  1.4312
 6333TIP3   OH240489   0.103   5.641  15.413  0.0811  0.3524  0.6637
 6333TIP3    H140490   0.098   5.549  15.436 -0.4390  0.8378  2.6503
 6333TIP3    H240491   0.044   5.650  15.338 -1.6154 -0.5399  1.8283
 6334TIP3   OH240492   2.533   6.406   4.751  0.1200 -0.2054  0.2155
 6334TIP3    H140493   2.460   6.365   4.797  0.9538 -1.0345  0.8338
 6334TIP3    H240494   2.529   6.370   4.662 -1.4736  1.3717 -0.4166
 6335TIP3   OH240495   0.413   2.171  11.522 -0.4023  0.2798  0.0976
 6335TIP3    H140496   0.348   2.148  11.456  1.6003 -1.8641 -1.2606
 6335TIP3    H240497   0.401   2.106  11.591  1.7196 -1.6914 -1.2537
 6336TIP3   OH240498   2.844   3.036  14.882  0.3097 -0.3357 -0.1259
 6336TIP3    H140499   2.850   3.052  14.977 -1.7529  1.1811 -0.1686
 6336TIP3    H240500   2.874   3.118  14.842  3.5702 -1.7924 -0.9573
 6337TIP3   OH240501   6.103   3.995  14.097  0.6968  0.4135 -0.0033
 6337TIP3    H140502   6.147   3.928  14.045  1.0064  1.5337 -1.2358
 6337TIP3    H240503   6.041   4.036  14.037  2.1340  2.7638 -0.0254
 6338TIP3   OH240504   1.621   2.216  13.661  0.1809  0.0743 -0.2103
 6338TIP3    H140505   1.625   2.143  13.722  1.0393 -0.3285 -0.7299
 6338TIP3    H240506   1.545   2.197  13.606  0.9044 -0.8936 -0.8992
 6339TIP3   OH240507   4.911   1.779  16.095  0.6026  0.2880  0.1525
 6339TIP3    H140508   4.919   1.708  16.159  3.3565 -1.7897 -2.1977
 6339TIP3    H240509   4.991   1.831  16.106  0.0259  1.2561 -0.1173
 6340TIP3   OH240510   6.717   0.574   0.154  0.2337 -0.2482  0.1126
 6340TIP3    H140511   6.802   0.616   0.139  0.2563 -0.4306 -0.3005
 6340TIP3    H240512   6.731   0.483   0.127  0.3376 -0.6575  1.4727
 6341TIP3   OH240513   4.231   2.196   0.852 -0.0667 -0.2723  0.6105
 6341TIP3    H140514   4.174   2.129   0.815 -2.6074  1.7465  0.5854
 6341TIP3    H240515   4.194   2.213   0.939 -0.6643  2.2924 -0.0622
 6342TIP3   OH240516   2.945   4.983  13.712  0.2519 -0.8080  0.8757
 6342TIP3    H140517   2.852   4.964  13.723 -0.4194  2.3850  1.6195
 6342TIP3    H240518   2.983   4.899  13.683 -2.4777 -2.6934  2.2892
 6343TIP3   OH240519   4.707   3.741  15.513  0.2514 -0.3338  0.3998
 6343TIP3    H140520   4.767   3.726  15.586  0.0347 -2.2760  0.2506
 6343TIP3    H240521   4.621   3.718  15.548 -0.0595  0.1386 -0.0510
 6344TIP3   OH240522   1.712   1.764   1.104  0.3050  0.4273 -0.4772
 6344TIP3    H140523   1.713   1.670   1.087  0.2686  0.5808 -1.4034
 6344TIP3    H240524   1.790   1.781   1.157  0.2886 -0.1263 -0.2755
 6345TIP3   OH240525   2.646   1.037  15.195 -0.0614  0.0868 -0.1054
 6345TIP3    H140526   2.681   0.948  15.189  2.4642  0.9767  0.3168
 6345TIP3    H240527   2.553   1.025  15.215 -0.2455 -2.4506 -1.9303
 6346TIP3   OH240528   1.470   1.114  11.844  0.1756  0.1727 -0.0121
 6346TIP3    H140529   1.480   1.209  11.853 -0.8995  0.1632  2.0003
 6346TIP3    H240530   1.376   1.100  11.839  0.2527 -0.8293  0.8466
 6347TIP3   OH240531   0.849   5.861  11.824  0.4167 -0.1993  0.7182
 6347TIP3    H140532   0.883   5.940  11.781 -1.6675  0.4448  0.0818
 6347TIP3    H240533   0.759   5.885  11.848  0.0751 -2.0600  1.4365
 6348TIP3   OH240534   5.024   3.586   3.020  0.2963 -0.0601 -0.2753
 6348TIP3    H140535   4.957   3.616   2.959 -1.4469 -1.2308  0.9868
 6348TIP3    H240536   5.105   3.628   2.988 -0.6741  0.0965 -2.8117
 6349TIP3   OH240537   5.409   1.290   3.312 -0.6923 -0.9743  0.3186
 6349TIP3    H140538   5.417   1.304   3.406 -2.0698  0.3929  0.2679
 6349TIP3    H240539   5.490   1.246   3.287  0.2991 -0.1198  1.9077
 6350TIP3   OH240540   4.180   6.520   1.583 -0.2266  0.3200  0.4058
 6350TIP3    H140541   4.194   6.430   1.614  0.0667 -0.0875 -0.8719
 6350TIP3    H240542   4.136   6.563   1.657 -0.6770 -0.9516  0.9229
 6351TIP3   OH240543   3.264   3.765   1.090 -0.3341  0.2877  0.4417
 6351TIP3    H140544   3.278   3.744   0.997  0.4528 -1.4372  0.9119
 6351TIP3    H240545   3.321   3.840   1.105  0.2409  0.0169 -0.2709
 6352TIP3   OH240546   5.605   4.404   4.849 -0.1715 -0.1616 -0.1799
 6352TIP3    H140547   5.674   4.465   4.822 -0.7196  1.1315  1.2164
 6352TIP3    H240548   5.651   4.322   4.867  1.0803  0.7476  0.9672
 6353TIP3   OH240549   6.768   2.203   1.772 -0.3142 -0.0699  0.0358
 6353TIP3    H140550   6.794   2.295   1.762  0.9583 -0.4635 -0.5187
 6353TIP3    H240551   6.836   2.164   1.826 -0.0549 -0.9996 -0.9186
 6354TIP3   OH240552   4.685   3.525   2.490  0.7362 -0.2107 -0.5517
 6354TIP3    H140553   4.772   3.539   2.451  0.9006  1.8514  0.4334
 6354TIP3    H240554   4.629   3.589   2.446 -0.2578 -1.3354 -0.9758
 6355TIP3   OH240555   5.184   5.781   4.937 -0.3372  0.1542 -0.0804
 6355TIP3    H140556   5.206   5.816   5.023 -0.4202 -1.1380  0.4876
 6355TIP3    H240557   5.143   5.854   4.891  2.1454  1.6976 -0.0166
 6356TIP3   OH240558   0.307   2.213  14.853  0.2041 -0.2779  0.1102
 6356TIP3    H140559   0.352   2.186  14.773 -1.3339 -1.3290 -0.4580
 6356TIP3    H240560   0.275   2.131  14.891  0.2283  0.2850  1.3775
 6357TIP3   OH240561   4.997   3.795   0.190 -0.1869  0.2187 -0.5206
 6357TIP3    H140562   4.995   3.815   0.284 -0.3483  0.4858 -0.5793
 6357TIP3    H240563   4.929   3.851   0.153  1.6770  2.1458 -1.1996
 6358TIP3   OH240564   2.199   5.019   2.714  0.3449 -0.5080  0.3635
 6358TIP3    H140565   2.121   4.978   2.676  0.8512 -0.9265 -0.2523
 6358TIP3    H240566   2.169   5.054   2.798 -1.1328  1.5345 -0.9262
 6359TIP3   OH240567   6.299   3.880  16.747 -0.5430  0.0129  0.5991
 6359TIP3    H140568   6.298   3.952  16.683 -1.3186 -0.8947 -0.4445
 6359TIP3    H240569   6.391   3.854  16.752 -0.1491  1.4936  1.4949
 6360TIP3   OH240570   0.535   3.664   4.094  0.6752  0.3161  0.6864
 6360TIP3    H140571   0.462   3.721   4.116  0.6361  0.6933 -0.3747
 6360TIP3    H240572   0.535   3.598   4.163 -0.7887  0.1954  0.6036
 6361TIP3   OH240573   1.664   3.707   6.054 -0.1443  0.5327 -0.5592
 6361TIP3    H140574   1.577   3.680   6.025 -0.3945  0.4944  0.1963
 6361TIP3    H240575   1.705   3.627   6.087  0.2609  0.5098 -1.1021
 6362TIP3   OH240576   3.413   3.787   0.591 -0.4206  0.4025 -0.2789
 6362TIP3    H140577   3.438   3.702   0.556  1.1958  1.1043 -0.9211
 6362TIP3    H240578   3.377   3.835   0.515 -1.4755  0.2676  0.1107
 6363TIP3   OH240579   4.152   5.856  10.864 -0.0066 -0.8961 -0.0606
 6363TIP3    H140580   4.172   5.766  10.837  1.0291 -0.2701 -1.5490
 6363TIP3    H240581   4.073   5.879  10.815  0.6495 -0.4768 -0.9479
 6364TIP3   OH240582   2.470   4.101  12.462  0.0833 -0.4535 -0.7943
 6364TIP3    H140583   2.418   4.178  12.440 -1.0284 -1.0897 -0.4626
 6364TIP3    H240584   2.417   4.053  12.525  0.0103 -2.3086 -2.1706
 6365TIP3   OH240585   2.428   1.730  11.557 -0.2010 -0.3227  0.2923
 6365TIP3    H140586   2.446   1.811  11.509 -0.4468 -0.1694  0.4571
 6365TIP3    H240587   2.444   1.661  11.493 -0.7869 -0.1067 -0.0918
 6366TIP3   OH240588   3.772   2.278  16.770 -0.6373 -0.5047 -0.2633
 6366TIP3    H140589   3.815   2.300  16.687  1.4853  0.1598  0.9488
 6366TIP3    H240590   3.813   2.196  16.797 -0.3602 -0.0397  0.7607
 6367TIP3   OH240591   4.485   2.589   5.160  0.2151 -0.8715  0.5290
 6367TIP3    H140592   4.460   2.505   5.121  0.0944 -0.9078  0.6798
 6367TIP3    H240593   4.567   2.613   5.118  0.0016 -0.8293  0.1357
 6368TIP3   OH240594   0.681   0.387  13.596  0.3237 -0.3987 -0.1981
 6368TIP3    H140595   0.611   0.452  13.601 -0.7097 -1.5446  1.1274
 6368TIP3    H240596   0.751   0.422  13.651  1.1933  1.1308 -2.1546
 6369TIP3   OH240597   1.126   5.956   6.884 -0.0180  0.3618 -0.4720
 6369TIP3    H140598   1.097   6.028   6.828 -1.2682  0.2043 -0.0614
 6369TIP3    H240599   1.199   5.916   6.836  0.7285  1.9057 -0.6767
 6370TIP3   OH240600   4.657   0.452   3.261  0.3143  0.2120 -0.2685
 6370TIP3    H140601   4.586   0.514   3.244 -0.0992 -0.1661  0.0690
 6370TIP3    H240602   4.618   0.386   3.318  0.8648 -0.1447 -0.3020
 6371TIP3   OH240603   3.707   0.872   0.817 -0.0010 -0.4460  0.1624
 6371TIP3    H140604   3.641   0.938   0.838 -0.8944 -1.3830  0.4143
 6371TIP3    H240605   3.734   0.893   0.728  0.0207  0.4766  0.3717
 6372TIP3   OH240606   5.720   5.355  14.954 -0.3797  0.3810 -0.1316
 6372TIP3    H140607   5.801   5.405  14.939 -0.7813  0.9634 -0.3797
 6372TIP3    H240608   5.738   5.305  15.034 -0.0402  1.0798  0.2438
 6373TIP3   OH240609   6.657   2.461  16.388  0.1228  0.0851 -0.1553
 6373TIP3    H140610   6.564   2.446  16.371  0.1179 -0.5855  0.4262
 6373TIP3    H240611   6.663   2.555  16.407 -0.7738 -0.2155  1.8163
 6374TIP3   OH240612   5.966   2.369   2.108 -0.0322 -0.0922  0.1139
 6374TIP3    H140613   6.036   2.410   2.056  0.3537 -1.5178 -0.5357
 6374TIP3    H240614   5.900   2.438   2.117  0.8279  0.8450 -0.4675
 6375TIP3   OH240615   5.934   4.473   0.314  0.3807 -0.4991 -0.0395
 6375TIP3    H140616   6.018   4.504   0.347  0.4795 -1.6865  0.9195
 6375TIP3    H240617   5.891   4.551   0.279  1.4685  0.3007  0.3568
 6376TIP3   OH240618   2.859   6.188  11.703  0.5799  0.0732  0.0044
 6376TIP3    H140619   2.767   6.196  11.678 -0.1463 -1.2650  1.9810
 6376TIP3    H240620   2.908   6.200  11.621 -1.2944  1.5255 -0.9634
 6377TIP3   OH240621   0.608   0.132   2.278 -0.0770  0.1271 -0.4440
 6377TIP3    H140622   0.577   0.042   2.266 -2.1116  0.8004 -0.5140
 6377TIP3    H240623   0.567   0.160   2.360  1.2151  0.7424  0.0169
 6378TIP3   OH240624   6.511   4.438  14.995 -0.4352 -0.1330 -0.3984
 6378TIP3    H140625   6.470   4.377  14.933  0.1348 -1.7783  0.7819
 6378TIP3    H240626   6.577   4.386  15.040 -0.2481  1.2544  1.0238
 6379TIP3   OH240627   2.553   3.540  12.425  0.2903  0.1729  0.3379
 6379TIP3    H140628   2.500   3.605  12.378  1.8708 -0.4233 -2.5416
 6379TIP3    H240629   2.599   3.590  12.492  0.7050  1.9047 -1.1476
 6380TIP3   OH240630   0.686   4.627   4.286  0.1078 -0.1884  0.3460
 6380TIP3    H140631   0.648   4.603   4.202  0.8055  0.6392 -0.2334
 6380TIP3    H240632   0.697   4.544   4.333 -1.4284 -0.5331  0.1296
 6381TIP3   OH240633   2.298   1.654   2.644 -0.0864  0.1958 -0.0952
 6381TIP3    H140634   2.359   1.715   2.686 -0.8586  1.8248 -1.2172
 6381TIP3    H240635   2.313   1.571   2.688  1.2710  1.1068  1.2708
 6382TIP3   OH240636   2.493   3.321   5.780 -0.5402  0.0798 -0.7017
 6382TIP3    H140637   2.542   3.290   5.856 -1.4136  1.8713  0.6713
 6382TIP3    H240638   2.559   3.329   5.711  0.6406  0.1059  0.3849
 6383TIP3   OH240639   6.075   6.050  14.693 -0.4976  0.3907  0.0928
 6383TIP3    H140640   6.101   6.142  14.708  0.0400  0.1699  0.5547
 6383TIP3    H240641   6.154   6.009  14.656 -1.0054  0.3108 -0.9379
 6384TIP3   OH240642   3.069   3.359  11.840  0.7721 -0.2129  0.0597
 6384TIP3    H140643   3.106   3.408  11.913 -2.7830  1.6425  0.8426
 6384TIP3    H240644   3.084   3.268  11.862  3.1413  0.3695  1.1412
 6385TIP3   OH240645   2.511   3.431   0.922 -0.0719  0.1380  0.6857
 6385TIP3    H140646   2.577   3.362   0.922  0.6061  0.6894 -1.8635
 6385TIP3    H240647   2.435   3.393   0.878 -0.3960  0.4216  0.9895
 6386TIP3   OH240648   3.177   3.175  13.189 -0.1297 -0.2747  0.5676
 6386TIP3    H140649   3.242   3.139  13.130  1.2274 -0.1775  1.9388
 6386TIP3    H240650   3.117   3.102  13.207  1.5688 -1.4090  1.9353
 6387TIP3   OH240651   5.407   5.015   0.459 -0.7348  0.3482  0.1954
 6387TIP3    H140652   5.401   4.924   0.431  2.0926  0.7111 -2.0672
 6387TIP3    H240653   5.469   5.014   0.533 -2.6039  0.2501  1.8510
 6388TIP3   OH240654   2.609   5.345  11.297 -0.1555 -0.0288 -0.2763
 6388TIP3    H140655   2.576   5.280  11.359  1.8642 -0.1350  0.7681
 6388TIP3    H240656   2.691   5.308  11.265  1.5515  2.3479  1.0468
 6389TIP3   OH240657   2.833   2.987  13.432  0.0532  0.3816  0.3542
 6389TIP3    H140658   2.742   2.959  13.447 -0.2717  1.4170  0.3892
 6389TIP3    H240659   2.825   3.067  13.379  0.9327  0.6305  0.5877
 6390TIP3   OH240660   1.368   6.207  11.549 -0.5494  0.4164  0.5633
 6390TIP3    H140661   1.411   6.291  11.566 -0.3095  0.2288  0.9019
 6390TIP3    H240662   1.279   6.218  11.584 -0.7812  0.8056 -0.1386
 6391TIP3   OH240663   2.689   6.801  14.718  0.0353  0.0026 -0.5529
 6391TIP3    H140664   2.704   6.872  14.781  0.2510 -0.8449  0.3852
 6391TIP3    H240665   2.771   6.794  14.669  0.4134 -0.3239  0.1130
 6392TIP3   OH240666   0.063   3.971   5.098 -0.5310 -0.3474 -0.8376
 6392TIP3    H140667  -0.023   4.011   5.089 -0.3346 -0.3449 -3.1499
 6392TIP3    H240668   0.051   3.880   5.071  0.2487 -0.2562 -1.5287
 6393TIP3   OH240669   1.364   5.276   3.065  0.4099 -0.4402  0.2353
 6393TIP3    H140670   1.414   5.241   2.990  1.0644 -0.0730  0.4892
 6393TIP3    H240671   1.283   5.225   3.066  0.9960 -1.3982  0.1062
 6394TIP3   OH240672   6.168   3.072   3.666  0.7914 -0.1709 -0.4279
 6394TIP3    H140673   6.147   3.003   3.602  0.4517  1.1366 -1.7660
 6394TIP3    H240674   6.084   3.091   3.708  1.0542 -1.1786  0.5894
 6395TIP3   OH240675   4.840   5.247  13.848  0.2323 -1.0104  0.6494
 6395TIP3    H140676   4.903   5.178  13.868 -0.4277 -1.8127  0.0565
 6395TIP3    H240677   4.777   5.245  13.920 -0.0274 -1.3388  0.4208
 6396TIP3   OH240678   4.914   6.180  11.879 -0.1243  0.4021 -0.3790
 6396TIP3    H140679   4.934   6.103  11.825  1.3119  0.4543  0.0514
 6396TIP3    H240680   4.846   6.227  11.829 -1.8069 -1.6470 -0.1607
 6397TIP3   OH240681   6.658   0.603   0.915  0.4734 -0.0011 -0.0308
 6397TIP3    H140682   6.696   0.552   0.844  2.2439  0.9228  0.1968
 6397TIP3    H240683   6.673   0.549   0.993  1.5869  0.4539  0.0905
 6398TIP3   OH240684   4.158   6.647   0.108  0.6836  0.2399  0.1814
 6398TIP3    H140685   4.079   6.594   0.104  0.4904  0.5909 -1.0811
 6398TIP3    H240686   4.208   6.623   0.030  0.2634  2.3831 -0.8140
 6399TIP3   OH240687   0.756   5.799   1.584 -0.1437 -0.0313  0.0797
 6399TIP3    H140688   0.675   5.810   1.536 -0.3801 -0.2437  0.4255
 6399TIP3    H240689   0.800   5.884   1.577 -1.1453  0.6291  1.2446
 6400TIP3   OH240690   3.945   3.359  15.250  0.3880 -0.3908  0.1345
 6400TIP3    H140691   3.911   3.360  15.161  0.2393  0.4977  0.1840
 6400TIP3    H240692   3.978   3.271  15.263  0.7038 -0.4338 -0.9092
 6401TIP3   OH240693   3.399   2.752   1.317 -0.1233 -0.1467 -0.6056
 6401TIP3    H140694   3.347   2.676   1.291 -0.3130  0.0607 -0.8325
 6401TIP3    H240695   3.335   2.819   1.339  0.0458  0.0415 -0.6844
 6402TIP3   OH240696   3.597   5.965   5.083  0.0899 -0.3322  0.2345
 6402TIP3    H140697   3.561   6.010   5.160  1.3710 -0.5223  0.9669
 6402TIP3    H240698   3.617   6.036   5.022 -0.2401 -0.1224  0.3598
 6403TIP3   OH240699   1.321   0.399  12.741 -0.1432  0.1113 -0.3529
 6403TIP3    H140700   1.251   0.334  12.754 -0.4975 -0.5169 -4.2228
 6403TIP3    H240701   1.293   0.475  12.792 -1.6474 -1.4350  1.2732
 6404TIP3   OH240702   3.483   1.895   5.826 -0.0538 -0.1509  0.9613
 6404TIP3    H140703   3.392   1.901   5.854 -0.0483  0.9075  0.7763
 6404TIP3    H240704   3.497   1.972   5.771  0.9056 -0.3936  0.8434
 6405TIP3   OH240705   2.272   4.285  13.237  0.4384  0.4548 -0.4798
 6405TIP3    H140706   2.328   4.320  13.168 -0.2948 -0.2603 -1.4569
 6405TIP3    H240707   2.221   4.217  13.195 -0.4490  0.3958  0.6377
 6406TIP3   OH240708   3.052   4.306  15.827  0.1966 -0.3404  0.3152
 6406TIP3    H140709   2.985   4.239  15.817  1.1809 -1.0482 -2.5079
 6406TIP3    H240710   3.123   4.262  15.875  0.7249 -1.2979 -1.2820
 6407TIP3   OH240711   1.499   1.669  12.623  0.0775  0.1533 -0.1512
 6407TIP3    H140712   1.441   1.695  12.694  0.4845 -2.0966  1.0701
 6407TIP3    H240713   1.576   1.724  12.634 -0.6998  1.3001 -0.1900
 6408TIP3   OH240714   2.983   2.307  16.424  0.5326 -0.8984 -0.0958
 6408TIP3    H140715   3.045   2.250  16.469  0.5507 -1.7734 -1.1981
 6408TIP3    H240716   2.964   2.262  16.341 -1.1687 -0.4003 -0.0166
 6409TIP3   OH240717   0.355   4.059  13.804  0.8621  0.0441 -0.8864
 6409TIP3    H140718   0.448   4.056  13.827  0.6971 -0.4658 -0.2440
 6409TIP3    H240719   0.346   3.999  13.731  1.1137  0.4419 -1.2512
 6410TIP3   OH240720   1.529   3.283   4.170 -0.5263 -0.5338  0.0527
 6410TIP3    H140721   1.587   3.321   4.236 -0.5092  1.2929 -0.9397
 6410TIP3    H240722   1.588   3.262   4.097 -1.1483  2.7587 -1.5860
 6411TIP3   OH240723   2.471   6.480   4.089 -0.0185 -0.7378  0.1591
 6411TIP3    H140724   2.464   6.409   4.024 -0.6252  0.6714 -1.3753
 6411TIP3    H240725   2.478   6.560   4.037 -0.9001  0.4934  1.8320
 6412TIP3   OH240726   6.610   2.721  16.039  0.5621  0.0861  0.0919
 6412TIP3    H140727   6.584   2.704  15.948  0.8134  4.9241 -1.1573
 6412TIP3    H240728   6.540   2.776  16.074  1.1353 -0.5539  2.4228
 6413TIP3   OH240729   0.150   2.383   3.807 -0.2036  0.3968 -0.2419
 6413TIP3    H140730   0.191   2.426   3.882  1.8421  0.1846 -1.1746
 6413TIP3    H240731   0.179   2.434   3.731  0.1507 -1.0786 -1.1389
 6414TIP3   OH240732   1.275   0.720   1.977  0.2280  0.2051  0.0278
 6414TIP3    H140733   1.330   0.764   1.911 -0.8038  1.9065  0.2229
 6414TIP3    H240734   1.281   0.776   2.054  0.1645 -0.9145  0.8653
 6415TIP3   OH240735   3.056   6.809  12.813  0.4378 -0.0735 -0.0691
 6415TIP3    H140736   3.032   6.776  12.899  0.1586  1.3153  0.4040
 6415TIP3    H240737   3.119   6.745  12.779  0.4732 -0.6837  1.1073
 6416TIP3   OH240738   3.934   3.337  10.805  0.7450  0.1242 -0.7749
 6416TIP3    H140739   3.954   3.380  10.888 -2.4707 -0.4105  0.4201
 6416TIP3    H240740   3.870   3.394  10.762 -1.8890 -2.1211 -0.1854
 6417TIP3   OH240741   6.103   1.366  15.873 -0.2211 -0.4030 -0.3944
 6417TIP3    H140742   6.141   1.445  15.911  2.2988 -1.6768 -0.0448
 6417TIP3    H240743   6.062   1.321  15.946  1.6519 -1.2035  0.2078
 6418TIP3   OH240744   5.442   4.527  15.050  0.3269 -0.8007 -0.1572
 6418TIP3    H140745   5.455   4.618  15.078 -0.6604 -0.3507 -1.0863
 6418TIP3    H240746   5.529   4.489  15.050  0.8774  0.4177 -0.6288
 6419TIP3   OH240747   6.481   6.581  12.757  0.0548 -0.2767  1.1203
 6419TIP3    H140748   6.536   6.606  12.831 -0.6664 -0.0345  1.5799
 6419TIP3    H240749   6.431   6.505  12.788  1.3813 -1.6325  0.1228
 6420TIP3   OH240750   3.085   2.695  13.593 -0.1483 -0.4636 -0.3242
 6420TIP3    H140751   3.053   2.616  13.636  0.0375 -0.8524 -0.8858
 6420TIP3    H240752   3.042   2.696  13.508 -1.2268  0.7891  0.1934
 6421TIP3   OH240753   3.431   0.055   5.516 -0.4184  0.1071  0.4912
 6421TIP3    H140754   3.524   0.050   5.496 -0.4644 -1.3171  0.5200
 6421TIP3    H240755   3.392   0.098   5.440  0.0191 -1.0536 -0.4249
 6422TIP3   OH240756   5.668   3.346   2.472  0.0080  0.1524  0.1938
 6422TIP3    H140757   5.763   3.363   2.478 -0.4149  2.4975  1.7118
 6422TIP3    H240758   5.628   3.419   2.520 -2.5471 -1.4529  0.6854
 6423TIP3   OH240759   1.623   6.243  14.255  0.2553 -0.2208  0.0331
 6423TIP3    H140760   1.633   6.216  14.346 -0.6489 -0.5285  0.0512
 6423TIP3    H240761   1.572   6.323  14.259 -0.6250 -0.7475 -0.2386
 6424TIP3   OH240762   2.128   1.791   6.215 -0.1945 -0.3527 -0.3795
 6424TIP3    H140763   2.179   1.807   6.294 -0.5771  2.9668 -0.6418
 6424TIP3    H240764   2.182   1.733   6.162  2.2525  1.0930  0.3813
 6425TIP3   OH240765   6.481   1.089  16.665  0.2028 -0.0890  0.1728
 6425TIP3    H140766   6.490   1.090  16.570 -0.2668  0.1489  0.1259
 6425TIP3    H240767   6.455   0.999  16.687 -2.7187  0.5491 -0.2446
 6426TIP3   OH240768   0.557   3.893  13.236  0.6676  0.3397 -0.0459
 6426TIP3    H140769   0.653   3.898  13.233  0.6650  0.4614  0.0777
 6426TIP3    H240770   0.528   3.984  13.242  0.5435  0.3050 -0.1250
 6427TIP3   OH240771   0.000   0.582   1.606 -0.3467  0.4163 -0.3718
 6427TIP3    H140772   0.040   0.576   1.519  0.6365  2.2467 -0.1034
 6427TIP3    H240773  -0.082   0.629   1.592 -0.4585  0.2188 -0.3811
 6428TIP3   OH240774   3.559   6.497   5.398 -0.2893  0.0239 -0.5343
 6428TIP3    H140775   3.580   6.539   5.482 -1.1337 -1.5183  0.4848
 6428TIP3    H240776   3.642   6.493   5.352  0.7450 -1.4815  1.3493
 6429TIP3   OH240777   1.939   2.323  12.959 -0.1043  0.3917  0.3075
 6429TIP3    H140778   1.883   2.280  12.894  0.4608 -0.3833  0.3157
 6429TIP3    H240779   1.919   2.278  13.041  0.2158  0.4102  0.3938
 6430TIP3   OH240780   4.208   2.817   3.093  0.2620 -0.3326  0.2033
 6430TIP3    H140781   4.289   2.783   3.057 -0.1486 -0.6322 -0.4679
 6430TIP3    H240782   4.144   2.805   3.023 -0.3831 -0.1902  0.7554
 6431TIP3   OH240783   3.997   2.195  11.507  0.6527  0.3634 -0.1244
 6431TIP3    H140784   3.973   2.137  11.435 -0.6582  1.4646 -0.6138
 6431TIP3    H240785   4.068   2.249  11.471  1.0105 -0.0765 -0.0855
 6432TIP3   OH240786   2.413   4.968   1.550 -0.1621 -0.0711  0.3769
 6432TIP3    H140787   2.393   5.007   1.636 -0.0384 -1.0063  0.8428
 6432TIP3    H240788   2.395   4.875   1.562 -0.8338 -0.1167 -0.8323
 6433TIP3   OH240789   1.325   0.594   2.344  0.6971 -0.4841 -0.3309
 6433TIP3    H140790   1.362   0.678   2.317 -0.5065 -0.0360 -0.6538
 6433TIP3    H240791   1.399   0.533   2.342  1.4589  0.4301 -0.6862
 6434TIP3   OH240792   2.455   0.292   0.041  0.2556 -0.2666  0.0980
 6434TIP3    H140793   2.462   0.263  -0.050 -0.1713 -0.2652  0.0600
 6434TIP3    H240794   2.364   0.323   0.048  0.0975 -0.8479  0.6875
 6435TIP3   OH240795   0.085   4.901   1.776  0.4040 -0.2238  0.4822
 6435TIP3    H140796   0.139   4.939   1.706 -1.1196  0.8259 -0.1636
 6435TIP3    H240797   0.147   4.850   1.828  1.6588 -0.7131 -1.3952
 6436TIP3   OH240798   1.039   3.838   1.024 -0.4878 -0.3572  0.1578
 6436TIP3    H140799   0.960   3.798   0.988 -0.9168 -0.3930  1.1273
 6436TIP3    H240800   1.095   3.853   0.947 -1.1300 -0.9931 -0.4449
 6437TIP3   OH240801   2.649   4.674   4.003  0.0586  0.0220  0.0042
 6437TIP3    H140802   2.620   4.652   3.915 -0.8154 -0.0418  0.3051
 6437TIP3    H240803   2.577   4.646   4.060 -0.2868  1.9508  0.5614
 6438TIP3   OH240804   6.299   6.501  13.617 -0.2010 -0.0252 -0.4394
 6438TIP3    H140805   6.377   6.553  13.598  0.3183 -0.1126  1.3450
 6438TIP3    H240806   6.260   6.541  13.695 -1.2468 -0.7411 -0.5606
 6439TIP3   OH240807   0.399   2.402   2.603  0.3103  0.0093  0.2082
 6439TIP3    H140808   0.437   2.485   2.634 -0.1283  0.2622  0.0696
 6439TIP3    H240809   0.410   2.405   2.508 -0.2773  0.1978  0.1423
 6440TIP3   OH240810   4.347   1.101  17.248  0.5166  0.2465 -0.2204
 6440TIP3    H140811   4.260   1.094  17.209 -0.6750  0.6898  2.1510
 6440TIP3    H240812   4.348   1.187  17.290  1.6907 -0.1752  0.6908
 6441TIP3   OH240813   0.072   5.736  16.358  0.1805  0.5247 -0.5799
 6441TIP3    H140814   0.145   5.729  16.419  0.0470 -0.2455 -0.4982
 6441TIP3    H240815   0.109   5.777  16.280  0.6582  0.2936 -0.4761
 6442TIP3   OH240816   4.606   4.300  14.267  0.3342 -0.1771 -0.0797
 6442TIP3    H140817   4.546   4.369  14.294  0.6748  1.2458 -2.5923
 6442TIP3    H240818   4.693   4.334  14.288  0.5459  0.5609 -1.9029
 6443TIP3   OH240819   0.033   1.353  16.901  0.6854  0.1695  0.0507
 6443TIP3    H140820  -0.020   1.308  16.966  2.2640 -2.0007 -0.0475
 6443TIP3    H240821  -0.030   1.394  16.843 -0.9226 -1.8392  0.2492
 6444TIP3   OH240822   0.700   5.039   1.151  0.8995 -0.5607  0.3919
 6444TIP3    H140823   0.632   5.008   1.091 -0.9509  1.0862  1.4925
 6444TIP3    H240824   0.651   5.073   1.226  3.0372 -0.6599  1.9237
 6445TIP3   OH240825   3.230   1.504   1.566  0.5370  0.5962  0.6056
 6445TIP3    H140826   3.271   1.590   1.555 -0.4314  1.0228  0.1823
 6445TIP3    H240827   3.165   1.517   1.635 -1.4425  0.9289 -1.1945
 6446TIP3   OH240828   4.585   1.887  12.250  0.0208  0.5185 -0.3559
 6446TIP3    H140829   4.624   1.809  12.291  0.0610  0.5481 -0.3374
 6446TIP3    H240830   4.550   1.855  12.167 -0.9956  0.2298  0.1601
 6447TIP3   OH240831   6.018   3.248   5.032 -0.9313 -0.4401 -0.5838
 6447TIP3    H140832   5.980   3.168   5.068  0.9395 -0.9144  0.4726
 6447TIP3    H240833   5.999   3.316   5.097  1.5984 -1.0947  0.9926
 6448TIP3   OH240834   2.191   1.020   5.330 -0.3888 -0.2542 -0.0482
 6448TIP3    H140835   2.260   0.986   5.387  0.5044 -1.4324 -1.7213
 6448TIP3    H240836   2.237   1.048   5.250 -1.7959 -0.9778 -1.1674
 6449TIP3   OH240837   1.011   1.038  12.827 -0.5184  0.4693 -0.2549
 6449TIP3    H140838   1.012   1.016  12.920  0.7721  0.0066 -0.3653
 6449TIP3    H240839   0.949   1.112  12.821 -0.3206  0.7632  1.0230
 6450TIP3   OH240840   1.580   6.558   1.625 -0.3232 -0.1551 -0.3956
 6450TIP3    H140841   1.593   6.652   1.628 -1.7623  0.0892 -0.9137
 6450TIP3    H240842   1.569   6.532   1.716  0.1139  0.1655 -0.2483
 6451TIP3   OH240843   1.431   1.363  11.613  0.2522  0.1458  0.4987
 6451TIP3    H140844   1.461   1.336  11.700  1.4643 -1.5157 -0.3983
 6451TIP3    H240845   1.484   1.440  11.592  1.4180 -0.6570  0.4114
 6452TIP3   OH240846   5.905   3.787  11.684 -0.2529  0.1311  0.2616
 6452TIP3    H140847   5.820   3.817  11.652  0.2649  2.7919  1.0883
 6452TIP3    H240848   5.968   3.820  11.620  0.2389 -1.0441  0.1210
 6453TIP3   OH240849   1.403   0.307   4.605 -0.0331 -0.5278  0.1933
 6453TIP3    H140850   1.452   0.256   4.669  0.2874 -1.8073 -1.0258
 6453TIP3    H240851   1.346   0.243   4.562 -2.0355  0.7223  0.8338
 6454TIP3   OH240852   3.095   2.477   0.419  0.0309  0.7547  0.3222
 6454TIP3    H140853   3.074   2.398   0.470  0.4318  0.3752 -0.0889
 6454TIP3    H240854   3.132   2.537   0.483 -3.0340  1.8055  1.2778
 6455TIP3   OH240855   4.675   6.569   6.403 -0.1629 -0.2314  0.0229
 6455TIP3    H140856   4.710   6.649   6.443 -2.3900  0.3627  0.9148
 6455TIP3    H240857   4.753   6.522   6.373  1.4284  0.7131  2.3746
 6456TIP3   OH240858   2.781   0.381  15.925 -0.4881  0.0391 -0.5924
 6456TIP3    H140859   2.821   0.297  15.948 -0.2814  0.3822  0.3847
 6456TIP3    H240860   2.843   0.421  15.864  0.8459  0.6683  1.0873
 6457TIP3   OH240861   3.514   3.753   3.731 -0.0494 -0.2806 -0.4999
 6457TIP3    H140862   3.516   3.658   3.720  1.1253 -0.3656  0.3000
 6457TIP3    H240863   3.604   3.777   3.752 -0.0008  1.2061 -2.1703
 6458TIP3   OH240864   0.407   3.191  14.619 -0.2868 -0.6009  0.7380
 6458TIP3    H140865   0.400   3.174  14.525  0.1260  1.1342  0.3600
 6458TIP3    H240866   0.334   3.143  14.657 -0.7963 -0.8803 -0.5242
 6459TIP3   OH240867   6.759   5.541  13.009  0.3023 -0.0923  0.0163
 6459TIP3    H140868   6.767   5.446  13.005  1.6078 -0.0563  1.1653
 6459TIP3    H240869   6.820   5.572  12.943  0.8944 -0.0425  0.5757
 6460TIP3   OH240870   4.053   4.829   3.610 -0.0515 -0.0420  0.7805
 6460TIP3    H140871   4.083   4.862   3.694  0.7340  0.8224  0.1834
 6460TIP3    H240872   4.035   4.736   3.626  0.3464  0.0455  1.8314
 6461TIP3   OH240873   5.956   5.998  11.591 -0.1108  0.1135  0.3356
 6461TIP3    H140874   5.937   6.090  11.607 -0.3091 -0.0454  1.0730
 6461TIP3    H240875   5.872   5.961  11.564 -0.1818  0.0194  0.6794
 6462TIP3   OH240876   5.232   4.617  11.535 -0.1737 -0.0982  0.4872
 6462TIP3    H140877   5.166   4.548  11.524  0.7058 -0.9102  0.0524
 6462TIP3    H240878   5.211   4.658  11.618 -0.6143 -1.0345  0.8533
 6463TIP3   OH240879   1.834   6.798  15.507  0.0764 -0.2444 -0.4473
 6463TIP3    H140880   1.915   6.849  15.506 -1.0771  1.8551  1.5867
 6463TIP3    H240881   1.795   6.817  15.592 -1.5486 -2.8992 -0.4785
 6464TIP3   OH240882   5.928   6.437   5.738  0.4883 -0.5780  0.0375
 6464TIP3    H140883   5.885   6.519   5.765 -0.7203 -1.3646  0.5761
 6464TIP3    H240884   5.959   6.399   5.820  1.0058 -0.6855 -0.2068
 6465TIP3   OH240885   2.910   1.436  14.281 -0.2213  0.4485 -0.5094
 6465TIP3    H140886   2.949   1.364  14.232 -1.0414  0.7887 -1.7400
 6465TIP3    H240887   2.826   1.402  14.312  0.0083  0.4411  0.1133
 6466TIP3   OH240888   6.180   4.774   5.597  0.0115 -0.6043  0.3444
 6466TIP3    H140889   6.202   4.867   5.594  0.5484 -0.7208  0.7159
 6466TIP3    H240890   6.084   4.772   5.604 -0.0770 -0.0952 -0.5553
 6467TIP3   OH240891   0.535   0.047   0.541  0.1819 -0.4837  0.2801
 6467TIP3    H140892   0.532   0.131   0.495 -1.2388 -1.5035 -1.6276
 6467TIP3    H240893   0.620   0.010   0.517 -0.5099 -0.9691 -1.5635
 6468TIP3   OH240894   3.769   0.127  11.838 -0.2585  0.3982  0.4785
 6468TIP3    H140895   3.740   0.154  11.925 -0.8686 -0.9431  0.7214
 6468TIP3    H240896   3.827   0.053  11.854 -2.3431 -1.5460 -0.2868
 6469TIP3   OH240897   4.146   2.726   4.622  0.1135  0.0043  0.3717
 6469TIP3    H140898   4.220   2.666   4.611  0.6843  0.8342 -0.5184
 6469TIP3    H240899   4.137   2.768   4.536 -1.0074  0.3539  0.6495
 6470TIP3   OH240900   4.889   3.705  12.906  0.1125  0.1615 -0.0169
 6470TIP3    H140901   4.900   3.799  12.915 -0.1086  0.1743  0.1514
 6470TIP3    H240902   4.963   3.676  12.852 -1.1935  0.7821 -2.2506
 6471TIP3   OH240903   4.836   1.769  14.414  0.4089  0.5975  0.2692
 6471TIP3    H140904   4.753   1.784  14.459 -1.7176 -1.5344 -2.5702
 6471TIP3    H240905   4.881   1.704  14.469  1.4739  3.4336  3.0657
 6472TIP3   OH240906   0.387   3.338  17.186 -0.2353  0.2969  0.1111
 6472TIP3    H140907   0.475   3.376  17.183  0.2581 -0.5202  2.1282
 6472TIP3    H240908   0.398   3.259  17.240 -1.7520 -1.1514 -1.5864
 6473TIP3   OH240909   1.943   3.266  14.970  0.2788  0.1039  0.3181
 6473TIP3    H140910   1.878   3.205  14.935  0.4213 -0.4413  0.9799
 6473TIP3    H240911   2.021   3.251  14.917  0.7622 -1.3233  1.3508
 6474TIP3   OH240912   3.870   0.365  12.418 -0.2656 -0.1853 -0.2485
 6474TIP3    H140913   3.960   0.395  12.427  0.5049 -1.7567 -2.0341
 6474TIP3    H240914   3.861   0.294  12.481 -0.3579  0.1490  0.1195
 6475TIP3   OH240915   2.120   5.158   4.476 -0.0381 -0.3584  0.2123
 6475TIP3    H140916   2.137   5.072   4.438 -2.7836 -1.5173  1.3577
 6475TIP3    H240917   2.204   5.184   4.513  1.6377 -1.1326 -2.6671
 6476TIP3   OH240918   2.184   3.918  15.699 -0.2380 -0.3498  0.5616
 6476TIP3    H140919   2.091   3.917  15.722 -0.1652  2.4178  1.2875
 6476TIP3    H240920   2.229   3.950  15.777  1.1029  0.1511 -0.3668
 6477TIP3   OH240921   4.985   0.255  14.353 -0.5791  0.2329 -0.9161
 6477TIP3    H140922   4.956   0.174  14.312  0.3698 -0.7387  0.2521
 6477TIP3    H240923   5.000   0.232  14.444  2.0914  1.0677 -1.0472
 6478TIP3   OH240924   0.317   3.516   3.466 -0.0941 -0.3444  0.0357
 6478TIP3    H140925   0.228   3.505   3.501  0.2124  1.2594  1.4611
 6478TIP3    H240926   0.372   3.464   3.525  0.2969  1.5326  1.4297
 6479TIP3   OH240927   5.576   4.912  15.310  0.0721 -0.0159 -0.2151
 6479TIP3    H140928   5.591   5.007  15.309  0.7954 -0.1342 -0.8014
 6479TIP3    H240929   5.662   4.874  15.325 -0.4876 -0.5484  2.2025
 6480TIP3   OH240930   5.252   6.146   5.369 -0.2856 -0.4336 -0.8252
 6480TIP3    H140931   5.324   6.178   5.314  0.7458 -0.2549  0.5775
 6480TIP3    H240932   5.276   6.056   5.389  0.8807  0.3448  1.6646
 6481TIP3   OH240933   0.079   1.955  16.702  0.2472  0.5149  0.3240
 6481TIP3    H140934  -0.005   1.969  16.658  1.3995  0.2124 -2.1260
 6481TIP3    H240935   0.064   1.986  16.791 -2.7156 -0.3615  0.2527
 6482TIP3   OH240936   6.650   1.344   1.251 -0.0768  0.3581  0.2501
 6482TIP3    H140937   6.651   1.249   1.239 -0.7427  0.3960 -0.1794
 6482TIP3    H240938   6.636   1.357   1.344  2.1421  0.0469  0.6931
 6483TIP3   OH240939   3.448   1.710  14.055 -0.6579 -0.2575  0.1554
 6483TIP3    H140940   3.477   1.801  14.061 -0.9402  0.0031 -1.8110
 6483TIP3    H240941   3.373   1.713  13.996 -1.3913 -1.6366  0.9614
 6484TIP3   OH240942   4.784   3.632  10.748 -0.4072  0.2383 -0.1582
 6484TIP3    H140943   4.700   3.591  10.726 -1.5607  2.1144  0.4429
 6484TIP3    H240944   4.844   3.603  10.680 -1.2147 -2.0944  0.0419
 6485TIP3   OH240945   5.963   4.931  15.194  0.0565 -0.1554  0.5272
 6485TIP3    H140946   6.036   4.895  15.143  1.0080  1.0957  0.9304
 6485TIP3    H240947   5.936   5.009  15.145 -0.1747  0.0871  1.0285
 6486TIP3   OH240948   5.249   0.591   1.504 -0.2539  0.3823  0.8712
 6486TIP3    H140949   5.335   0.561   1.533 -0.2777 -1.0481 -0.3829
 6486TIP3    H240950   5.266   0.635   1.420 -0.6780  0.5930  0.8935
 6487TIP3   OH240951   4.053   1.263   4.991  0.2476  0.1937 -0.4808
 6487TIP3    H140952   4.104   1.194   4.947 -1.5208 -1.4137 -0.1801
 6487TIP3    H240953   4.008   1.308   4.920  0.7703  0.4982 -0.6221
 6488TIP3   OH240954   2.513   5.157  11.481 -1.0366 -0.2234 -0.1484
 6488TIP3    H140955   2.464   5.095  11.427 -0.1017 -1.4082  0.3238
 6488TIP3    H240956   2.526   5.112  11.564  0.6769  0.1334 -0.1884
 6489TIP3   OH240957   5.181   4.481  16.207 -0.3323 -0.3416 -0.1896
 6489TIP3    H140958   5.247   4.423  16.169  1.2853  1.3270 -0.0711
 6489TIP3    H240959   5.141   4.524  16.131  0.5901  0.5700 -0.1781
 6490TIP3   OH240960   6.529   3.175   2.778  0.1940 -0.5442 -0.0967
 6490TIP3    H140961   6.484   3.194   2.861 -0.2857 -0.3705 -0.3951
 6490TIP3    H240962   6.617   3.210   2.791 -0.0542  0.0244  0.1267
 6491TIP3   OH240963   1.972   3.265   5.588 -0.2324  1.1314  0.0389
 6491TIP3    H140964   2.046   3.205   5.598  0.1776  1.3258 -1.5829
 6491TIP3    H240965   1.926   3.261   5.672  1.2604  0.5335  0.8529
 6492TIP3   OH240966   0.823   4.325  13.489  0.0592  0.6048 -0.1370
 6492TIP3    H140967   0.882   4.272  13.435  0.1610  0.0145  0.5452
 6492TIP3    H240968   0.865   4.329  13.575 -1.8859 -1.6882  1.0459
 6493TIP3   OH240969   6.560   1.257  13.517 -0.1290 -0.0218 -0.2684
 6493TIP3    H140970   6.536   1.271  13.425  0.8509 -1.4917 -0.7844
 6493TIP3    H240971   6.600   1.340  13.544  1.8718 -0.3510 -1.9637
 6494TIP3   OH240972   1.535   5.886   2.637 -0.0118  0.4508 -0.0045
 6494TIP3    H140973   1.552   5.846   2.722 -0.6885  0.2465  0.0463
 6494TIP3    H240974   1.620   5.892   2.595  0.1366 -0.8852  0.0633
 6495TIP3   OH240975   0.301   2.301  16.458 -0.0328 -0.0696  0.2046
 6495TIP3    H140976   0.208   2.308  16.435  0.0018  3.0828  0.6036
 6495TIP3    H240977   0.309   2.352  16.539  1.4473 -3.3761  2.3687
 6496TIP3   OH240978   4.961   1.500  11.612  0.5609  0.7296  1.2017
 6496TIP3    H140979   4.971   1.544  11.528 -2.3942  0.8606  0.8243
 6496TIP3    H240980   5.019   1.423  11.606  2.4500  2.1378  0.1824
 6497TIP3   OH240981   5.693   6.455   3.657 -0.2541  0.9040  0.3002
 6497TIP3    H140982   5.722   6.420   3.573  0.8334  0.7965  0.7061
 6497TIP3    H240983   5.625   6.395   3.687  0.4587  0.0463  0.2306
 6498TIP3   OH240984   1.353   6.296  11.986 -0.5747 -0.0542  0.0995
 6498TIP3    H140985   1.430   6.260  11.942 -0.0774 -0.3478  1.1575
 6498TIP3    H240986   1.291   6.223  11.989 -1.1016  0.3173 -1.1725
 6499TIP3   OH240987   2.940   3.858   4.604  0.4714  1.0509  0.2565
 6499TIP3    H140988   2.984   3.784   4.563 -1.2506  0.2526 -0.2370
 6499TIP3    H240989   2.920   3.828   4.693 -0.0429  0.9882  0.1228
 6500TIP3   OH240990   1.104   3.259   1.307  0.0097 -0.4224  0.4474
 6500TIP3    H140991   1.137   3.311   1.379 -0.0141  2.1993 -1.3099
 6500TIP3    H240992   1.009   3.257   1.320 -0.1216  1.0711 -0.0845
 6501TIP3   OH240993   1.772   5.646   4.214 -0.0693  0.2893  0.4632
 6501TIP3    H140994   1.844   5.606   4.165 -0.7363  1.0005 -1.1728
 6501TIP3    H240995   1.725   5.571   4.252  0.2958 -0.3177 -0.2469
 6502TIP3   OH240996   3.156   1.833   5.752  0.2949  0.3754 -0.2293
 6502TIP3    H140997   3.086   1.783   5.795 -0.3687  1.7531  0.3506
 6502TIP3    H240998   3.181   1.900   5.816  0.3450  1.5151 -1.4036
 6503TIP3   OH240999   5.135   3.875   0.921 -0.3456  0.3704  0.2255
 6503TIP3    H141000   5.146   3.904   1.012 -0.1110 -1.7986  0.9363
 6503TIP3    H241001   5.221   3.887   0.881 -0.0764  0.0102  0.6950
 6504TIP3   OH241002   4.528   0.373   2.590  0.0112 -0.2411 -0.9196
 6504TIP3    H141003   4.458   0.411   2.643  0.6615 -1.2055  0.7201
 6504TIP3    H241004   4.511   0.404   2.501 -1.6646  0.6869 -0.3158
 6505TIP3   OH241005   2.800   3.275  14.704 -0.0948  0.8507  0.4637
 6505TIP3    H141006   2.740   3.307  14.638  0.0468 -1.7440 -1.0845
 6505TIP3    H241007   2.815   3.183  14.680  0.9051  0.1153  3.4352
 6506TIP3   OH241008   1.409   2.572   2.375 -0.0975 -0.9094  0.1751
 6506TIP3    H141009   1.356   2.525   2.311  1.7131 -1.3449 -1.0809
 6506TIP3    H241010   1.447   2.645   2.325 -0.7868  0.3833  1.4510
 6507TIP3   OH241011   3.383   5.955  15.554  0.0128  0.6605 -0.3278
 6507TIP3    H141012   3.403   5.861  15.558 -0.4995  0.5657  0.1122
 6507TIP3    H241013   3.366   5.980  15.645 -0.6004  1.0120 -0.5342
 6508TIP3   OH241014   3.555   4.562  16.529  0.4771  0.0106  0.8116
 6508TIP3    H141015   3.618   4.501  16.568 -0.7265 -1.4395  0.6237
 6508TIP3    H241016   3.509   4.509  16.463 -0.3582  1.2525  0.3623
 6509TIP3   OH241017   2.042   5.161  12.113 -0.4634  0.0211 -0.2365
 6509TIP3    H141018   1.980   5.112  12.058 -0.1436  1.2143 -1.7470
 6509TIP3    H241019   2.108   5.193  12.051  1.5817 -1.0281  1.2873
 6510TIP3   OH241020   2.679   2.904  16.853 -0.1891 -0.6095 -0.3243
 6510TIP3    H141021   2.699   2.980  16.799  0.4825 -0.2222  0.4644
 6510TIP3    H241022   2.650   2.837  16.790 -2.5239  0.8124 -0.8813
 6511TIP3   OH241023   4.332   6.155   5.757  0.1805 -0.6758 -0.3395
 6511TIP3    H141024   4.351   6.094   5.828 -0.2850  2.9071  3.1618
 6511TIP3    H241025   4.404   6.218   5.759 -0.4218  0.1721 -2.4165
 6512TIP3   OH241026   2.757   2.305  11.764  0.0613  0.2302 -0.2822
 6512TIP3    H141027   2.676   2.355  11.778 -1.0287 -1.7234  0.9499
 6512TIP3    H241028   2.789   2.287  11.853  1.6303  0.5747 -0.7481
 6513TIP3   OH241029   2.757   6.155  13.502  0.4197 -0.8445 -0.8586
 6513TIP3    H141030   2.767   6.066  13.535  0.7458 -1.0615 -1.5319
 6513TIP3    H241031   2.714   6.202  13.573 -2.8471 -2.2999 -1.6784
 6514TIP3   OH241032   4.390   2.075   0.550 -0.0182 -0.1670 -0.0197
 6514TIP3    H141033   4.403   2.147   0.611  0.7818 -0.1951 -0.1556
 6514TIP3    H241034   4.450   2.007   0.579 -0.9034 -0.8727  0.2281
 6515TIP3   OH241035   1.154   4.035  14.988 -0.6520 -0.0481 -0.1315
 6515TIP3    H141036   1.198   4.118  15.006 -3.1510  1.3797 -0.2200
 6515TIP3    H241037   1.064   4.049  15.016 -1.3927 -2.4256 -1.0746
 6516TIP3   OH241038   5.276   3.902  10.962  0.4501 -0.7503  0.1210
 6516TIP3    H141039   5.233   3.984  10.987  0.4965 -0.6066 -0.2662
 6516TIP3    H241040   5.267   3.898  10.867 -0.3235 -1.6295  0.2202
 6517TIP3   OH241041   3.637   1.419   2.390 -0.0704  0.3739  0.1714
 6517TIP3    H141042   3.706   1.361   2.422 -0.8370 -1.2927 -1.0340
 6517TIP3    H241043   3.664   1.507   2.417  2.0863 -0.3297  0.4324
 6518TIP3   OH241044   5.113   2.382  16.390 -0.7708 -0.1496  0.1442
 6518TIP3    H141045   5.167   2.346  16.320  0.4959  0.7554  0.6304
 6518TIP3    H241046   5.169   2.446  16.434 -1.0019 -1.6523  2.8529
 6519TIP3   OH241047   5.023   5.916   1.676 -0.2904 -0.0101 -0.8452
 6519TIP3    H141048   5.000   5.923   1.583  0.1411  3.6954 -0.8297
 6519TIP3    H241049   4.988   5.997   1.715 -0.7718 -1.6126  2.3395
 6520TIP3   OH241050   2.445   2.692  14.102 -0.2350 -0.2111  0.3762
 6520TIP3    H141051   2.459   2.775  14.057  0.2601  0.6629  2.0408
 6520TIP3    H241052   2.352   2.672  14.088 -0.4323  0.7837  0.1827
 6521TIP3   OH241053   3.993   3.951  14.302 -0.0801 -0.3814  0.5985
 6521TIP3    H141054   3.959   4.040  14.302 -1.6854 -0.9175 -1.3344
 6521TIP3    H241055   4.071   3.955  14.357 -0.6860  1.9667  1.3878
 6522TIP3   OH241056   1.408   3.770  12.683 -0.1422  0.2594  1.3522
 6522TIP3    H141057   1.427   3.790  12.774 -1.1472  1.4874  1.3359
 6522TIP3    H241058   1.459   3.835  12.633  1.8944 -1.5776  0.9007
 6523TIP3   OH241059   1.835   2.367  13.546 -0.3417  0.3193  0.0825
 6523TIP3    H141060   1.844   2.428  13.620  2.0249 -0.2541  0.3460
 6523TIP3    H241061   1.778   2.298  13.579 -3.2182  2.3589 -0.2728
 6524TIP3   OH241062   2.114   5.967   0.723 -0.1721  0.5438 -0.0605
 6524TIP3    H141063   2.136   5.965   0.630 -1.4603  0.7915 -0.3831
 6524TIP3    H241064   2.165   5.895   0.761 -2.2196 -1.8499 -1.5541
 6525TIP3   OH241065   6.611   5.789   0.923 -0.2407  0.7259 -1.0478
 6525TIP3    H141066   6.586   5.881   0.933  0.2741  0.6210  2.9693
 6525TIP3    H241067   6.545   5.741   0.974  2.5014 -0.4244  1.7793
 6526TIP3   OH241068   2.318   2.051  10.715 -0.3087 -0.6921  0.2692
 6526TIP3    H141069   2.256   2.119  10.742 -0.4655 -0.4941 -0.5638
 6526TIP3    H241070   2.280   1.970  10.748 -0.6182 -0.4847  0.4264
 6527TIP3   OH241071   1.483   5.349   2.636  0.1419  0.1883 -0.0912
 6527TIP3    H141072   1.475   5.443   2.619  0.7796  0.0736 -1.1014
 6527TIP3    H241073   1.567   5.340   2.680  0.2617  0.0549 -0.3429
 6528TIP3   OH241074   6.432   4.260   2.210 -0.6820  0.6388 -0.4939
 6528TIP3    H141075   6.373   4.233   2.140  1.1606 -1.1725 -1.4320
 6528TIP3    H241076   6.451   4.180   2.259  3.4457  0.3174 -2.1921
 6529TIP3   OH241077   2.898   5.664  16.601 -0.3270 -0.0653  0.3999
 6529TIP3    H141078   2.891   5.630  16.690  0.7640  0.5856  0.7455
 6529TIP3    H241079   2.872   5.756  16.608 -2.0773 -0.4639 -0.3154
 6530TIP3   OH241080   2.358   3.739  13.827 -0.2162 -0.3522  0.1332
 6530TIP3    H141081   2.425   3.686  13.870 -0.4262  0.1116  1.0667
 6530TIP3    H241082   2.397   3.763  13.743 -0.2880 -2.3269 -0.5089
 6531TIP3   OH241083   4.543   6.283  10.804  1.0767 -0.0484  0.2128
 6531TIP3    H141084   4.449   6.303  10.801  0.7629 -1.4558  0.3212
 6531TIP3    H241085   4.559   6.227  10.728  1.6531 -0.5291  0.6778
 6532TIP3   OH241086   5.817   4.128  15.321 -0.6317 -0.4752  0.3733
 6532TIP3    H141087   5.856   4.201  15.368  0.1173  0.6583 -1.8746
 6532TIP3    H241088   5.728   4.121  15.357  0.2918 -0.5377  2.8007
 6533TIP3   OH241089   0.193   4.025   3.441  0.3480  0.7548 -0.6933
 6533TIP3    H141090   0.252   3.953   3.417 -1.7356 -1.1635 -0.4088
 6533TIP3    H241091   0.195   4.083   3.365  1.4403 -0.0105 -1.2884
 6534TIP3   OH241092   6.297   5.149  11.981  0.5002 -0.0628 -0.3839
 6534TIP3    H141093   6.310   5.061  11.946  1.9989  0.0318 -0.1419
 6534TIP3    H241094   6.367   5.201  11.942  0.0234  0.8716 -0.0280
 6535TIP3   OH241095   6.348   3.183  13.479 -0.1322  0.4949 -0.2887
 6535TIP3    H141096   6.337   3.140  13.564  2.4394 -0.0056 -0.1479
 6535TIP3    H241097   6.308   3.122  13.416  4.5982 -3.1431 -0.2968
 6536TIP3   OH241098   4.498   1.508  10.650  0.1420  0.6152  0.0616
 6536TIP3    H141099   4.578   1.539  10.606  0.2471  1.2446  0.6882
 6536TIP3    H241100   4.529   1.440  10.711  0.1357  0.5283 -0.0307
 6537TIP3   OH241101   2.917   3.974  11.187  0.1001  0.1577  0.2854
 6537TIP3    H141102   2.889   3.894  11.142  1.7856 -0.6960  0.6634
 6537TIP3    H241103   3.005   3.954  11.218  0.9096  2.4816 -0.3312
 6538TIP3   OH241104   0.315   5.114  13.809  0.2880  0.4682 -0.1673
 6538TIP3    H141105   0.391   5.145  13.858 -0.4762  0.5764  0.9868
 6538TIP3    H241106   0.260   5.191  13.799 -0.3059  0.1079  0.2309
 6539TIP3   OH241107   2.085   1.096   3.360  0.0590  0.7786  0.0946
 6539TIP3    H141108   2.174   1.080   3.389  0.1839  0.8780 -0.2329
 6539TIP3    H241109   2.086   1.079   3.266 -0.7787 -1.4579  0.4177
 6540TIP3   OH241110   1.977   3.519  15.080 -0.2254 -0.0723  0.4143
 6540TIP3    H141111   1.934   3.439  15.048 -1.1125  0.7426 -0.4875
 6540TIP3    H241112   1.953   3.586  15.016  0.8706  0.8242  0.9253
 6541TIP3   OH241113   0.872   1.566   3.237 -0.3254 -0.1428 -0.0666
 6541TIP3    H141114   0.789   1.535   3.201 -0.9670 -1.2349  2.1407
 6541TIP3    H241115   0.847   1.638   3.295  0.5704  1.0947 -1.1896
 6542TIP3   OH241116   4.005   5.505   5.917  0.0820 -0.2982 -0.2422
 6542TIP3    H141117   4.003   5.465   5.830 -0.5309 -0.3686 -0.1956
 6542TIP3    H241118   3.924   5.477   5.958  0.4444 -0.3950  0.4154
 6543TIP3   OH241119   0.122   4.586   2.622  0.0710  0.3712  0.2893
 6543TIP3    H141120   0.076   4.668   2.606 -1.0393 -0.5689 -1.6420
 6543TIP3    H241121   0.054   4.526   2.653  0.8716  0.1161  1.6630
 6544TIP3   OH241122   1.390   2.687  11.110  0.0352 -0.0593 -0.2515
 6544TIP3    H141123   1.392   2.610  11.166 -0.6241 -0.6604 -1.0129
 6544TIP3    H241124   1.351   2.656  11.028  0.0226  1.0201 -0.6810
 6545TIP3   OH241125   2.642   5.550   4.777 -0.1123 -0.3967  0.5142
 6545TIP3    H141126   2.557   5.513   4.802 -0.5407 -0.5317 -1.0045
 6545TIP3    H241127   2.635   5.643   4.799  0.4617 -0.8920  3.0881
 6546TIP3   OH241128   4.655   1.451   1.687 -0.0661  0.5028  0.2529
 6546TIP3    H141129   4.735   1.413   1.653  0.8714  1.8613  0.8644
 6546TIP3    H241130   4.611   1.489   1.611  0.2209  0.3712  0.0249
 6547TIP3   OH241131   4.558   5.979   1.882 -0.2007  0.1315  0.3034
 6547TIP3    H141132   4.645   6.001   1.850 -0.0132  0.6303  1.1180
 6547TIP3    H241133   4.554   6.019   1.969 -1.6261  1.0214 -0.1449
 6548TIP3   OH241134   1.981   5.637  11.443  0.0982 -0.1341  0.1634
 6548TIP3    H141135   2.011   5.685  11.365 -0.6533  0.0592 -0.0094
 6548TIP3    H241136   1.891   5.667  11.457 -0.3958 -1.4897  0.0490
 6549TIP3   OH241137   1.003   2.432  11.760  0.9326 -0.5222  0.5754
 6549TIP3    H141138   0.940   2.370  11.722  1.4006 -0.2087 -0.7313
 6549TIP3    H241139   1.085   2.383  11.765  0.8276 -0.6328  1.4210
 6550TIP3   OH241140   0.495   1.387  16.597  0.5118  0.0760 -0.2818
 6550TIP3    H141141   0.422   1.439  16.630  0.1607  0.3413 -1.4452
 6550TIP3    H241142   0.504   1.315  16.660  0.6204  1.1917  1.0126
 6551TIP3   OH241143   0.462   1.007  13.965  0.5373  0.2686  0.5164
 6551TIP3    H141144   0.555   1.021  13.950  0.1871  2.6037  0.1965
 6551TIP3    H241145   0.456   0.970  14.053  1.7487  0.4192  0.6701
 6552TIP3   OH241146   4.984   4.062  10.448 -0.1369  0.4799 -0.0599
 6552TIP3    H141147   4.983   3.967  10.447 -0.6778  0.4472  1.1415
 6552TIP3    H241148   5.076   4.086  10.444  0.3314 -0.2377  3.3428
 6553TIP3   OH241149   0.272   0.683   2.608 -0.1846  0.2347  0.1924
 6553TIP3    H141150   0.310   0.596   2.599 -0.4455  0.0130  1.1539
 6553TIP3    H241151   0.346   0.743   2.597 -0.1698 -0.0558 -1.4684
 6554TIP3   OH241152   6.226   1.041   3.664  0.7860  0.1393  0.1948
 6554TIP3    H141153   6.191   1.130   3.658  0.0780 -0.2025 -0.9572
 6554TIP3    H241154   6.193   0.997   3.586 -0.3290 -1.6589  1.5993
 6555TIP3   OH241155   0.545   0.523   1.429  0.4550 -0.7372  0.3172
 6555TIP3    H141156   0.605   0.451   1.407  2.0834  0.9072 -0.8818
 6555TIP3    H241157   0.516   0.557   1.344  1.1861  1.1782  0.7824
 6556TIP3   OH241158   0.389   0.157   0.098 -0.5411  0.2494  0.5758
 6556TIP3    H141159   0.419   0.121   0.015 -2.0336 -0.2031  0.2097
 6556TIP3    H241160   0.435   0.241   0.106  0.7826 -0.3887  0.0615
 6557TIP3   OH241161   0.930   1.982  12.638 -0.0480  0.0779 -0.3859
 6557TIP3    H141162   0.988   1.966  12.564 -1.9258 -0.9972 -1.7083
 6557TIP3    H241163   0.899   1.894  12.663  0.2738  0.4459  1.4807
 6558TIP3   OH241164   5.298   3.069   1.478 -0.0587 -0.0638 -0.1836
 6558TIP3    H141165   5.263   2.982   1.496 -2.1690  0.7456 -0.1067
 6558TIP3    H241166   5.307   3.110   1.564  2.1300 -0.5625 -0.1021
 6559TIP3   OH241167   1.971   5.057  15.346  0.4930  0.0507  0.6407
 6559TIP3    H141168   1.926   5.004  15.280  0.6884  0.1470  0.4272
 6559TIP3    H241169   2.052   5.009  15.364  0.9252  0.5366  0.0526
 6560TIP3   OH241170   3.809   1.465  16.274 -0.0798  0.9049  0.3994
 6560TIP3    H141171   3.838   1.527  16.208  1.5968  0.0299  0.2749
 6560TIP3    H241172   3.858   1.385  16.256 -0.6909  0.1755  1.7995
 6561TIP3   OH241173   0.644   1.354   5.208  0.1654  0.4273 -0.3501
 6561TIP3    H141174   0.604   1.287   5.153  0.4160  0.2920 -0.3671
 6561TIP3    H241175   0.701   1.403   5.148  0.2569  0.4304 -0.2603
 6562TIP3   OH241176   1.419   3.457  14.373  0.3489  0.0086  0.2094
 6562TIP3    H141177   1.361   3.426  14.443  0.7756  0.6073  0.8493
 6562TIP3    H241178   1.408   3.552  14.372 -0.8871 -0.1080 -1.6914
 6563TIP3   OH241179   2.846   4.373   4.608  0.8419 -0.3013  0.0012
 6563TIP3    H141180   2.851   4.279   4.589 -0.4131 -0.0881 -1.5968
 6563TIP3    H241181   2.781   4.380   4.677 -1.7282 -0.4260 -2.2295
 6564TIP3   OH241182   5.470   2.162   1.735 -0.4444  0.1261  0.0716
 6564TIP3    H141183   5.490   2.216   1.811 -1.0336  0.3320  0.0853
 6564TIP3    H241184   5.377   2.176   1.719 -0.3225  0.0978 -0.7024
 6565TIP3   OH241185   2.101   1.236  14.619  0.9413 -0.3583  0.3068
 6565TIP3    H141186   2.097   1.141  14.608  1.6351 -0.1276 -2.7003
 6565TIP3    H241187   2.184   1.252  14.665  1.1103 -1.1722  0.2906
 6566TIP3   OH241188   6.433   6.086  12.563  0.1831 -0.0890 -0.4002
 6566TIP3    H141189   6.345   6.111  12.537  0.5920  0.0160 -1.7548
 6566TIP3    H241190   6.473   6.051  12.483  0.3116 -3.2824  0.8952
 6567TIP3   OH241191   3.313   4.546   5.213  0.2527  0.2311 -0.3607
 6567TIP3    H141192   3.305   4.517   5.122  2.1943  0.3409 -0.6061
 6567TIP3    H241193   3.227   4.529   5.251 -1.6435  2.8899 -2.9570
 6568TIP3   OH241194   1.333   1.462   0.717 -0.0843  0.2908  0.2742
 6568TIP3    H141195   1.314   1.556   0.717 -1.5549  0.1192  3.1852
 6568TIP3    H241196   1.409   1.453   0.774  0.5721 -0.2256 -0.6687
 6569TIP3   OH241197   0.738   4.307  13.881  0.1061  0.1805  0.3303
 6569TIP3    H141198   0.740   4.229  13.937  1.7665  0.4872  0.7478
 6569TIP3    H241199   0.718   4.378  13.942 -1.5721  0.0881 -0.0782
 6570TIP3   OH241200   1.448   3.598  15.905  0.3776 -0.0361 -0.0021
 6570TIP3    H141201   1.540   3.595  15.878 -0.0389 -0.3515 -1.4814
 6570TIP3    H241202   1.402   3.635  15.830 -0.7803 -0.4280  0.4907
 6571TIP3   OH241203   6.722   4.947  16.859 -0.0155  0.1069 -0.0436
 6571TIP3    H141204   6.797   4.907  16.815  0.5238 -0.7701  1.5646
 6571TIP3    H241205   6.646   4.901  16.823  0.4981 -1.4421  0.7548
 6572TIP3   OH241206   1.365   3.686  16.142  0.1066 -0.0121 -0.0695
 6572TIP3    H141207   1.431   3.642  16.197 -0.1291  0.8381  0.9229
 6572TIP3    H241208   1.382   3.652  16.054  0.8836 -0.9614  0.4138
 6573TIP3   OH241209   0.488   5.106  16.283 -0.3447 -0.2705 -0.1729
 6573TIP3    H141210   0.549   5.100  16.356  1.0059 -0.6163 -1.2805
 6573TIP3    H241211   0.469   5.200  16.275  1.8075  0.1424 -1.1553
 6574TIP3   OH241212   4.639   2.097   5.304 -0.4238 -0.4883  0.1994
 6574TIP3    H141213   4.586   2.076   5.380 -1.2687 -1.3607 -0.6089
 6574TIP3    H241214   4.728   2.071   5.329 -1.0972 -3.3798 -0.0331
 6575TIP3   OH241215   3.997   3.155  15.670  0.2145 -0.1451 -0.3626
 6575TIP3    H141216   3.944   3.141  15.748 -0.2697  0.2129 -0.6169
 6575TIP3    H241217   3.966   3.088  15.608 -0.2636  0.3505 -0.6672
 6576TIP3   OH241218   0.397   1.149   4.713 -0.0261  0.0036 -0.2139
 6576TIP3    H141219   0.307   1.120   4.697  0.6359 -1.0207 -2.5181
 6576TIP3    H241220   0.449   1.069   4.710  0.9825  0.5638  1.2672
 6577TIP3   OH241221   2.490   4.851   5.788 -0.8981  0.7061  0.0292
 6577TIP3    H141222   2.446   4.898   5.858 -0.7574  0.2999  0.3892
 6577TIP3    H241223   2.583   4.870   5.800 -0.7959 -0.0571  0.4688
 6578TIP3   OH241224   3.283   2.245   5.827 -0.0877 -0.0180  0.3329
 6578TIP3    H141225   3.240   2.310   5.884 -0.3964 -1.6887  2.1424
 6578TIP3    H241226   3.360   2.218   5.876 -0.0021 -1.0544 -0.3507
 6579TIP3   OH241227   1.835   5.436  15.073  0.5105  0.2157 -0.6416
 6579TIP3    H141228   1.887   5.493  15.016  0.2689  1.6686  0.5268
 6579TIP3    H241229   1.755   5.486  15.090  0.5060 -0.2637  0.8142
 6580TIP3   OH241230   2.993   3.950   5.676  0.2196 -0.1562 -0.5264
 6580TIP3    H141231   3.044   4.022   5.638  3.4403 -0.1668  3.0874
 6580TIP3    H241232   2.925   3.932   5.612  0.8101  4.3317 -2.8403
 6581TIP3   OH241233   2.499   2.369  16.544  0.6111 -0.1243  0.1168
 6581TIP3    H141234   2.554   2.380  16.622 -1.1505  0.3545  1.3552
 6581TIP3    H241235   2.413   2.345  16.579 -0.0050 -0.7918 -1.7507
 6582TIP3   OH241236   4.812   5.912  13.673  0.1800 -0.4703 -0.4263
 6582TIP3    H141237   4.828   5.913  13.578 -1.3195  1.7663 -0.7366
 6582TIP3    H241238   4.745   5.844  13.685  0.7152 -1.0948 -0.8855
 6583TIP3   OH241239   4.311   6.323   5.108  0.3225 -0.1931  0.1331
 6583TIP3    H141240   4.258   6.362   5.178 -3.0301  0.9650 -2.7334
 6583TIP3    H241241   4.276   6.234   5.099  2.9562 -1.5174  1.8721
 6584TIP3   OH241242   2.055   5.429  12.743  0.0192  0.1522  0.4093
 6584TIP3    H141243   2.092   5.355  12.694 -0.5849  1.3361 -1.9994
 6584TIP3    H241244   2.125   5.495  12.742 -0.7890  1.0369 -0.9574
 6585TIP3   OH241245   0.847   0.373  15.706 -0.1716 -0.0881  0.1855
 6585TIP3    H141246   0.785   0.324  15.760 -0.8468 -0.3188 -0.7741
 6585TIP3    H241247   0.840   0.464  15.737 -2.1351  0.1819 -0.8946
 6586TIP3   OH241248   4.754   6.175   5.881 -0.4134 -0.0686 -0.5265
 6586TIP3    H141249   4.754   6.132   5.966 -0.3086  0.4691 -0.2530
 6586TIP3    H241250   4.836   6.148   5.840 -0.7437 -0.8130 -0.7068
 6587TIP3   OH241251   5.465   5.478   5.332  0.0843 -0.6173 -0.0394
 6587TIP3    H141252   5.383   5.516   5.363  1.4349  1.1198  1.7026
 6587TIP3    H241253   5.443   5.438   5.248 -2.0926  1.5499 -0.6174
 6588TIP3   OH241254   1.042   2.518  16.259  0.1985 -0.0828  0.8184
 6588TIP3    H141255   0.963   2.571  16.245  0.5636  0.5684  1.1751
 6588TIP3    H241256   1.023   2.466  16.336  0.2301  0.3062  1.0941
 6589TIP3   OH241257   0.261   2.918   1.856 -0.2224 -0.6924 -0.3488
 6589TIP3    H141258   0.333   2.977   1.837  0.5651 -1.2067  0.9592
 6589TIP3    H241259   0.189   2.975   1.884  1.0428 -0.3820  2.5204
 6590TIP3   OH241260   0.023   4.242   6.012  0.0189 -0.2296  0.1527
 6590TIP3    H141261   0.063   4.237   6.099  0.5130  4.7404  0.4637
 6590TIP3    H241262  -0.070   4.256   6.030 -0.0540 -0.3053 -0.1658
 6591TIP3   OH241263   1.937   5.117   6.370 -0.1216 -0.1634 -0.2813
 6591TIP3    H141264   2.028   5.104   6.345 -0.0575 -2.3974  0.8413
 6591TIP3    H241265   1.921   5.211   6.358  2.2748  0.2546 -0.5615
 6592TIP3   OH241266   6.703   5.319  12.738  0.6348  0.4758  0.6030
 6592TIP3    H141267   6.791   5.347  12.761  1.0864  0.1917 -0.6932
 6592TIP3    H241268   6.697   5.334  12.643 -0.2596 -0.6889  0.4524
 6593TIP3   OH241269   0.309   5.993  15.855  0.1517 -0.2259  0.1698
 6593TIP3    H141270   0.368   6.068  15.865 -0.1053 -0.0783  0.6120
 6593TIP3    H241271   0.303   5.980  15.760  1.0774 -0.3952  0.1210
 6594TIP3   OH241272   4.368   4.294  16.822 -0.2784 -0.3733  0.1100
 6594TIP3    H141273   4.291   4.238  16.822  0.8311 -2.0077 -1.3695
 6594TIP3    H241274   4.372   4.330  16.734  0.0931  0.5298  0.4769
 6595TIP3   OH241275   3.959   5.557   0.790 -0.7604  0.1110  0.1434
 6595TIP3    H141276   3.970   5.650   0.809 -1.7867  0.5306 -1.1921
 6595TIP3    H241277   3.936   5.518   0.875 -0.2860  1.0521  0.7200
 6596TIP3   OH241278   5.901   4.712  12.862 -0.1730 -0.6237  0.2865
 6596TIP3    H141279   5.840   4.738  12.931  0.2035  3.8574 -0.7694
 6596TIP3    H241280   5.846   4.668  12.797 -1.4849 -0.2876  1.1293
 6597TIP3   OH241281   3.352   0.587   0.051 -0.4402  0.3967 -0.2658
 6597TIP3    H141282   3.356   0.493   0.034 -1.8750 -0.3789  2.8857
 6597TIP3    H241283   3.266   0.614   0.018  0.3498  0.8688 -2.0275
 6598TIP3   OH241284   5.629   6.306  11.190 -0.2944  0.0134 -0.2407
 6598TIP3    H141285   5.624   6.367  11.116 -2.2254 -0.2571 -0.3770
 6598TIP3    H241286   5.538   6.289  11.213  0.2449 -1.4539  0.9327
 6599TIP3   OH241287   6.088   4.830   4.711  0.5440 -0.4659 -0.0742
 6599TIP3    H141288   6.102   4.742   4.674  1.3770 -0.6057  0.5478
 6599TIP3    H241289   6.151   4.836   4.782 -0.5086  0.0990  0.8341
 6600TIP3   OH241290   5.412   1.104   5.107 -0.2771 -0.2959 -0.4827
 6600TIP3    H141291   5.341   1.079   5.048 -0.0091 -1.1965 -0.4463
 6600TIP3    H241292   5.490   1.111   5.051 -0.8811  3.9041 -1.1464
 6601TIP3   OH241293   0.716   6.532   5.887 -0.1191 -0.1292 -0.0175
 6601TIP3    H141294   0.667   6.450   5.897 -0.4013 -0.0151 -0.4023
 6601TIP3    H241295   0.806   6.510   5.911 -0.0832 -0.6860 -0.6315
 6602TIP3   OH241296   4.201   6.595   4.081  0.5548 -0.2349  0.2178
 6602TIP3    H141297   4.270   6.589   4.148  0.1857 -1.9269  0.4949
 6602TIP3    H241298   4.234   6.542   4.008  0.1670  0.1324 -0.2332
 6603TIP3   OH241299   4.018   2.211   3.681  0.1626 -0.1727  0.0813
 6603TIP3    H141300   3.991   2.282   3.624  0.0854  0.1007  0.4508
 6603TIP3    H241301   4.099   2.242   3.722  0.3065 -0.4318 -0.0040
 6604TIP3   OH241302   1.458   0.398  13.136 -0.2474  0.1494 -0.0204
 6604TIP3    H141303   1.484   0.415  13.226 -0.4331  0.0104  0.0608
 6604TIP3    H241304   1.392   0.329  13.143 -0.9249  0.7582 -0.1871
 6605TIP3   OH241305   6.775   5.444   4.531 -0.0928 -0.4962  0.4560
 6605TIP3    H141306   6.823   5.491   4.464  0.0876  1.2231  1.7130
 6605TIP3    H241307   6.697   5.411   4.487  0.1756  0.3236 -0.6591
 6606TIP3   OH241308   0.229   2.790   3.200 -0.0228  0.3150  0.0922
 6606TIP3    H141309   0.292   2.718   3.207  0.3334  0.6225  0.0950
 6606TIP3    H241310   0.144   2.750   3.220 -0.1396 -0.5477 -1.9130
 6607TIP3   OH241311   5.752   0.613   6.827 -0.3313  0.5971 -0.4613
 6607TIP3    H141312   5.749   0.708   6.818  0.0397  0.6638  0.0624
 6607TIP3    H241313   5.660   0.586   6.825 -0.5263  1.1079  0.7681
 6608TIP3   OH241314   1.215   0.505  15.241  0.0675  0.5814  0.3254
 6608TIP3    H141315   1.148   0.483  15.305  0.6201  0.4718  0.8705
 6608TIP3    H241316   1.281   0.436  15.249  1.6006  2.0909  1.7410
 6609TIP3   OH241317   6.719   0.638  11.671 -0.3095 -0.6048  0.4619
 6609TIP3    H141318   6.686   0.706  11.612 -0.9470 -0.8644  0.5081
 6609TIP3    H241319   6.810   0.625  11.643 -0.0750  0.4885  0.6694
 6610TIP3   OH241320   0.232   0.028   5.063  0.3408 -0.6563  0.5100
 6610TIP3    H141321   0.264   0.106   5.017  0.6352 -0.1171  1.5654
 6610TIP3    H241322   0.311  -0.021   5.084  0.2618 -0.6488  0.8400
 6611TIP3   OH241323   4.827   1.501   0.842  0.5231 -0.2733 -0.4102
 6611TIP3    H141324   4.817   1.573   0.905 -0.7024 -0.3092 -0.5418
 6611TIP3    H241325   4.910   1.460   0.866  0.0583 -0.3257  1.2338
 6612TIP3   OH241326   3.345   0.844   0.384 -0.0966  0.1772 -0.3300
 6612TIP3    H141327   3.430   0.840   0.339 -0.3480 -0.4502 -0.7641
 6612TIP3    H241328   3.317   0.752   0.390 -1.1754  0.4443 -1.0206
 6613TIP3   OH241329   1.698   6.625  11.908  0.0249  0.3279  0.1614
 6613TIP3    H141330   1.758   6.559  11.941 -2.0887 -1.7509  0.1621
 6613TIP3    H241331   1.679   6.681  11.984 -0.4939 -0.9827  1.0266
 6614TIP3   OH241332   3.506   4.075  12.616  0.0392 -0.0623  0.3815
 6614TIP3    H141333   3.459   4.108  12.540 -0.8690 -2.0458  0.0280
 6614TIP3    H241334   3.598   4.097  12.599 -0.2348  0.1208 -0.9656
 6615TIP3   OH241335   0.699   2.625   6.253 -0.0442 -0.3710 -0.6220
 6615TIP3    H141336   0.756   2.613   6.330 -1.1266  2.4019  0.7646
 6615TIP3    H241337   0.749   2.589   6.180  2.6315  0.1234  0.8323
 6616TIP3   OH241338   5.214   5.334   1.072 -0.3153 -0.4203 -0.0689
 6616TIP3    H141339   5.130   5.329   1.027  0.7702  0.3983 -2.3907
 6616TIP3    H241340   5.263   5.258   1.039 -0.0500 -0.7539  1.0656
 6617TIP3   OH241341   5.549   3.809   1.640 -0.0373  0.4646  0.1597
 6617TIP3    H141342   5.609   3.879   1.667  0.2589  0.2611  0.0285
 6617TIP3    H241343   5.491   3.798   1.715  1.1271 -0.4843  0.9718
 6618TIP3   OH241344   0.632   2.895   4.912 -0.2154  0.9480  0.2034
 6618TIP3    H141345   0.693   2.962   4.882  1.1813 -0.5565 -0.4982
 6618TIP3    H241346   0.601   2.926   4.997 -0.2530  2.8438 -0.4747
 6619TIP3   OH241347   5.391   0.101   0.456 -0.0013  0.2367  0.7685
 6619TIP3    H141348   5.339   0.090   0.536  1.4142  1.3850  1.9052
 6619TIP3    H241349   5.344   0.167   0.405 -1.1782 -0.8560  0.3595
 6620TIP3   OH241350   2.480   4.571   0.663 -0.1593  0.1836 -0.9329
 6620TIP3    H141351   2.403   4.522   0.691 -0.1603  0.6711 -0.0322
 6620TIP3    H241352   2.485   4.645   0.724  1.4147 -0.2257 -0.4965
 6621TIP3   OH241353   6.705   3.617  13.603  0.5425  0.2474 -0.2693
 6621TIP3    H141354   6.758   3.689  13.636 -1.0236  0.7420  1.3152
 6621TIP3    H241355   6.632   3.659  13.558 -0.4950 -0.2763  0.8466
 6622TIP3   OH241356   1.554   4.934  11.051 -0.8508 -0.2205 -0.3330
 6622TIP3    H141357   1.477   4.985  11.028 -1.3508 -0.3804  0.8988
 6622TIP3    H241358   1.603   4.990  11.112  0.0437 -0.1006 -1.1297
 6623TIP3   OH241359   4.802   3.100  11.980 -0.1815 -0.1027 -0.2796
 6623TIP3    H141360   4.896   3.103  11.996 -0.5221 -2.1740  3.1319
 6623TIP3    H241361   4.790   3.029  11.918  0.5334  1.3531 -2.1815
 6624TIP3   OH241362   1.744   1.197   4.695 -0.0109  1.0684 -0.2844
 6624TIP3    H141363   1.699   1.117   4.667 -2.5706  1.9631  0.9945
 6624TIP3    H241364   1.790   1.171   4.775  1.5753  0.2243 -1.4233
 6625TIP3   OH241365   3.022   0.527   3.484 -0.5433  0.6082 -0.4159
 6625TIP3    H141366   3.012   0.463   3.413  0.0760  0.5540 -0.4636
 6625TIP3    H241367   3.081   0.484   3.546 -2.0368  0.1626  0.7360
 6626TIP3   OH241368   6.461   3.619   2.266  0.3943  0.5861 -0.4573
 6626TIP3    H141369   6.527   3.688   2.268  0.7146  0.2704  1.1576
 6626TIP3    H241370   6.387   3.659   2.219  1.1286  1.4977 -0.8731
 6627TIP3   OH241371   2.333   5.946  15.638  0.8018  0.0380  0.5132
 6627TIP3    H141372   2.346   5.927  15.545  0.3712 -0.1752  0.4936
 6627TIP3    H241373   2.390   5.884  15.683 -0.6955 -1.4705  0.4550
 6628TIP3   OH241374   4.891   0.408   4.349 -0.1350  0.0332  0.0500
 6628TIP3    H141375   4.862   0.491   4.310 -0.4710  0.1337  0.5066
 6628TIP3    H241376   4.985   0.420   4.362  0.3771 -0.7057 -2.4655
 6629TIP3   OH241377   4.193   6.765  14.446  0.6491  0.9058 -0.0247
 6629TIP3    H141378   4.263   6.710  14.481 -1.0372 -1.5298 -0.2866
 6629TIP3    H241379   4.140   6.788  14.522 -0.7920 -1.0923 -0.3746
 6630TIP3   OH241380   3.186   6.321   6.432 -0.1030  0.0785  0.0277
 6630TIP3    H141381   3.237   6.399   6.411 -1.2828  1.3612  1.6275
 6630TIP3    H241382   3.240   6.248   6.400  1.8071  1.4434 -0.0752
 6631TIP3   OH241383   4.834   4.323  12.840  0.1210 -0.1639  0.4232
 6631TIP3    H141384   4.890   4.245  12.836  0.8123  0.3588 -0.9434
 6631TIP3    H241385   4.827   4.351  12.749  1.0556  2.1898  1.0069
 6632TIP3   OH241386   0.447   5.692   2.503  1.1716 -0.1137  0.5230
 6632TIP3    H141387   0.453   5.609   2.455  1.2466  0.3426 -0.2706
 6632TIP3    H241388   0.372   5.737   2.464  1.6122  0.5284  0.4084
 6633TIP3   OH241389   5.948   2.971   1.889 -0.3836  0.3106 -0.6559
 6633TIP3    H141390   5.935   3.026   1.966 -2.1133 -0.1208 -0.6077
 6633TIP3    H241391   5.885   2.900   1.899 -0.4499  0.0913 -2.3303
 6634TIP3   OH241392   6.369   6.116   2.799 -0.3156 -0.3892 -0.1446
 6634TIP3    H141393   6.328   6.030   2.796  0.6739 -1.0291  2.1267
 6634TIP3    H241394   6.455   6.103   2.760  0.5085 -0.9476  1.7065
 6635TIP3   OH241395   6.184   2.010   2.018 -0.2767 -0.0616  0.0201
 6635TIP3    H141396   6.168   1.945   1.950  0.6468  0.4617 -0.7141
 6635TIP3    H241397   6.217   1.960   2.092 -1.5947 -0.6760  0.2194
 6636TIP3   OH241398   1.460   1.749   4.765  0.3623 -0.2983 -0.2123
 6636TIP3    H141399   1.395   1.798   4.715  1.1533  0.1356 -0.8366
 6636TIP3    H241400   1.492   1.682   4.703  0.4890 -0.5291  0.0986
 6637TIP3   OH241401   5.706   4.499  13.828  0.3002  0.7809 -0.0425
 6637TIP3    H141402   5.754   4.493  13.745  0.5506  1.6722  0.0225
 6637TIP3    H241403   5.648   4.423  13.828  2.2570 -0.8090  0.2462
 6638TIP3   OH241404   5.523   3.848  17.169  0.1814  0.5746 -0.1123
 6638TIP3    H141405   5.471   3.771  17.191  0.2217  1.0058  1.6359
 6638TIP3    H241406   5.533   3.894  17.252  0.4962  2.2582 -1.0485
 6639TIP3   OH241407   6.297   6.510   5.152  0.6524  0.4744  0.2071
 6639TIP3    H141408   6.226   6.561   5.113  0.7461 -0.0256 -0.6385
 6639TIP3    H241409   6.253   6.455   5.218 -0.1708 -1.5293 -1.8899
 6640TIP3   OH241410   4.790   4.599   4.714  0.5276 -0.2839  0.0629
 6640TIP3    H141411   4.874   4.632   4.746  0.1140  0.4907  0.3886
 6640TIP3    H241412   4.809   4.562   4.628  0.9856  1.0298 -0.4269
 6641TIP3   OH241413   3.283   1.428   1.925 -0.2214  0.2740  0.1724
 6641TIP3    H141414   3.356   1.486   1.903  1.0119 -1.3899 -0.2710
 6641TIP3    H241415   3.261   1.384   1.844 -1.8038  0.7816  0.2871
 6642TIP3   OH241416   1.895   4.169  13.140  0.3731 -0.7086  0.5081
 6642TIP3    H141417   1.819   4.228  13.144  0.7246 -0.1079 -1.0623
 6642TIP3    H241418   1.907   4.140  13.231 -0.7106  0.4915  1.0699
 6643TIP3   OH241419   3.845   2.823   1.865 -0.3961 -0.4369  0.5534
 6643TIP3    H141420   3.846   2.917   1.881  1.4359 -0.1623 -0.8201
 6643TIP3    H241421   3.752   2.799   1.869 -0.9422  1.4938  0.5268
 6644TIP3   OH241422   6.536   3.832   3.882 -0.0438 -0.0514 -0.2274
 6644TIP3    H141423   6.522   3.857   3.973 -0.1632 -0.6299 -0.0871
 6644TIP3    H241424   6.573   3.744   3.886  5.9386  2.0149 -0.4243
 6645TIP3   OH241425   1.703   2.731  13.790 -0.0875 -0.0127 -0.6072
 6645TIP3    H141426   1.642   2.667  13.753 -1.7623 -0.2543  2.3074
 6645TIP3    H241427   1.663   2.816  13.769 -2.4017 -0.1753  2.4280
 6646TIP3   OH241428   1.430   3.694   0.053 -0.5149 -0.1552 -0.7426
 6646TIP3    H141429   1.498   3.636   0.017 -2.8727 -2.0441 -2.5077
 6646TIP3    H241430   1.411   3.658   0.139  1.4527  1.1257  0.2981
 6647TIP3   OH241431   4.664   3.797   3.332  0.0252  0.7975  0.3049
 6647TIP3    H141432   4.698   3.866   3.389  2.8189 -0.3735  0.1621
 6647TIP3    H241433   4.679   3.830   3.243 -0.2893  0.7381  0.2267
 6648TIP3   OH241434   2.128   3.600   3.402  0.4962 -0.2902 -0.0340
 6648TIP3    H141435   2.183   3.636   3.472  0.2916 -1.2800  0.6569
 6648TIP3    H241436   2.181   3.530   3.363 -0.3519 -1.4297  0.8160
 6649TIP3   OH241437   6.593   0.328  14.107 -0.4707 -0.1452  0.3378
 6649TIP3    H141438   6.575   0.235  14.093  1.9929 -0.8709  1.4943
 6649TIP3    H241439   6.539   0.352  14.182 -2.3078 -0.1571 -0.9013
 6650TIP3   OH241440   0.957   5.789  11.123 -0.6770 -0.1174 -0.4639
 6650TIP3    H141441   0.872   5.814  11.159 -1.1941 -0.6086 -1.3033
 6650TIP3    H241442   1.016   5.860  11.148 -0.6993 -0.9506  2.3728
 6651TIP3   OH241443   1.728   3.645  12.630 -0.1738 -0.1798 -0.7207
 6651TIP3    H141444   1.805   3.702  12.633  0.1910 -0.5910 -1.8262
 6651TIP3    H241445   1.742   3.584  12.703  0.1821  0.2015 -0.4625
 6652TIP3   OH241446   2.169   0.480   2.551  0.2514  0.6509  0.0942
 6652TIP3    H141447   2.144   0.393   2.582  0.4616 -0.4450 -2.6038
 6652TIP3    H241448   2.126   0.489   2.466  0.5966  3.0387  0.0931
 6653TIP3   OH241449   3.014   5.365   0.339  0.0946  0.0744  0.2413
 6653TIP3    H141450   2.963   5.422   0.282 -0.2911 -0.5075 -0.0106
 6653TIP3    H241451   3.093   5.415   0.359  0.3196  0.2335 -0.9508
 6654TIP3   OH241452   2.551   1.135  15.568  0.1589  0.2967 -0.3158
 6654TIP3    H141453   2.622   1.133  15.504  0.5127  0.6817  0.0537
 6654TIP3    H241454   2.589   1.179  15.644  0.4533 -2.1203  1.0386
 6655TIP3   OH241455   0.938   5.507  15.917  0.0849 -0.3042 -0.0731
 6655TIP3    H141456   0.970   5.500  15.827  1.1463 -0.7541  0.3181
 6655TIP3    H241457   0.969   5.427  15.960  1.1438  0.7029  1.1423
 6656TIP3   OH241458   6.822   1.642   2.619 -0.4180 -0.2701  0.0497
 6656TIP3    H141459   6.774   1.617   2.698 -0.3987  1.9638  0.8334
 6656TIP3    H241460   6.757   1.639   2.549 -1.6612  2.2109  1.0038
 6657TIP3   OH241461   4.281   1.333   1.675 -0.5632 -0.0295 -0.2482
 6657TIP3    H141462   4.340   1.371   1.741 -0.3735 -0.8662  0.0756
 6657TIP3    H241463   4.338   1.280   1.619 -1.0526 -1.2493  0.3634
 6658TIP3   OH241464   5.367   4.474   1.887  0.0295 -0.7791  0.3673
 6658TIP3    H141465   5.435   4.532   1.921 -0.4366 -0.8758  1.5015
 6658TIP3    H241466   5.338   4.516   1.807  0.6492 -0.1605  0.4543
 6659TIP3   OH241467   5.123   5.279   1.830  0.2797  0.4470  0.2905
 6659TIP3    H141468   5.216   5.267   1.848  0.0532  0.4292  1.5707
 6659TIP3    H241469   5.119   5.316   1.742  1.4692 -0.0026  0.0368
 6660TIP3   OH241470   0.637   5.207  11.698 -0.1576  0.1710 -0.1019
 6660TIP3    H141471   0.560   5.228  11.646  0.0045  2.4172  0.4656
 6660TIP3    H241472   0.612   5.227  11.788  1.1202  1.1975  0.0670
 6661TIP3   OH241473   4.562   5.633   3.433  0.2750  0.7955 -0.3022
 6661TIP3    H141474   4.525   5.720   3.446  0.6093  1.1081 -1.3225
 6661TIP3    H241475   4.621   5.643   3.358 -0.7950 -0.6129 -1.4005
 6662TIP3   OH241476   2.033   1.404  10.299 -0.1270  0.0838  0.4077
 6662TIP3    H141477   2.047   1.316  10.335 -1.2568  0.5288  2.0458
 6662TIP3    H241478   1.942   1.403  10.269 -0.3707  0.8851  1.0731
 6663TIP3   OH241479   2.990   4.558   2.509 -0.3319  0.5779  0.2504
 6663TIP3    H141480   2.928   4.499   2.466 -0.5287  0.1629  1.0798
 6663TIP3    H241481   2.936   4.628   2.545 -0.2379  0.6121  0.3252
 6664TIP3   OH241482   2.413   3.076  16.762  0.1191  0.3093 -0.4619
 6664TIP3    H141483   2.423   2.982  16.778  1.7626  0.5031 -0.1973
 6664TIP3    H241484   2.502   3.107  16.748 -0.3105  1.9998  0.3912
 6665TIP3   OH241485   3.091   2.955  14.357  0.7804 -0.5294 -0.0555
 6665TIP3    H141486   3.124   2.881  14.408  1.0569 -0.4774 -0.1610
 6665TIP3    H241487   3.117   2.937  14.267  0.3359 -0.5949 -0.1758
 6666TIP3   OH241488   2.972   5.935  11.794 -0.2780  0.6036  0.1279
 6666TIP3    H141489   2.902   5.913  11.856 -0.5947  2.5166  0.5116
 6666TIP3    H241490   2.966   6.030  11.784  1.6485  0.6905 -0.5951
 6667TIP3   OH241491   0.807   6.478   2.950 -0.7383  0.0096 -0.1835
 6667TIP3    H141492   0.853   6.439   2.876  1.6005 -1.3087  1.8456
 6667TIP3    H241493   0.738   6.415   2.971 -0.5331 -0.2774 -0.3700
 6668TIP3   OH241494   0.629   6.268   4.745 -0.1067 -0.0323  0.1422
 6668TIP3    H141495   0.576   6.222   4.680 -0.0603 -0.7059  0.5768
 6668TIP3    H241496   0.719   6.247   4.721 -0.0805 -0.0201  0.2323
 6669TIP3   OH241497   4.219   0.971   6.076  0.4067  0.4334  0.5708
 6669TIP3    H141498   4.309   0.993   6.099  1.0815 -1.1437 -0.4367
 6669TIP3    H241499   4.210   1.002   5.986  0.9880 -2.1204 -0.4432
 6670TIP3   OH241500   0.941   1.390  15.767  0.8006  0.2761  0.4900
 6670TIP3    H141501   0.849   1.384  15.740  0.9288  0.1777  0.0819
 6670TIP3    H241502   0.950   1.480  15.798  0.4644  0.1720  0.9112
 6671TIP3   OH241503   2.921   2.912  13.694  0.0740 -0.2034  0.4713
 6671TIP3    H141504   2.869   2.954  13.625  1.9490  0.5336 -0.5581
 6671TIP3    H241505   2.954   2.832  13.654 -2.3388 -2.0787  1.9806
 6672TIP3   OH241506   3.352   2.513   5.698  0.2835  0.0543  0.0941
 6672TIP3    H141507   3.315   2.524   5.785  1.3712 -1.0042  0.7264
 6672TIP3    H241508   3.446   2.502   5.713  0.6240  0.8727 -1.3043
 6673TIP3   OH241509   6.344   2.040   4.361  0.3094 -0.1419  0.2528
 6673TIP3    H141510   6.398   2.089   4.422 -0.2269 -0.0771  0.6837
 6673TIP3    H241511   6.406   1.987   4.311  0.8024  0.2291  0.4604
 6674TIP3   OH241512   2.297   3.535   1.376 -0.5326  0.0626 -0.0395
 6674TIP3    H141513   2.237   3.551   1.449  0.5973  0.5685  0.8015
 6674TIP3    H241514   2.240   3.523   1.300 -1.7810 -1.3925  1.0756
 6675TIP3   OH241515   1.262   5.022  13.416  0.7206 -0.0940 -0.6116
 6675TIP3    H141516   1.245   5.072  13.337  1.5689 -1.3349 -1.6344
 6675TIP3    H241517   1.177   5.013  13.459  0.3372  0.9983 -1.1296
 6676TIP3   OH241518   6.062   5.189  13.583  0.2357  0.4419 -0.5282
 6676TIP3    H141519   6.125   5.180  13.511  0.3003  0.7611 -0.5116
 6676TIP3    H241520   6.092   5.266  13.631  0.8238 -0.3775  0.4591
 6677TIP3   OH241521   2.462   6.476   6.682 -0.3788 -0.3104 -0.5507
 6677TIP3    H141522   2.423   6.507   6.763 -0.2370 -1.2048 -0.1318
 6677TIP3    H241523   2.399   6.412   6.648 -0.9908  0.8597 -1.7425
 6678TIP3   OH241524   2.897   1.984   5.657 -0.1618 -0.3421  0.5743
 6678TIP3    H141525   2.942   1.900   5.664 -1.0803 -0.8131  1.1486
 6678TIP3    H241526   2.859   1.984   5.569  0.1983 -0.3335  0.4165
 6679TIP3   OH241527   5.172   3.527   4.281  1.0549 -0.2970  0.4052
 6679TIP3    H141528   5.221   3.544   4.201  1.3102 -1.5548  0.2786
 6679TIP3    H241529   5.232   3.553   4.351  1.0385  0.2898  0.2057
 6680TIP3   OH241530   0.405   0.989   1.737  0.4369  0.5991  0.1601
 6680TIP3    H141531   0.479   1.039   1.703  0.9004  0.4576  0.9292
 6680TIP3    H241532   0.415   0.902   1.699 -0.7971  1.2451 -1.7893
 6681TIP3   OH241533   5.449   5.882  15.937 -0.4990 -0.1068 -0.3230
 6681TIP3    H141534   5.367   5.857  15.893 -0.4526  0.0698 -0.5120
 6681TIP3    H241535   5.515   5.823  15.901 -0.2254  0.8351 -1.3961
 6682TIP3   OH241536   0.391   4.005  15.519 -0.9405  0.4447 -0.2931
 6682TIP3    H141537   0.372   4.057  15.441  0.0441  0.0373 -0.8275
 6682TIP3    H241538   0.420   4.068  15.584 -0.8852  0.6883 -0.5511
 6683TIP3   OH241539   6.086   0.005   1.448 -0.2364 -0.1089 -0.3494
 6683TIP3    H141540   6.159  -0.016   1.506  0.4373  1.2801 -0.6584
 6683TIP3    H241541   6.033   0.067   1.499 -1.4381 -1.3997  0.0247
 6684TIP3   OH241542   3.261   6.307   3.130  0.2611 -0.5538  0.5161
 6684TIP3    H141543   3.186   6.267   3.175  0.2328  0.7047  1.6634
 6684TIP3    H241544   3.338   6.271   3.174  0.4114 -2.4876 -1.2110
 6685TIP3   OH241545   2.840   0.408   0.642  0.1240 -0.2773 -0.3763
 6685TIP3    H141546   2.762   0.431   0.593 -0.1450  0.2263  0.2671
 6685TIP3    H241547   2.814   0.414   0.734  1.0345  0.3557 -0.1404
 6686TIP3   OH241548   1.123   3.612   2.475 -0.1627 -0.2086  0.2065
 6686TIP3    H141549   1.205   3.641   2.435 -0.7742  2.3294  0.6283
 6686TIP3    H241550   1.082   3.556   2.409  2.2238 -2.2353  0.3100
 6687TIP3   OH241551   3.361   2.560   6.302 -0.6208  0.7309  0.0408
 6687TIP3    H141552   3.408   2.580   6.221 -2.3255  0.1625 -1.1353
 6687TIP3    H241553   3.412   2.489   6.342 -0.5374  0.0361 -1.2564
 6688TIP3   OH241554   1.504   5.378   0.369  0.1725 -0.2307 -0.4084
 6688TIP3    H141555   1.459   5.444   0.316  0.2909  0.4139  0.2790
 6688TIP3    H241556   1.566   5.428   0.422 -0.9350 -0.6774  1.3897
 6689TIP3   OH241557   0.637   2.836  11.728 -0.5155  0.0090 -0.4793
 6689TIP3    H141558   0.667   2.886  11.652 -0.7003 -0.0707 -0.6048
 6689TIP3    H241559   0.713   2.834  11.786 -0.8402  1.3969  0.0277
 6690TIP3   OH241560   4.296   1.611  17.055  0.0507 -0.2596 -0.6183
 6690TIP3    H141561   4.365   1.582  17.114 -0.4251 -0.9601 -0.4033
 6690TIP3    H241562   4.244   1.533  17.038 -1.3779  0.4849  0.1444
 6691TIP3   OH241563   5.506   3.828  12.216  0.3519 -0.0729 -0.0556
 6691TIP3    H141564   5.528   3.916  12.244  0.6877 -0.6796  1.7429
 6691TIP3    H241565   5.412   3.820  12.236  0.4116 -0.2360  0.1742
 6692TIP3   OH241566   3.407   0.950   1.661 -0.3089  0.2340  0.0395
 6692TIP3    H141567   3.392   0.997   1.579  0.2661  1.7709  0.7802
 6692TIP3    H241568   3.500   0.930   1.661 -0.1800  0.7889  0.5713
 6693TIP3   OH241569   0.065   5.006  11.836 -0.4228  0.0873 -0.1624
 6693TIP3    H141570  -0.023   4.989  11.803  0.4427 -2.0460 -1.6188
 6693TIP3    H241571   0.098   4.919  11.862  0.4934  1.1157  2.4893
 6694TIP3   OH241572   6.540   5.822  13.748  0.1635 -0.4736 -0.0876
 6694TIP3    H141573   6.561   5.886  13.680 -1.2792  0.1277 -0.0045
 6694TIP3    H241574   6.464   5.858  13.793  0.0671 -1.6659  0.7656
 6695TIP3   OH241575   6.366   2.912   2.345 -0.0982 -0.2553  0.3439
 6695TIP3    H141576   6.376   2.833   2.293  0.1827 -0.6691  1.0009
 6695TIP3    H241577   6.456   2.939   2.365 -0.1806 -1.0048  1.9152
 6696TIP3   OH241578   5.262   3.703   2.968 -0.1310  0.2275 -0.2345
 6696TIP3    H141579   5.266   3.768   2.898  0.3221  0.5373  0.0723
 6696TIP3    H241580   5.320   3.737   3.036 -0.0197 -0.4168  0.0023
 6697TIP3   OH241581   6.799   5.352   6.473  0.0394  0.4365 -0.6392
 6697TIP3    H141582   6.731   5.419   6.480  1.3649  2.0895 -2.3515
 6697TIP3    H241583   6.752   5.271   6.454 -1.5252  1.1705  0.0039
 6698TIP3   OH241584   5.863   0.336   1.983  0.2837  0.2055 -0.1709
 6698TIP3    H141585   5.889   0.312   2.071 -1.1523  2.0105  0.8346
 6698TIP3    H241586   5.870   0.432   1.981  2.3481  0.1288 -2.7573
 6699TIP3   OH241587   0.930   3.205  13.900 -0.2639 -0.0566  0.4380
 6699TIP3    H141588   0.973   3.121  13.882 -1.4312 -0.2369 -1.9038
 6699TIP3    H241589   0.999   3.260  13.935  2.2326 -0.1238 -3.7185
 6700TIP3   OH241590   2.290   6.399   0.572  0.0089 -0.5070  0.1838
 6700TIP3    H141591   2.372   6.427   0.611  0.5266  0.8872 -1.7342
 6700TIP3    H241592   2.288   6.304   0.585  2.6451 -0.7926 -0.9358
 6701TIP3   OH241593   5.650   6.532  11.790  0.7449 -0.0593  0.6951
 6701TIP3    H141594   5.588   6.465  11.819  0.6025  0.0806  0.7130
 6701TIP3    H241595   5.736   6.490  11.798  0.8536  0.4900  2.8018
 6702TIP3   OH241596   3.065   3.027   2.290 -0.2101  0.3536  0.2718
 6702TIP3    H141597   3.012   2.970   2.346 -1.0014  1.1718  0.3922
 6702TIP3    H241598   3.045   3.115   2.322  0.8451  0.7129 -0.0281
 6703TIP3   OH241599   0.597   4.448  17.029 -0.2952  0.1175 -0.2355
 6703TIP3    H141600   0.677   4.401  17.008 -0.4698 -0.6063  0.6580
 6703TIP3    H241601   0.622   4.506  17.101 -0.4411  0.3221 -0.3483
 6704TIP3   OH241602   3.885   6.007  11.541 -0.0604  0.5688  0.4469
 6704TIP3    H141603   3.790   6.018  11.538 -0.1575 -0.3434 -0.7944
 6704TIP3    H241604   3.901   5.923  11.498  1.2134 -0.0071  1.9326
 6705TIP3   OH241605   3.818   5.279   3.835 -0.4011  0.3431  0.3861
 6705TIP3    H141606   3.814   5.232   3.919  1.6821  0.3472  0.5541
 6705TIP3    H241607   3.811   5.371   3.859 -0.1469  0.3262  0.5365
 6706TIP3   OH241608   5.921   0.743  16.573  0.2721  0.7916  0.2791
 6706TIP3    H141609   5.952   0.777  16.488 -0.9531  1.4071  0.0510
 6706TIP3    H241610   5.844   0.690  16.551 -1.1148  2.3411  1.1074
 6707TIP3   OH241611   0.674   2.494   5.559  0.0284  0.2733 -0.2401
 6707TIP3    H141612   0.579   2.502   5.552  0.1628  1.5763 -0.9373
 6707TIP3    H241613   0.698   2.432   5.490 -0.4068 -0.9969  0.7127
 6708TIP3   OH241614   5.672   3.481   4.570  0.4213  0.1223 -0.2829
 6708TIP3    H141615   5.668   3.508   4.478 -1.0059 -1.7478 -0.8308
 6708TIP3    H241616   5.749   3.424   4.574 -0.9267 -1.8486 -0.9852
 6709TIP3   OH241617   5.071   5.141  15.407  0.6289 -0.1479 -0.3714
 6709TIP3    H141618   5.024   5.183  15.335  0.0304 -0.9949 -0.4784
 6709TIP3    H241619   5.152   5.110  15.367 -0.2866 -1.8152 -1.0318
 6710TIP3   OH241620   6.656   1.372   5.922 -0.4042 -0.3749  0.2845
 6710TIP3    H141621   6.567   1.344   5.903 -1.0947  2.1551 -0.6482
 6710TIP3    H241622   6.704   1.355   5.840 -0.2030 -1.0402  0.5352
 6711TIP3   OH241623   6.784   6.314  13.962 -0.2835 -0.1638 -0.2993
 6711TIP3    H141624   6.792   6.401  14.001  1.4210 -0.4461  0.0683
 6711TIP3    H241625   6.827   6.323  13.877 -0.6707 -0.4954 -0.5297
 6712TIP3   OH241626   0.360   1.451  12.995  0.1766 -0.4308  0.3759
 6712TIP3    H141627   0.334   1.366  12.960 -1.9013  0.4833 -0.5256
 6712TIP3    H241628   0.286   1.476  13.052  0.1645  1.2558 -0.3208
 6713TIP3   OH241629   0.674   5.808  12.978  0.5709 -0.2971  0.0279
 6713TIP3    H141630   0.584   5.783  12.995  0.6620 -1.2452 -0.8275
 6713TIP3    H241631   0.672   5.847  12.891  0.7866  0.8719  0.5156
 6714TIP3   OH241632   4.678   6.803   3.437 -0.3700  0.0513  0.3466
 6714TIP3    H141633   4.667   6.774   3.527 -0.6453 -0.0184  0.2899
 6714TIP3    H241634   4.642   6.892   3.436  0.4696  0.4057  0.5198
 6715TIP3   OH241635   4.172   4.937  11.121  0.3531  0.1407 -0.3863
 6715TIP3    H141636   4.158   5.021  11.165  2.0153 -0.4182  1.3345
 6715TIP3    H241637   4.086   4.914  11.086 -0.6827  1.4391  1.1378
 6716TIP3   OH241638   1.504   5.319  15.100 -0.3363  0.3254  0.0757
 6716TIP3    H141639   1.552   5.236  15.096 -1.5670 -0.5162  1.7817
 6716TIP3    H241640   1.505   5.351  15.009  2.1823 -0.3329 -0.1925
 6717TIP3   OH241641   2.365   6.809  11.582  0.0696 -0.0579  0.1919
 6717TIP3    H141642   2.305   6.807  11.508  0.8920  2.0168 -0.6260
 6717TIP3    H241643   2.318   6.860  11.649  1.1678  2.4559 -0.8164
 6718TIP3   OH241644   2.333   6.079  12.036 -0.3261  0.3935 -0.1767
 6718TIP3    H141645   2.285   6.129  12.102 -0.6598 -0.5107  0.2885
 6718TIP3    H241646   2.396   6.142  11.999 -0.3255  0.9949  0.8060
 6719TIP3   OH241647   6.562   4.573   4.714  0.5971 -0.3604  0.0088
 6719TIP3    H141648   6.595   4.500   4.767  0.1929 -0.9503 -0.5295
 6719TIP3    H241649   6.469   4.552   4.700  0.6403 -0.0955 -0.7225
 6720TIP3   OH241650   5.273   5.027  14.157 -0.1975 -0.2523 -0.6334
 6720TIP3    H141651   5.293   5.044  14.249  0.2328 -0.3712 -0.6981
 6720TIP3    H241652   5.332   5.086  14.109 -1.0494  0.4513 -0.8274
 6721TIP3   OH241653   2.328   2.234  15.607 -0.0002  0.5843 -0.7364
 6721TIP3    H141654   2.320   2.249  15.702 -1.2618  0.8220 -0.8553
 6721TIP3    H241655   2.259   2.289  15.569 -0.9016 -1.1176 -1.6315
 6722TIP3   OH241656   2.855   4.100   4.654  0.0122  0.2588 -0.0802
 6722TIP3    H141657   2.894   4.030   4.603 -0.7002 -1.6866  1.8618
 6722TIP3    H241658   2.763   4.075   4.663 -1.3448  3.5344 -2.6213
 6723TIP3   OH241659   0.568   1.256   1.927 -0.6240 -0.1429  0.4301
 6723TIP3    H141660   0.610   1.304   1.855  0.1483  0.0966  1.0325
 6723TIP3    H241661   0.534   1.325   1.985 -1.0655 -0.3357  0.4055
 6724TIP3   OH241662   2.687   0.289  14.649 -0.3291 -0.4160 -0.0171
 6724TIP3    H141663   2.647   0.217  14.600  1.2219 -0.3923 -1.4094
 6724TIP3    H241664   2.671   0.367  14.595 -1.1048  0.1435  0.9751
 6725TIP3   OH241665   1.723   1.229  15.333  0.3257 -0.3507 -1.0203
 6725TIP3    H141666   1.661   1.195  15.397 -0.1097 -0.0090 -1.2550
 6725TIP3    H241667   1.700   1.186  15.251  2.0540 -2.2212 -0.6175
 6726TIP3   OH241668   5.682   5.695   6.108 -0.2928  0.4470  0.6816
 6726TIP3    H141669   5.626   5.662   6.179  0.2803 -0.3580  0.7799
 6726TIP3    H241670   5.623   5.747   6.054 -0.9441  0.3419  1.2626
 6727TIP3   OH241671   5.060   2.129  11.625  0.5510 -0.5624  0.0234
 6727TIP3    H141672   5.145   2.116  11.667  0.3771 -2.0126 -0.0356
 6727TIP3    H241673   5.049   2.224  11.624  1.1508 -0.4135  2.0823
 6728TIP3   OH241674   1.087   4.590   2.222 -0.3388  0.4566  0.6393
 6728TIP3    H141675   0.996   4.585   2.253  0.3054  1.5648  2.9209
 6728TIP3    H241676   1.100   4.508   2.175 -2.8077  0.7149 -0.6766
 6729TIP3   OH241677   0.057   1.005  16.483 -0.5236  0.6506  0.2479
 6729TIP3    H141678   0.050   0.980  16.575 -1.5111  1.3906  0.3911
 6729TIP3    H241679   0.133   1.062  16.479 -0.4729  0.6103  0.5960
 6730TIP3   OH241680   3.315   2.797   1.594  0.6477  0.1167 -0.1081
 6730TIP3    H141681   3.283   2.711   1.568  0.7331 -0.7230  2.2601
 6730TIP3    H241682   3.411   2.788   1.596  0.6309 -0.0280  0.8991
 6731TIP3   OH241683   6.560   4.852  14.858  0.6273 -0.3842 -0.4486
 6731TIP3    H141684   6.504   4.913  14.809 -0.7207  0.5415  2.0751
 6731TIP3    H241685   6.512   4.769  14.854 -0.6066  0.2117  1.0279
 6732TIP3   OH241686   2.236   0.244   5.702  0.2828 -0.3255  0.1158
 6732TIP3    H141687   2.192   0.176   5.753 -0.4841 -0.6574 -0.9660
 6732TIP3    H241688   2.240   0.210   5.613  0.6760  0.6759 -0.2712
 6733TIP3   OH241689   2.106   4.655  13.938 -1.2662  0.0403 -0.2565
 6733TIP3    H141690   2.161   4.724  13.902  1.0481 -0.5508  1.8313
 6733TIP3    H241691   2.021   4.696  13.953 -0.7089  1.6841 -1.3633
 6734TIP3   OH241692   0.043   6.257   4.880 -0.5269  0.7574  0.3309
 6734TIP3    H141693   0.022   6.326   4.944  1.2572 -0.3612  2.2432
 6734TIP3    H241694  -0.038   6.246   4.830 -0.4748  5.3179 -1.2268
 6735TIP3   OH241695   4.179   2.209  15.579 -0.5103 -0.0972  0.0379
 6735TIP3    H141696   4.132   2.285  15.611  0.0631  0.6111 -0.7468
 6735TIP3    H241697   4.174   2.145  15.650 -4.3664 -0.8651 -0.7098
 6736TIP3   OH241698   3.039   6.122   1.039  0.1117  0.3491  0.5554
 6736TIP3    H141699   3.097   6.106   1.113  2.3613 -1.3147 -1.3969
 6736TIP3    H241700   3.053   6.214   1.015  1.6694  0.0935  0.4035
 6737TIP3   OH241701   1.257   5.326   4.394  0.8677  0.0100  0.1942
 6737TIP3    H141702   1.238   5.285   4.479 -0.7562 -0.7371 -0.4877
 6737TIP3    H241703   1.277   5.253   4.336  1.4886  0.4831 -0.2051
 6738TIP3   OH241704   1.325   5.466  13.214 -0.5275  0.3546  0.2676
 6738TIP3    H141705   1.298   5.538  13.271 -1.7309 -0.9373  1.3843
 6738TIP3    H241706   1.248   5.410  13.207  0.9175 -1.8676  1.0643
 6739TIP3   OH241707   3.875   0.589   3.533  0.4850 -0.3975  0.0738
 6739TIP3    H141708   3.851   0.659   3.594 -0.3862 -0.4359 -0.1993
 6739TIP3    H241709   3.916   0.522   3.588  1.1483  0.2370  0.3673
 6740TIP3   OH241710   0.949   3.683  13.363  0.2196 -0.4059 -0.3774
 6740TIP3    H141711   1.043   3.697  13.375  0.0610 -0.1534  0.6948
 6740TIP3    H241712   0.913   3.691  13.451 -0.9805  0.7617 -0.9455
 6741TIP3   OH241713   2.424   4.077  15.584 -0.2115 -0.6850  0.1208
 6741TIP3    H141714   2.360   4.137  15.545 -0.3809 -0.1225  1.2223
 6741TIP3    H241715   2.380   3.992  15.586 -0.0981 -0.7951 -1.1294
 6742TIP3   OH241716   4.850   2.221  14.540  0.1918  0.1530  0.7794
 6742TIP3    H141717   4.843   2.317  14.538 -1.0911  0.0778 -1.0927
 6742TIP3    H241718   4.769   2.192  14.582  0.3605 -0.1289  0.9107
 6743TIP3   OH241719   3.984   1.773   5.921 -0.2499 -0.8834  0.0114
 6743TIP3    H141720   3.928   1.701   5.892  1.1653 -2.2325  0.4591
 6743TIP3    H241721   3.990   1.762   6.016  2.1613 -1.8942 -0.1943
 6744TIP3   OH241722   6.337   5.875   4.735  0.3205  0.0441  0.4042
 6744TIP3    H141723   6.253   5.844   4.771  0.2318  1.2510  1.3142
 6744TIP3    H241724   6.353   5.819   4.660 -0.6316 -1.0996  1.0185
 6745TIP3   OH241725   6.708   6.479  15.349  0.2094 -0.1605  0.1377
 6745TIP3    H141726   6.691   6.493  15.442 -1.4154 -1.4271  0.0825
 6745TIP3    H241727   6.803   6.470  15.342  0.4323  0.8040  1.5230
 6746TIP3   OH241728   5.596   0.949   0.803  0.5618  0.3064  0.5117
 6746TIP3    H141729   5.684   0.922   0.776  0.3181 -0.7426  0.6912
 6746TIP3    H241730   5.544   0.869   0.795 -0.6513  1.1778 -0.6839
 6747TIP3   OH241731   3.388   4.212   6.740 -0.2489  0.4764 -0.2605
 6747TIP3    H141732   3.377   4.135   6.796 -0.2073  0.8324  0.2388
 6747TIP3    H241733   3.336   4.192   6.662 -0.7784  0.2255  0.1513
 6748TIP3   OH241734   4.083   2.202  12.921 -0.3809 -0.0290  0.2048
 6748TIP3    H141735   4.074   2.245  12.836 -1.4415 -1.2977 -0.3516
 6748TIP3    H241736   3.994   2.176  12.946  0.2303 -2.2434  0.3037
 6749TIP3   OH241737   1.375   2.648   1.099 -0.0033 -0.3084  0.3339
 6749TIP3    H141738   1.398   2.626   1.190  0.6052  0.4221  0.3647
 6749TIP3    H241739   1.424   2.729   1.081 -0.9319  0.1321 -0.2978
 6750TIP3   OH241740   1.425   0.887  12.626 -0.3362  0.4720  0.0777
 6750TIP3    H141741   1.459   0.956  12.570 -0.1551  0.6890  0.4468
 6750TIP3    H241742   1.457   0.806  12.587 -1.2561  0.5311 -0.8456
 6751TIP3   OH241743   1.939   6.810   1.312  0.9638 -0.4739 -0.1216
 6751TIP3    H141744   1.968   6.728   1.272 -1.1336 -1.7328  0.7871
 6751TIP3    H241745   1.907   6.785   1.398 -1.0778  1.0284 -0.3527
 6752TIP3   OH241746   1.088   1.857  14.007  0.2625  0.0628  0.6055
 6752TIP3    H141747   1.174   1.840  13.969 -1.0358 -3.8713 -1.0568
 6752TIP3    H241748   1.029   1.860  13.931 -1.1597  2.7084  1.6880
 6753TIP3   OH241749   5.520   5.346   2.471 -0.2266  0.5573  0.1779
 6753TIP3    H141750   5.503   5.424   2.523 -1.3313  0.1736  0.4063
 6753TIP3    H241751   5.475   5.363   2.388 -2.7458 -0.8932  1.1551
 6754TIP3   OH241752   0.773   6.808   2.059  0.0347  0.8837  0.0704
 6754TIP3    H141753   0.795   6.744   2.127 -2.5735 -1.1023 -0.7771
 6754TIP3    H241754   0.801   6.892   2.095  2.3211 -0.5117  1.8611
 6755TIP3   OH241755   3.672   1.209  13.816  0.0038  0.0288 -0.2670
 6755TIP3    H141756   3.705   1.297  13.830 -1.0851  0.4861 -0.4963
 6755TIP3    H241757   3.700   1.160  13.893  0.0039  0.7493  0.1899
 6756TIP3   OH241758   4.432   5.372  14.891  0.1842 -0.2564 -0.1458
 6756TIP3    H141759   4.381   5.439  14.938  0.9647  0.8419 -0.8068
 6756TIP3    H241760   4.403   5.289  14.928  0.6287  0.5387  2.1687
 6757TIP3   OH241761   0.689   4.813   5.491 -0.2632  0.1787 -0.5011
 6757TIP3    H141762   0.783   4.830   5.487 -0.4248  1.6336  1.0085
 6757TIP3    H241763   0.658   4.831   5.402  0.8522 -0.2325 -0.9964
 6758TIP3   OH241764   5.742   4.160   4.732 -0.5823 -0.1276 -0.0343
 6758TIP3    H141765   5.779   4.189   4.649  1.8138 -0.4974  0.8247
 6758TIP3    H241766   5.705   4.074   4.712  0.6513 -0.5614 -0.6058
 6759TIP3   OH241767   1.956   3.191   2.055  0.0923  0.5113  0.3047
 6759TIP3    H141768   1.903   3.270   2.045 -0.4129  0.3906  1.7661
 6759TIP3    H241769   1.991   3.197   2.144  3.0700  0.8915 -0.7758
 6760TIP3   OH241770   6.308   4.997  16.800 -0.1615 -0.0737 -0.7599
 6760TIP3    H141771   6.356   4.917  16.777  1.0682  0.4084  0.0314
 6760TIP3    H241772   6.219   4.967  16.820  0.3128 -1.2682 -0.3551
 6761TIP3   OH241773   3.622   1.917   2.361  0.0832  0.0545 -0.3849
 6761TIP3    H141774   3.654   2.007   2.372  0.3874  0.0121 -0.9283
 6761TIP3    H241775   3.581   1.915   2.275 -0.6385 -0.1208 -0.0453
 6762TIP3   OH241776   5.401   0.636   3.254 -0.1969  0.1491 -0.4542
 6762TIP3    H141777   5.430   0.723   3.228  0.6275  0.2444  0.7132
 6762TIP3    H241778   5.310   0.631   3.223 -0.8246  2.0808  0.9010
 6763TIP3   OH241779   0.967   4.162  14.124 -0.7893 -0.3389 -0.1238
 6763TIP3    H141780   0.916   4.108  14.063 -1.0430 -0.2683  0.0255
 6763TIP3    H241781   0.962   4.251  14.088 -1.8087 -0.1095  0.5558
 6764TIP3   OH241782   5.921   6.315  16.524  0.0562 -0.5908  0.5262
 6764TIP3    H141783   5.917   6.275  16.437 -0.2173 -1.8356  1.0756
 6764TIP3    H241784   6.012   6.305  16.551  0.4593  1.0510 -0.1556
 6765TIP3   OH241785   0.571   5.000  12.622 -0.0161 -0.0081  0.3138
 6765TIP3    H141786   0.640   5.042  12.570  0.3689 -0.9110  0.0805
 6765TIP3    H241787   0.533   5.072  12.673  0.3522  0.6963 -0.3730
 6766TIP3   OH241788   5.100   4.717  14.953  0.5668 -0.6602  0.1382
 6766TIP3    H141789   5.124   4.644  14.896 -0.0708 -0.0040 -1.0120
 6766TIP3    H241790   5.036   4.680  15.013 -0.9489 -0.7322 -1.4362
 6767TIP3   OH241791   5.344   1.179   6.121 -0.5138 -0.3536  0.0907
 6767TIP3    H141792   5.298   1.112   6.171  1.8942 -1.8650  0.4517
 6767TIP3    H241793   5.436   1.168   6.146  0.0265  3.0464  0.0814
 6768TIP3   OH241794   2.988   5.164   0.734 -0.1533  0.7733 -0.3391
 6768TIP3    H141795   2.984   5.260   0.731  1.1034  0.8278 -0.5754
 6768TIP3    H241796   3.000   5.138   0.643  1.6882  0.5159 -0.0453
 6769TIP3   OH241797   3.893   2.952   0.391 -0.7595 -0.2618  0.1834
 6769TIP3    H141798   3.897   2.925   0.482 -0.0251  0.1334  0.2705
 6769TIP3    H241799   3.956   2.896   0.346 -0.1031  0.4688  0.1643
 6770TIP3   OH241800   1.855   3.571  12.307  0.2571 -0.3361 -0.1013
 6770TIP3    H141801   1.772   3.608  12.337  0.8691  1.1653 -0.1788
 6770TIP3    H241802   1.853   3.582  12.212  1.1278  1.0653  0.0074
 6771TIP3   OH241803   0.379   2.486   1.158 -0.4899  0.1340  0.0784
 6771TIP3    H141804   0.386   2.579   1.179  1.0882 -0.0682  0.5464
 6771TIP3    H241805   0.338   2.447   1.236  1.2545  0.0706  1.0174
 6772TIP3   OH241806   5.588   2.323   0.090 -0.1154 -0.2104 -0.3739
 6772TIP3    H141807   5.514   2.310   0.031  0.4598  0.8696 -1.3891
 6772TIP3    H241808   5.620   2.411   0.068 -1.4623  1.3973  3.3528
 6773TIP3   OH241809   6.343   4.227   1.001 -0.0096  0.1896 -0.5151
 6773TIP3    H141810   6.299   4.312   1.001  0.6684  0.5419 -0.5225
 6773TIP3    H241811   6.344   4.201   1.094  0.9019  0.7789 -0.3497
 6774TIP3   OH241812   3.218   5.753  16.710 -0.1071  0.4601  0.1272
 6774TIP3    H141813   3.166   5.720  16.636  2.3484 -0.9651 -1.1270
 6774TIP3    H241814   3.166   5.823  16.747 -2.1267  0.2461 -2.0657
 6775TIP3   OH241815   1.929   4.413  15.230 -0.1258 -1.0086 -0.6502
 6775TIP3    H141816   1.855   4.455  15.185  1.0552  0.4277 -1.3314
 6775TIP3    H241817   1.891   4.380  15.311 -1.5919 -0.5989 -1.1305
 6776TIP3   OH241818   5.902   2.054   5.967 -0.1489 -0.8096  0.0143
 6776TIP3    H141819   5.964   2.049   6.039 -2.1372  0.6629  1.9636
 6776TIP3    H241820   5.938   2.119   5.907  0.6623 -0.7190  0.5938
 6777TIP3   OH241821   2.506   0.470   0.781 -0.2711 -0.1784  0.3646
 6777TIP3    H141822   2.544   0.554   0.807 -0.6152  0.0037  0.2749
 6777TIP3    H241823   2.567   0.405   0.816  0.0701  0.1094  0.3154
 6778TIP3   OH241824   5.891   2.114  15.083 -0.0226 -1.0065  0.0420
 6778TIP3    H141825   5.812   2.100  15.030  0.4641 -0.5946 -0.8006
 6778TIP3    H241826   5.932   2.028  15.089  0.7663 -0.7720 -1.6189
 6779TIP3   OH241827   2.808   2.822  11.683 -0.8329  0.1192  0.1827
 6779TIP3    H141828   2.767   2.902  11.717  1.5275  1.4885 -0.0104
 6779TIP3    H241829   2.878   2.802  11.745  1.0438  0.4206 -1.7353
 6780TIP3   OH241830   5.167   3.203  14.054  0.2927  0.0805  0.1604
 6780TIP3    H141831   5.233   3.209  13.985 -1.0324 -2.7765 -1.5213
 6780TIP3    H241832   5.216   3.176  14.132  1.4614  0.7572 -0.3180
 6781TIP3   OH241833   4.551   0.792   3.579  0.6120 -0.1822 -0.4712
 6781TIP3    H141834   4.637   0.764   3.548 -0.5147 -1.4445 -2.7321
 6781TIP3    H241835   4.520   0.720   3.633  0.9458  0.2619  0.3232
 6782TIP3   OH241836   2.447   5.878  16.803  0.1009 -0.5557  0.0493
 6782TIP3    H141837   2.397   5.843  16.877  1.8764 -2.1869  0.5481
 6782TIP3    H241838   2.412   5.967  16.790 -0.7816 -0.5080  2.3324
 6783TIP3   OH241839   0.727   5.965   5.472  0.3863  0.5782 -0.2646
 6783TIP3    H141840   0.697   6.055   5.462 -1.0832  0.1660  0.2824
 6783TIP3    H241841   0.696   5.938   5.558  0.4703 -0.5845 -0.5809
 6784TIP3   OH241842   2.134   1.070   4.836  0.3361 -0.5948  0.7008
 6784TIP3    H141843   2.213   1.119   4.815 -0.9742  1.6441  0.6966
 6784TIP3    H241844   2.086   1.065   4.753 -0.8753  0.7152  1.2781
 6785TIP3   OH241845   1.020   3.175  16.685  0.2589  0.5917  0.0753
 6785TIP3    H141846   0.929   3.199  16.670  0.3739  1.6855  1.0300
 6785TIP3    H241847   1.052   3.150  16.598 -1.8088 -3.1355  0.1701
 6786TIP3   OH241848   6.289   6.446   3.124 -0.2250  0.4686 -0.0457
 6786TIP3    H141849   6.262   6.448   3.032 -1.8969  1.2789  0.4232
 6786TIP3    H241850   6.302   6.353   3.143 -0.0802  0.2804 -1.0386
 6787TIP3   OH241851   1.753   0.978   4.345  0.4670 -0.5272  0.3833
 6787TIP3    H141852   1.828   1.013   4.392  0.6145 -0.4203  0.0723
 6787TIP3    H241853   1.677   1.010   4.393  0.5890  0.5570 -0.1188
 6788TIP3   OH241854   1.974   6.266   4.462  0.1262 -0.3329 -0.0325
 6788TIP3    H141855   1.939   6.204   4.399  1.1477 -1.2092  0.2340
 6788TIP3    H241856   1.897   6.306   4.502 -0.5818 -2.2019  0.5571
 6789TIP3   OH241857   6.532   0.802   1.222  0.1430  0.3781  0.5837
 6789TIP3    H141858   6.474   0.761   1.158 -0.0496 -0.6115  1.3565
 6789TIP3    H241859   6.502   0.892   1.229  1.4335  1.1099 -2.1941
 6790TIP3   OH241860   2.558   0.871  10.730  0.0067 -0.1019  1.1033
 6790TIP3    H141861   2.568   0.966  10.739  0.4430 -0.1937  1.6406
 6790TIP3    H241862   2.548   0.839  10.820 -0.1811 -0.5635  0.9242
 6791TIP3   OH241863   0.466   4.515  16.771 -0.5297 -0.4868  0.3484
 6791TIP3    H141864   0.487   4.479  16.857 -1.4248  0.1615  0.8507
 6791TIP3    H241865   0.537   4.577  16.753 -0.3947 -0.5459  0.6734
 6792TIP3   OH241866   5.465   2.281  13.313 -0.5520  0.1675  0.0722
 6792TIP3    H141867   5.482   2.202  13.262  0.5981  0.0723  0.5636
 6792TIP3    H241868   5.392   2.323  13.269 -0.3592 -0.5300 -0.9415
 6793TIP3   OH241869   2.048   2.489   0.292  0.0468 -0.4051  0.0100
 6793TIP3    H141870   2.002   2.567   0.262  1.6752  1.1931  1.4312
 6793TIP3    H241871   2.128   2.486   0.240 -0.6790 -2.0694 -1.1091
 6794TIP3   OH241872   3.466   0.978   2.282  0.0717  0.3620  0.5767
 6794TIP3    H141873   3.414   0.898   2.286 -2.2691  1.7115 -0.7156
 6794TIP3    H241874   3.521   0.968   2.205 -1.4717  0.6291 -0.6142
 6795TIP3   OH241875   3.340   5.263  13.737  0.5442 -0.2741 -0.0036
 6795TIP3    H141876   3.311   5.328  13.673  3.0183 -0.5524 -1.5508
 6795TIP3    H241877   3.333   5.179  13.690  0.3993 -0.7438  0.8471
 6796TIP3   OH241878   0.784   1.387   0.576  0.6163  0.3939  0.1457
 6796TIP3    H141879   0.801   1.400   0.482 -0.2307 -0.7763 -0.2041
 6796TIP3    H241880   0.867   1.354   0.611  0.6389 -0.2014 -0.4355
 6797TIP3   OH241881   6.619   4.605  15.917 -0.2632  0.2360 -0.3549
 6797TIP3    H141882   6.688   4.667  15.941 -0.3800 -0.5903  2.3644
 6797TIP3    H241883   6.666   4.527  15.888 -0.0396  0.1140  0.3132
 6798TIP3   OH241884   6.296   0.145  14.661  0.1386  0.0792  0.3981
 6798TIP3    H141885   6.250   0.066  14.689  0.0845  0.4015  1.2487
 6798TIP3    H241886   6.307   0.196  14.741  1.5538  0.2372  0.1173
 6799TIP3   OH241887   0.807   3.627   3.067  0.2379 -0.2975  0.7307
 6799TIP3    H141888   0.855   3.563   3.014  1.4750  1.4017 -0.3000
 6799TIP3    H241889   0.818   3.596   3.157  2.4820 -0.5329  0.4436
 6800TIP3   OH241890   1.436   3.547  16.664  0.0947  0.4898  0.0865
 6800TIP3    H141891   1.492   3.625  16.664 -0.0870  0.6656  1.7946
 6800TIP3    H241892   1.471   3.493  16.735  0.5381 -1.2649 -1.3796
 6801TIP3   OH241893   6.216   0.134   5.247  0.2582 -0.4157 -0.6652
 6801TIP3    H141894   6.121   0.141   5.238  0.4990  1.7709 -2.1973
 6801TIP3    H241895   6.244   0.088   5.168  0.3875 -2.7937  0.6676
 6802TIP3   OH241896   0.249   5.259   3.465  0.3010  0.1913  0.5788
 6802TIP3    H141897   0.193   5.302   3.401 -0.0892 -0.2563  0.6188
 6802TIP3    H241898   0.226   5.167   3.459 -0.5072  0.2640  2.1204
 6803TIP3   OH241899   6.236   6.075  12.289 -0.8818  0.2159 -0.3996
 6803TIP3    H141900   6.269   6.050  12.203  2.5234 -2.7806  1.4450
 6803TIP3    H241901   6.284   6.154  12.311 -0.9245  0.3624 -0.8350
 6804TIP3   OH241902   6.179   0.956   2.462  0.3377 -0.1184 -0.0551
 6804TIP3    H141903   6.107   0.900   2.431 -1.1713  1.5371  0.3348
 6804TIP3    H241904   6.143   1.002   2.537  2.1077  0.1463  0.6674
 6805TIP3   OH241905   1.889   4.149   5.495 -0.0113  0.4252  0.0008
 6805TIP3    H141906   1.908   4.135   5.402  0.1304 -2.2776  0.3423
 6805TIP3    H241907   1.966   4.115   5.541 -0.5315  0.7292  1.1455
 6806TIP3   OH241908   1.055   2.291   0.581  0.1291 -0.1783 -0.5650
 6806TIP3    H141909   1.085   2.200   0.573  0.6081  0.1127 -2.9953
 6806TIP3    H241910   0.960   2.285   0.571 -0.1823 -0.6108  2.0279
 6807TIP3   OH241911   4.269   3.700   2.248  0.7782 -0.0131 -0.2602
 6807TIP3    H141912   4.220   3.774   2.283 -0.4537 -0.7351 -0.3915
 6807TIP3    H241913   4.297   3.651   2.325 -0.5385 -0.7305 -0.2209
 6808TIP3   OH241914   2.944   3.953  12.083  0.2067 -0.8987 -0.2123
 6808TIP3    H141915   3.034   3.921  12.078  0.0671 -1.2812 -0.3155
 6808TIP3    H241916   2.952   4.041  12.119  0.6591 -0.7582 -0.6381
 6809TIP3   OH241917   4.966   2.673   3.137 -0.5484  0.4161 -0.4707
 6809TIP3    H141918   4.967   2.577   3.135  1.9288  0.3649 -0.4049
 6809TIP3    H241919   4.940   2.698   3.048 -1.1988 -0.3094 -0.4957
 6810TIP3   OH241920   0.692   3.115  16.078  0.4107 -0.4142 -0.1005
 6810TIP3    H141921   0.781   3.134  16.105 -0.3130  0.0321  2.1337
 6810TIP3    H241922   0.674   3.178  16.008  1.4057  0.3546  0.3263
 6811TIP3   OH241923   6.809   0.488  12.804  0.1137  0.0905 -0.0731
 6811TIP3    H141924   6.779   0.433  12.732 -1.2173  0.2286  0.3479
 6811TIP3    H241925   6.868   0.552  12.764  1.0763 -1.1424 -0.6845
 6812TIP3   OH241926   0.586   6.369  12.057 -0.0598  0.1248  0.3682
 6812TIP3    H141927   0.674   6.393  12.088 -0.1984 -0.2166  1.0406
 6812TIP3    H241928   0.598   6.286  12.011 -0.1807 -0.4206  1.3068
 6813TIP3   OH241929   2.397   2.810  16.867 -0.3318 -0.0324  0.1655
 6813TIP3    H141930   2.344   2.818  16.946  0.3903  0.0335  0.6465
 6813TIP3    H241931   2.411   2.716  16.857 -1.0662 -0.0976 -0.3228
 6814TIP3   OH241932   6.077   1.799  15.436 -0.0628  0.5534  0.3347
 6814TIP3    H141933   6.124   1.802  15.519 -0.7945  0.6180  0.7591
 6814TIP3    H241934   6.046   1.888  15.422 -1.7659  0.1133  1.0871
 6815TIP3   OH241935   2.607   3.306  14.520  0.0559  0.0605 -0.4144
 6815TIP3    H141936   2.594   3.309  14.426 -0.4569 -0.3943 -0.3621
 6815TIP3    H241937   2.554   3.378  14.554  0.7485  0.6302 -0.5215
 6816TIP3   OH241938   3.602   2.998  13.196 -0.6069 -0.2217 -0.2803
 6816TIP3    H141939   3.685   2.958  13.221 -0.7726 -1.7803 -2.0763
 6816TIP3    H241940   3.626   3.087  13.169 -0.1419  0.8102  2.9945
 6817TIP3   OH241941   5.218   4.276   4.036  0.0240  0.0323  0.2658
 6817TIP3    H141942   5.237   4.353   4.090  0.5179 -0.2357  0.4825
 6817TIP3    H241943   5.148   4.230   4.082  0.0274  0.1237  0.3621
 6818TIP3   OH241944   3.585   0.318  12.916 -0.0494  0.2859 -0.4492
 6818TIP3    H141945   3.579   0.409  12.946  1.2235  0.0366  0.6361
 6818TIP3    H241946   3.607   0.268  12.995 -2.5261 -1.2497 -0.6298
 6819TIP3   OH241947   4.878   2.541   0.784 -0.2890  0.0961  0.5256
 6819TIP3    H141948   4.857   2.469   0.843  0.2784  1.6031  2.7128
 6819TIP3    H241949   4.845   2.513   0.699 -1.5135 -2.0400  1.6159
 6820TIP3   OH241950   0.612   5.706   4.710 -0.5676 -0.5507  0.3970
 6820TIP3    H141951   0.607   5.613   4.688 -0.1310 -0.8178  1.3789
 6820TIP3    H241952   0.658   5.746   4.636 -0.9795 -1.0685 -0.1497
 6821TIP3   OH241953   5.442   0.820  16.092  0.1617 -0.1916  0.0752
 6821TIP3    H141954   5.401   0.901  16.059 -0.4295 -0.5742 -0.1471
 6821TIP3    H241955   5.465   0.840  16.182 -0.6745 -0.0051  0.2643
 6822TIP3   OH241956   6.743   4.612   0.640  0.3739 -0.3400 -0.3735
 6822TIP3    H141957   6.751   4.682   0.705 -0.7863 -0.5108 -0.0279
 6822TIP3    H241958   6.834   4.590   0.618  0.7703  0.4130  0.4365
 6823TIP3   OH241959   0.679   4.173   0.325 -0.1348 -0.6088  0.1467
 6823TIP3    H141960   0.715   4.208   0.243  1.3788  2.8653  2.0742
 6823TIP3    H241961   0.624   4.244   0.358  0.9878 -0.9847  3.1153
 6824TIP3   OH241962   1.472   6.356   3.617  0.0963  0.2964  0.4930
 6824TIP3    H141963   1.524   6.436   3.612  1.8318 -0.7412  1.1790
 6824TIP3    H241964   1.420   6.366   3.696  1.5822  0.0637  1.5449
 6825TIP3   OH241965   5.443   6.232   5.606  0.6409 -0.0338  0.9011
 6825TIP3    H141966   5.535   6.249   5.622  0.8565  0.7690 -0.9661
 6825TIP3    H241967   5.434   6.230   5.511 -1.0411 -1.4313  1.0323
 6826TIP3   OH241968   1.061   3.528  15.401 -1.1975 -0.4783  0.0600
 6826TIP3    H141969   1.095   3.591  15.337 -0.2888 -0.6161  0.3851
 6826TIP3    H241970   1.043   3.449  15.349 -0.7172 -0.5012 -0.0822
 6827TIP3   OH241971   3.004   6.773  16.704  0.1442  0.0673 -0.0962
 6827TIP3    H141972   2.963   6.689  16.687 -0.9700  0.7555 -0.9387
 6827TIP3    H241973   3.042   6.799  16.620 -1.6398  1.4960 -0.5353
 6828TIP3   OH241974   4.707   5.310  16.440 -0.3404  0.2805  0.6103
 6828TIP3    H141975   4.778   5.252  16.412  0.9520  1.4888  1.2510
 6828TIP3    H241976   4.683   5.278  16.526 -1.7268 -1.1196 -0.2491
 6829TIP3   OH241977   3.881   1.516  15.180  0.0078 -0.5878  0.6248
 6829TIP3    H141978   3.975   1.522  15.163 -0.0257 -1.6178 -0.0244
 6829TIP3    H241979   3.870   1.433  15.226 -0.4490  0.1376  1.8784
 6830TIP3   OH241980   6.009   1.411   5.213  0.8765  0.3663 -0.0989
 6830TIP3    H141981   6.034   1.418   5.305  0.9446  0.0508 -0.0933
 6830TIP3    H241982   5.928   1.462   5.206  0.9818  0.5577  0.0924
 6831TIP3   OH241983   6.632   5.192   5.270  0.1596  0.8223  0.1080
 6831TIP3    H141984   6.712   5.176   5.221 -0.3954  0.5194 -0.7232
 6831TIP3    H241985   6.561   5.180   5.206 -0.6860 -1.1197  1.2977
 6832TIP3   OH241986   5.406   4.882  14.835 -0.0758  0.0545 -0.0501
 6832TIP3    H141987   5.312   4.896  14.821 -0.3855 -1.2379  0.6328
 6832TIP3    H241988   5.422   4.791  14.809  1.2350  0.5742 -1.2416
 6833TIP3   OH241989   6.435   1.461   6.816  0.1994 -0.6116 -0.2493
 6833TIP3    H141990   6.529   1.465   6.835  0.2909 -0.9384 -0.6269
 6833TIP3    H241991   6.402   1.393   6.874 -0.0101  0.2680  0.6956
 6834TIP3   OH241992   5.282   2.288   0.905  0.4749  0.0331 -0.1607
 6834TIP3    H141993   5.198   2.244   0.894  0.9784 -1.3347  1.1158
 6834TIP3    H241994   5.345   2.218   0.920  2.1442  0.9272 -2.3909
 6835TIP3   OH241995   0.492   4.419   4.817  0.0813 -0.0177 -0.1098
 6835TIP3    H141996   0.535   4.353   4.870 -1.1388 -0.5350  0.2803
 6835TIP3    H241997   0.399   4.396   4.821 -0.4585  2.0225  0.5010
 6836TIP3   OH241998   4.098   4.819  14.352 -0.3115 -0.2934 -0.0849
 6836TIP3    H141999   4.167   4.825  14.286 -0.9399  1.4768 -0.6252
 6836TIP3    H242000   4.085   4.909  14.381 -2.6675 -0.5125 -0.2819
 6837TIP3   OH242001   3.723   4.726   0.058 -0.3899 -0.2233 -0.2437
 6837TIP3    H142002   3.740   4.671   0.134  1.5332  0.4467 -0.1476
 6837TIP3    H242003   3.721   4.815   0.093 -0.3190  0.0279 -0.8723
 6838TIP3   OH242004   4.263   0.623  12.370 -0.4246  0.2804  0.6724
 6838TIP3    H142005   4.342   0.572  12.352 -1.4321 -0.8524 -0.7718
 6838TIP3    H242006   4.272   0.701  12.316 -0.9635 -0.5702 -0.6823
 6839TIP3   OH242007   5.780   1.597   3.440 -0.5378 -0.0715 -0.0394
 6839TIP3    H142008   5.847   1.663   3.417 -1.3208  0.9525  0.5188
 6839TIP3    H242009   5.798   1.578   3.532 -1.7336  1.1331  0.4785
 6840TIP3   OH242010   6.200   5.468   4.213 -0.3547  0.6888 -0.1168
 6840TIP3    H142011   6.109   5.477   4.186 -0.5740 -0.5997  0.0950
 6840TIP3    H242012   6.208   5.376   4.238  0.8971  0.8846  0.2776
 6841TIP3   OH242013   0.096   6.133   5.258  0.3281 -0.8539  0.8374
 6841TIP3    H142014   0.112   6.055   5.311  1.6395 -1.2435 -0.0612
 6841TIP3    H242015   0.124   6.108   5.170  0.3636  0.4970  0.4412
 6842TIP3   OH242016   6.238   6.602   3.515 -0.3516  0.2093  0.0262
 6842TIP3    H142017   6.217   6.552   3.595  2.8112 -0.1733  0.7317
 6842TIP3    H242018   6.171   6.575   3.452 -0.7946 -2.3307  1.4373
 6843TIP3   OH242019   6.320   0.665  14.091  0.1732  0.0884 -0.1288
 6843TIP3    H142020   6.284   0.620  14.167 -0.9418 -1.3489 -1.4407
 6843TIP3    H242021   6.295   0.757  14.103  0.0791 -0.1057  1.2564
 6844TIP3   OH242022   1.177   5.286  16.274  0.5319 -0.3273 -0.2240
 6844TIP3    H142023   1.185   5.211  16.333  2.7086 -1.5128 -1.8933
 6844TIP3    H242024   1.222   5.357  16.320 -0.6881 -0.2691  0.9380
 6845TIP3   OH242025   5.717   6.149   5.031  0.2425 -0.3141 -0.1956
 6845TIP3    H142026   5.698   6.099   5.110  1.6455 -0.3136  0.1586
 6845TIP3    H242027   5.805   6.184   5.044  0.4387 -0.1721 -1.6752
 6846TIP3   OH242028   3.987   4.657  11.371 -0.0334 -0.0134  0.4623
 6846TIP3    H142029   4.082   4.661  11.386 -0.2441  1.5440  1.6253
 6846TIP3    H242030   3.979   4.632  11.279  1.5235  0.5130  0.1410
 6847TIP3   OH242031   0.078   0.634   4.680 -0.0487 -0.1966 -0.8526
 6847TIP3    H142032   0.080   0.684   4.598 -0.3081  1.2533 -0.0185
 6847TIP3    H242033   0.039   0.695   4.743  2.2497 -0.4389  0.8931
 6848TIP3   OH242034   4.796   6.409  13.900 -0.5812  0.0353 -0.2540
 6848TIP3    H142035   4.834   6.394  13.814  0.0146 -1.6624  0.2693
 6848TIP3    H242036   4.829   6.338  13.954 -0.3861  1.4532  1.5840
 6849TIP3   OH242037   3.437   6.056   1.110 -0.1830  0.5387  0.2887
 6849TIP3    H142038   3.457   6.115   1.037  0.2533  1.1505  0.8905
 6849TIP3    H242039   3.375   6.105   1.164 -0.7887 -0.0585  0.1423
 6850TIP3   OH242040   0.321   5.616   4.517 -0.0320  0.1080 -0.5456
 6850TIP3    H142041   0.398   5.589   4.467 -1.2073 -1.7396 -1.4452
 6850TIP3    H242042   0.304   5.705   4.488  1.6584  0.4989 -0.4429
 6851TIP3   OH242043   1.102   5.710  13.889  0.5436  0.0089 -0.1811
 6851TIP3    H142044   1.171   5.703  13.955 -0.7079  0.2005  1.2083
 6851TIP3    H242045   1.060   5.624  13.890  0.6721 -0.0659 -0.9183
 6852TIP3   OH242046   6.066   5.020   4.147  0.5701  0.4136  0.5643
 6852TIP3    H142047   6.058   5.088   4.081 -0.3325  0.0329  0.2659
 6852TIP3    H242048   6.135   5.051   4.206  1.9246  0.3934 -0.9679
 6853TIP3   OH242049   2.472   0.841  15.041  0.6779  0.6957  0.9144
 6853TIP3    H142050   2.402   0.905  15.027  0.3262 -0.0065 -0.7721
 6853TIP3    H242051   2.431   0.770  15.090  1.1789  1.8990  3.1813
 6854TIP3   OH242052   1.673   3.619   6.385  0.7137  0.0244  0.6224
 6854TIP3    H142053   1.694   3.707   6.416  0.1730  0.8509 -1.2388
 6854TIP3    H242054   1.733   3.604   6.312 -1.5493  0.3703 -1.4329
 6855TIP3   OH242055   2.954   3.751   1.148  1.0143  0.0114 -0.9734
 6855TIP3    H142056   2.945   3.843   1.122  2.5409  0.7583  0.9328
 6855TIP3    H242057   3.045   3.729   1.128  0.8586 -0.8690 -0.7533
 6856TIP3   OH242058   4.873   6.524   2.009  0.4379  0.4223 -0.3974
 6856TIP3    H142059   4.857   6.468   1.932 -1.5596 -0.3260  0.4792
 6856TIP3    H242060   4.802   6.589   2.006  0.7531  0.8249  0.4432
 6857TIP3   OH242061   2.293   3.267  11.234  0.0724 -0.1835 -0.2318
 6857TIP3    H142062   2.321   3.359  11.243 -0.5961 -0.0992  1.4926
 6857TIP3    H242063   2.199   3.273  11.217 -0.2534 -0.5206  1.2618
 6858TIP3   OH242064   1.268   4.903   6.655  0.2457 -0.3189  0.1445
 6858TIP3    H142065   1.226   4.942   6.731  1.9364  0.2221  0.8455
 6858TIP3    H242066   1.286   4.977   6.597 -0.2576 -0.6194 -0.4026
 6859TIP3   OH242067   5.647   3.799   5.214  0.2275  0.5842 -0.1124
 6859TIP3    H142068   5.574   3.855   5.240  1.3447  1.1168  2.2332
 6859TIP3    H242069   5.670   3.751   5.294 -0.4350 -3.0555 -1.9154
 6860TIP3   OH242070   5.823   4.254  17.115 -0.1483 -0.5778  0.4079
 6860TIP3    H142071   5.847   4.324  17.054 -1.4464  1.2067  1.8254
 6860TIP3    H242072   5.854   4.285  17.200 -3.8047  0.0825  1.6731
 6861TIP3   OH242073   1.703   1.298  17.128  0.2060 -0.2159  0.3257
 6861TIP3    H142074   1.772   1.290  17.062 -0.0488 -0.0989  0.0442
 6861TIP3    H242075   1.715   1.386  17.164 -0.2688  0.0929 -0.2583
 6862TIP3   OH242076   5.016   6.356   0.756  0.0351  0.5723  0.4111
 6862TIP3    H142077   4.979   6.314   0.678  0.0398 -0.3840  0.9108
 6862TIP3    H242078   4.944   6.407   0.793 -1.4788 -2.7069  2.4183
 6863TIP3   OH242079   1.587   3.765   1.461 -0.4173  0.0129  0.6077
 6863TIP3    H142080   1.546   3.848   1.434 -1.8755 -0.8395  0.0746
 6863TIP3    H242081   1.616   3.782   1.551  2.2277  2.0908 -0.5022
 6864TIP3   OH242082   3.917   5.562  12.625 -0.1860  0.1076 -0.0655
 6864TIP3    H142083   3.864   5.642  12.628  0.8274  0.7617  1.2921
 6864TIP3    H242084   3.860   5.495  12.663 -0.1702  0.7469  1.1358
 6865TIP3   OH242085   0.253   0.801   3.841 -0.2468  0.2607 -0.1799
 6865TIP3    H142086   0.340   0.760   3.838  0.5346  1.6026  1.7390
 6865TIP3    H242087   0.210   0.759   3.916 -0.9563  0.1435 -0.6527
 6866TIP3   OH242088   6.190   5.687   3.330 -0.1230 -0.5942 -0.6703
 6866TIP3    H142089   6.269   5.730   3.362 -0.6405  0.1623 -0.3842
 6866TIP3    H242090   6.118   5.743   3.359 -0.7514 -1.1066 -1.1917
 6867TIP3   OH242091   5.873   1.393  17.123 -0.8041  0.0185 -0.0163
 6867TIP3    H142092   5.953   1.343  17.109 -1.4600 -1.0271 -0.1240
 6867TIP3    H242093   5.804   1.342  17.080 -1.3194  1.6464 -1.2613
 6868TIP3   OH242094   5.219   4.256   1.107  0.4292 -1.0987 -0.4898
 6868TIP3    H142095   5.134   4.217   1.083 -0.1151  0.2464 -0.8386
 6868TIP3    H242096   5.227   4.238   1.200 -0.6675 -0.4996 -0.2595
 6869TIP3   OH242097   0.805   0.964  14.929  0.3751 -0.3159 -0.1861
 6869TIP3    H142098   0.812   0.905  14.854 -1.9926  1.4103 -1.9204
 6869TIP3    H242099   0.842   1.046  14.899 -2.5361  1.0598 -0.3703
 6870TIP3   OH242100   5.338   5.422   0.166 -0.1193 -0.0145 -0.3931
 6870TIP3    H142101   5.293   5.339   0.154 -0.6065  0.3681 -1.2555
 6870TIP3    H242102   5.331   5.440   0.260  0.2006 -1.0510 -0.1570
 6871TIP3   OH242103   3.151   3.837   2.466  0.1461 -0.5901 -0.3954
 6871TIP3    H142104   3.235   3.804   2.498  1.6275  4.0871  1.2478
 6871TIP3    H242105   3.087   3.801   2.528  1.5349 -0.6448  1.0852
 6872TIP3   OH242106   1.232   3.822   4.425 -0.6272  0.2529  0.5727
 6872TIP3    H142107   1.196   3.815   4.514  0.2306 -1.8882  0.8065
 6872TIP3    H242108   1.240   3.732   4.395  0.0243  0.8941 -1.3284
 6873TIP3   OH242109   4.837   0.573   1.414 -0.0568 -0.0221  0.0851
 6873TIP3    H142110   4.741   0.579   1.419 -0.1118  0.8198 -1.5255
 6873TIP3    H242111   4.853   0.489   1.370 -0.1479  0.7337 -1.4485
 6874TIP3   OH242112   0.241   2.009  13.439 -0.4550  0.2126  0.3839
 6874TIP3    H142113   0.162   1.972  13.478 -1.0730  0.7345 -0.3322
 6874TIP3    H242114   0.220   2.101  13.425  0.1714  0.2887 -0.0907
 6875TIP3   OH242115   4.708   0.597  14.177 -0.3968 -0.4534 -1.0317
 6875TIP3    H142116   4.710   0.693  14.187  0.6676 -0.5324 -0.2508
 6875TIP3    H242117   4.792   0.568  14.211 -0.9463 -1.7310 -0.7032
 6876TIP3   OH242118   5.743   4.873   2.495  0.3194  0.6502  0.4828
 6876TIP3    H142119   5.814   4.825   2.538  0.4470  0.6683  0.2952
 6876TIP3    H242120   5.670   4.868   2.556  0.5029  0.6871  0.7072
 6877TIP3   OH242121   1.885   5.073   1.567  0.2869 -0.4225  0.0467
 6877TIP3    H142122   1.822   5.036   1.629  1.5423  1.5896  2.7130
 6877TIP3    H242123   1.969   5.035   1.592  0.6815 -0.3899 -1.1680
 6878TIP3   OH242124   6.331   3.171   3.071 -0.4448 -0.0173  0.7917
 6878TIP3    H142125   6.277   3.158   2.993 -2.5307 -1.5845  2.3922
 6878TIP3    H242126   6.273   3.215   3.133  0.5526 -0.4808  2.1040
 6879TIP3   OH242127   5.579   1.296   5.427  0.0098 -0.1520 -0.3563
 6879TIP3    H142128   5.491   1.274   5.395  0.2262 -0.5763 -0.6849
 6879TIP3    H242129   5.624   1.211   5.432 -0.2525 -0.2227  1.8806
 6880TIP3   OH242130   6.385   6.754  13.276  0.6064 -0.2998  0.0012
 6880TIP3    H142131   6.366   6.735  13.368  0.3296 -0.9284 -0.1784
 6880TIP3    H242132   6.381   6.669  13.233  1.4438 -0.1056 -0.4767
 6881TIP3   OH242133   2.623   0.163  11.528  0.5445 -0.2143 -0.1874
 6881TIP3    H142134   2.716   0.186  11.517  0.2617  1.2876  0.3064
 6881TIP3    H242135   2.621   0.068  11.519  2.5048 -0.6032  2.3034
 6882TIP3   OH242136   1.418   5.206  15.881  0.0756 -0.0852 -0.4491
 6882TIP3    H142137   1.435   5.275  15.816  0.2100 -0.3945 -0.7473
 6882TIP3    H242138   1.503   5.191  15.922 -0.3876  1.5216  1.2371
 6883TIP3   OH242139   4.676   5.472   5.945  0.4979  0.2189 -0.3539
 6883TIP3    H142140   4.614   5.400   5.934  0.0175  0.3382  1.2327
 6883TIP3    H242141   4.624   5.551   5.928  0.5559  0.2588 -0.3461
 6884TIP3   OH242142   0.768   4.952   2.942 -0.0400 -0.3574  0.7817
 6884TIP3    H142143   0.734   4.896   2.872 -1.0357 -0.6503  1.4717
 6884TIP3    H242144   0.767   5.040   2.906  0.9476 -0.6886 -0.0992
 6885TIP3   OH242145   3.059   4.273  14.349  0.5027 -0.2296  0.0721
 6885TIP3    H142146   2.966   4.295  14.352  0.1217 -1.7634  0.3281
 6885TIP3    H242147   3.073   4.241  14.260  0.7034 -0.3239  0.1376
 6886TIP3   OH242148   5.190   2.403  12.144 -0.0252  0.2139 -0.0911
 6886TIP3    H142149   5.098   2.431  12.147 -0.0433  0.0926  0.7098
 6886TIP3    H242150   5.236   2.478  12.108 -0.4898  0.1387 -0.8570
 6887TIP3   OH242151   3.661   6.124  13.882  0.0833  0.4899  0.1280
 6887TIP3    H142152   3.710   6.195  13.842 -0.0324  0.9797  0.8356
 6887TIP3    H242153   3.659   6.145  13.975 -1.6285  0.5929  0.0955
 6888TIP3   OH242154   5.463   4.060   2.858 -0.4429  0.2918 -0.4478
 6888TIP3    H142155   5.512   3.996   2.910  1.5007  0.6645 -1.7384
 6888TIP3    H242156   5.404   4.102   2.921  0.6531 -0.4088  1.1026
 6889TIP3   OH242157   6.023   5.885   3.075  0.4113 -0.2447  0.1410
 6889TIP3    H142158   5.960   5.922   3.137 -0.3502 -0.3681 -0.5286
 6889TIP3    H242159   6.044   5.958   3.016 -0.2927 -0.5854 -0.5549
 6890TIP3   OH242160   6.345   4.813  10.626  0.3660 -0.1555 -0.0007
 6890TIP3    H142161   6.321   4.735  10.577  1.8237  1.2249 -3.1945
 6890TIP3    H242162   6.262   4.858  10.642 -0.3520 -1.6878  0.7672
 6891TIP3   OH242163   4.680   6.661  14.843  0.2439 -0.1096 -0.1282
 6891TIP3    H142164   4.622   6.720  14.892  0.6694  0.8742 -0.7841
 6891TIP3    H242165   4.621   6.607  14.792 -0.1281  1.6265 -1.6471
 6892TIP3   OH242166   3.656   3.429  14.564 -0.3197 -0.2836  0.2510
 6892TIP3    H142167   3.666   3.379  14.644  0.6449 -0.0441  0.2944
 6892TIP3    H242168   3.743   3.428  14.523 -0.9778 -1.1058 -1.2251
 6893TIP3   OH242169   6.608   3.189  17.312 -0.6528  0.3793 -0.6001
 6893TIP3    H142170   6.553   3.154  17.383 -1.5435 -0.6144 -1.7312
 6893TIP3    H242171   6.694   3.150  17.327 -0.9189 -0.0885 -0.2533
 6894TIP3   OH242172   0.009   1.424  13.332  0.4824 -0.5883  0.4738
 6894TIP3    H142173  -0.078   1.409  13.296  1.8289 -3.0361 -2.1835
 6894TIP3    H242174   0.020   1.519  13.330 -0.8140 -0.3771 -2.7266
 6895TIP3   OH242175   3.604   1.771  16.539 -0.2630 -0.1421 -0.1552
 6895TIP3    H142176   3.635   1.687  16.506 -0.8615  0.1549 -1.5302
 6895TIP3    H242177   3.510   1.760  16.549 -0.1842  0.0026  0.8010
 6896TIP3   OH242178   6.350   2.661  15.125  0.0509  0.3614  0.5190
 6896TIP3    H142179   6.445   2.653  15.132 -0.0357  0.0959  1.6620
 6896TIP3    H242180   6.320   2.571  15.110 -0.0817  0.3191  1.0429
 6897TIP3   OH242181   2.338   1.551   4.390  0.2490  0.3477 -0.5338
 6897TIP3    H142182   2.345   1.508   4.305  1.0111  1.5090 -1.0754
 6897TIP3    H242183   2.278   1.495   4.440 -1.3324  0.3910 -2.2711
 6898TIP3   OH242184   3.671   0.177  12.097  0.1910  0.1071  0.3771
 6898TIP3    H142185   3.636   0.099  12.140  1.5332  0.0409  1.4130
 6898TIP3    H242186   3.594   0.218  12.057 -0.6393 -1.3787  0.3775
 6899TIP3   OH242187   5.895   2.153   3.357 -0.6768 -0.2542  0.0800
 6899TIP3    H142188   5.906   2.247   3.375 -0.5679  0.0258 -1.3313
 6899TIP3    H242189   5.956   2.110   3.417 -0.5750  0.5897  0.6006
 6900TIP3   OH242190   4.692   5.623   6.597 -0.7738  0.1904 -0.0804
 6900TIP3    H142191   4.647   5.557   6.545 -0.2040  0.9408 -1.5984
 6900TIP3    H242192   4.748   5.669   6.534  3.5488 -1.8047  1.8759
 6901TIP3   OH242193   2.584   1.563   6.034 -0.2801  0.3306  0.5718
 6901TIP3    H142194   2.619   1.475   6.015 -2.4467  0.0495 -3.1404
 6901TIP3    H242195   2.597   1.574   6.128  3.2337 -2.4807  0.6624
 6902TIP3   OH242196   4.653   3.020   2.639  0.4233  0.2528  0.0174
 6902TIP3    H142197   4.574   3.038   2.691  1.2492  1.0559  1.0378
 6902TIP3    H242198   4.667   3.100   2.588 -0.8510 -0.8291 -2.1502
 6903TIP3   OH242199   2.342   4.981  11.827 -0.0477 -0.6368 -0.4596
 6903TIP3    H142200   2.424   5.004  11.783 -1.0270 -0.7324 -2.4844
 6903TIP3    H242201   2.287   4.945  11.757 -1.3653 -1.7926  1.0841
 6904TIP3   OH242202   6.659   2.616  11.228  0.1943 -0.7114 -0.3088
 6904TIP3    H142203   6.715   2.586  11.157  0.2396 -0.4537 -0.3831
 6904TIP3    H242204   6.649   2.710  11.212 -0.2671 -0.7583 -0.3026
 6905TIP3   OH242205   5.816   1.615  12.103 -0.1313 -0.0607  1.1205
 6905TIP3    H142206   5.788   1.703  12.079 -0.8452 -0.4276  0.5618
 6905TIP3    H242207   5.826   1.569  12.020 -2.3520 -1.2677  1.4291
 6906TIP3   OH242208   5.789   4.460   3.863  0.4580  0.4307 -0.3873
 6906TIP3    H142209   5.808   4.531   3.925  2.0186  0.4734 -0.8704
 6906TIP3    H242210   5.811   4.497   3.777 -0.3985 -0.0743 -0.8359
 6907TIP3   OH242211   5.479   5.921  16.252  0.6011  0.3052 -0.0484
 6907TIP3    H142212   5.427   6.001  16.256  1.6347  0.9960 -0.0484
 6907TIP3    H242213   5.502   5.903  16.344  1.5181  0.7983 -0.1693
 6908TIP3   OH242214   0.317   2.316  10.726  0.3456 -0.1761 -0.1051
 6908TIP3    H142215   0.334   2.397  10.678 -1.5665  0.8117  0.7592
 6908TIP3    H242216   0.221   2.311  10.731  0.3176 -3.4372 -1.6156
 6909TIP3   OH242217   2.995   1.320   1.748  0.0219 -0.1102  0.3352
 6909TIP3    H142218   2.972   1.253   1.813  1.6003  0.2055  1.2930
 6909TIP3    H242219   3.043   1.271   1.681 -0.7986 -0.2883 -0.1284
 6910TIP3   OH242220   5.048   3.853   3.489 -0.4658 -0.6076 -0.1448
 6910TIP3    H142221   5.105   3.804   3.429  0.9319 -1.1110  1.5013
 6910TIP3    H242222   5.071   3.945   3.475  0.8097 -0.8022  0.4780
 6911TIP3   OH242223   4.190   5.552  15.896 -1.2281 -0.0234  0.2637
 6911TIP3    H142224   4.196   5.478  15.836 -1.6609  0.6306 -0.6103
 6911TIP3    H242225   4.134   5.615  15.851  0.3276  1.4844  0.2898
 6912TIP3   OH242226   1.404   1.089   5.198 -0.1889 -0.6570  0.0913
 6912TIP3    H142227   1.348   1.016   5.173  0.9565 -1.5315 -0.0266
 6912TIP3    H242228   1.491   1.064   5.165  0.3043  0.5714  0.4128
 6913TIP3   OH242229   2.220   3.200  11.647 -0.8154 -0.0896  0.3449
 6913TIP3    H142230   2.196   3.167  11.734  0.5668  2.1349  1.6691
 6913TIP3    H242231   2.305   3.161  11.629 -1.3982 -1.0829 -0.3718
 6914TIP3   OH242232   5.346   0.517  16.845 -0.2129 -0.4232 -0.0064
 6914TIP3    H142233   5.379   0.452  16.907  0.0589  1.6013  2.1298
 6914TIP3    H242234   5.421   0.538  16.790  0.2761 -0.4154  0.6546
 6915TIP3   OH242235   1.960   2.973   2.593 -0.9803  0.3872 -0.4130
 6915TIP3    H142236   2.020   3.023   2.647  1.5499 -2.4648 -0.2858
 6915TIP3    H242237   2.014   2.941   2.521 -0.9813 -5.3832  1.6146
 6916TIP3   OH242238   2.189   5.868  12.199  0.6294 -0.5368 -0.1802
 6916TIP3    H142239   2.146   5.907  12.275 -0.7707 -1.2255 -0.5840
 6916TIP3    H242240   2.240   5.940  12.161 -1.5227  0.8213 -0.6572
 6917TIP3   OH242241   4.679   3.505  12.875  0.3484  0.0003  0.1749
 6917TIP3    H142242   4.702   3.570  12.941  0.0081 -0.8909  1.2043
 6917TIP3    H242243   4.756   3.447  12.871 -0.5320 -1.3440  1.5771
 6918TIP3   OH242244   0.509   6.346   6.689 -0.5118  0.1095  0.7021
 6918TIP3    H142245   0.472   6.264   6.656  0.0989 -0.8055  2.1673
 6918TIP3    H242246   0.566   6.377   6.619  0.1084 -1.3235  0.5400
 6919TIP3   OH242247   0.316   0.966  16.017  0.6378  0.3305  0.9361
 6919TIP3    H142248   0.393   0.956  16.074  0.2888  1.8146  1.7197
 6919TIP3    H242249   0.282   1.053  16.038 -1.6684 -0.5454  1.1104
 6920TIP3   OH242250   5.400   2.474   5.388 -0.4410  0.5261 -0.7547
 6920TIP3    H142251   5.463   2.403   5.377 -0.1181  0.5906  0.5793
 6920TIP3    H242252   5.356   2.480   5.303  1.8545  1.0125 -1.9820
 6921TIP3   OH242253   4.551   0.115  16.190 -0.1252 -0.5659  0.3741
 6921TIP3    H142254   4.599   0.130  16.109  0.4790  1.6065  1.0512
 6921TIP3    H242255   4.610   0.147  16.259 -1.6814  0.1747  1.4147
 6922TIP3   OH242256   6.030   0.705  12.612 -0.1522 -0.5839  0.1357
 6922TIP3    H142257   6.054   0.784  12.565 -3.0304 -1.3304 -2.9447
 6922TIP3    H242258   6.047   0.633  12.550 -1.4966 -1.9449  1.2659
 6923TIP3   OH242259   3.172   3.412  14.923  0.2660  0.3903 -0.2630
 6923TIP3    H142260   3.175   3.398  15.017  0.4901  0.7504 -0.2135
 6923TIP3    H242261   3.227   3.489  14.909 -0.7446  1.0762 -0.5458
 6924TIP3   OH242262   6.246   5.870  17.299 -0.1671  0.3429  0.5660
 6924TIP3    H142263   6.189   5.846  17.372 -1.7064  0.8484 -0.4364
 6924TIP3    H242264   6.335   5.857  17.333 -0.8574 -0.2603  2.2311
 6925TIP3   OH242265   3.026   1.805  15.468 -0.6054  0.4101 -0.2398
 6925TIP3    H142266   2.939   1.775  15.493  0.4340 -0.9754  2.0223
 6925TIP3    H242267   3.037   1.887  15.516  0.3905 -0.9409  2.0396
 6926TIP3   OH242268   6.460   1.205   3.633 -0.5316  1.1144  0.3491
 6926TIP3    H142269   6.373   1.173   3.609  0.0855  0.3433 -0.9558
 6926TIP3    H242270   6.514   1.127   3.637  0.7544  1.8103 -1.8330
 6927TIP3   OH242271   2.203   2.738  16.019  0.2285  0.4006  0.0328
 6927TIP3    H142272   2.176   2.664  16.073  1.5365  0.7814  1.2628
 6927TIP3    H242273   2.291   2.760  16.050  0.5550  1.3818 -1.4768
 6928TIP3   OH242274   6.526   1.758  15.973 -0.4604  0.2241  0.1088
 6928TIP3    H142275   6.594   1.818  15.943  0.5337 -0.5203  0.7836
 6928TIP3    H242276   6.504   1.706  15.896  0.2436  0.0092  0.0446
 6929TIP3   OH242277   5.465   5.981   0.865 -0.0370 -0.0317 -0.6545
 6929TIP3    H142278   5.466   6.002   0.958  1.3936 -0.6087 -0.5151
 6929TIP3    H242279   5.427   6.058   0.823 -0.0107  0.5367  0.3341
 6930TIP3   OH242280   5.142   6.260   3.362 -0.2306 -0.0005  0.0892
 6930TIP3    H142281   5.053   6.269   3.327  0.2150  0.7680 -0.8989
 6930TIP3    H242282   5.186   6.201   3.300 -0.3930 -1.4155  1.2754
 6931TIP3   OH242283   1.917   6.124   1.424 -0.0501  0.6416 -0.2480
 6931TIP3    H142284   1.914   6.181   1.501 -1.1465  0.1477  0.1045
 6931TIP3    H242285   2.010   6.119   1.401  0.0796  2.6366 -0.3581
 6932TIP3   OH242286   0.981   2.425  17.235 -0.2462  0.0231 -0.0351
 6932TIP3    H142287   1.068   2.440  17.198 -0.6077  1.1530 -0.4684
 6932TIP3    H242288   0.979   2.480  17.313 -0.2028 -0.8145  0.5587
 6933TIP3   OH242289   0.630   4.682  15.473 -0.4470  0.0959 -0.3678
 6933TIP3    H142290   0.640   4.651  15.563 -1.4153 -0.6411 -0.5021
 6933TIP3    H242291   0.608   4.775  15.482 -4.1703 -0.6908  0.3861
 6934TIP3   OH242292   3.467   0.554   6.523 -0.3395 -0.3948  0.0102
 6934TIP3    H142293   3.487   0.462   6.535  0.0402 -0.1660  1.2989
 6934TIP3    H242294   3.546   0.600   6.550 -0.2125  0.2999 -1.4474
 6935TIP3   OH242295   1.771   4.071  16.335 -0.5544 -0.1107  0.2417
 6935TIP3    H142296   1.844   4.132  16.340  1.0825 -1.8873 -0.7012
 6935TIP3    H242297   1.759   4.041  16.425 -1.8680  2.0132  0.8616
 6936TIP3   OH242298   0.945   1.051   3.712 -0.3818 -0.3260 -0.1668
 6936TIP3    H142299   0.924   0.971   3.663  1.1961 -2.1214  1.8672
 6936TIP3    H242300   1.030   1.078   3.678 -0.0268 -0.6552  0.4355
 6937TIP3   OH242301   5.034   3.004  16.158  0.2523  0.2034  0.1184
 6937TIP3    H142302   4.988   3.040  16.083  1.6668  2.8620  0.3907
 6937TIP3    H242303   5.012   3.063  16.230  1.4194 -0.4187  1.0272
 6938TIP3   OH242304   4.052   2.137  14.180  0.3067 -0.5213 -0.1300
 6938TIP3    H142305   4.086   2.048  14.170 -0.2032 -0.8871  1.1376
 6938TIP3    H242306   4.092   2.187  14.109 -1.2289 -2.2689 -2.3872
 6939TIP3   OH242307   1.423   1.126   1.717 -0.1027 -0.0829  0.5638
 6939TIP3    H142308   1.421   1.222   1.715 -0.7185 -0.0984  0.1297
 6939TIP3    H242309   1.350   1.100   1.661  1.7794 -0.8043 -1.7503
 6940TIP3   OH242310   5.811   6.527   2.358 -0.2226  0.6216 -0.3651
 6940TIP3    H142311   5.863   6.595   2.402 -0.2495 -0.5002  1.5045
 6940TIP3    H242312   5.849   6.520   2.271  3.4095 -0.7313  1.1496
 6941TIP3   OH242313   5.483   5.134  11.861 -0.3220  0.4281  0.0039
 6941TIP3    H142314   5.481   5.181  11.778  1.0200 -0.1937 -0.4185
 6941TIP3    H242315   5.526   5.195  11.922  0.2307  0.2664 -0.2117
 6942TIP3   OH242316   4.792   2.805   3.406  0.0811  0.1740  0.5743
 6942TIP3    H142317   4.803   2.899   3.420  1.8130  0.1828 -0.4464
 6942TIP3    H242318   4.831   2.790   3.320  1.4433 -1.7318  1.4594
 6943TIP3   OH242319   6.625   2.200  15.882 -0.1776  0.7058  0.4586
 6943TIP3    H142320   6.651   2.146  15.957 -1.7019 -1.1811 -0.3086
 6943TIP3    H242321   6.609   2.287  15.920  1.2842  0.3913  1.9065
 6944TIP3   OH242322   5.319   3.906  15.561  0.4860  0.2711 -0.1342
 6944TIP3    H142323   5.296   3.996  15.540  0.9144  0.3790 -0.1368
 6944TIP3    H242324   5.378   3.913  15.636 -1.4139 -0.1305  1.4659
 6945TIP3   OH242325   2.030   6.200  14.476 -0.3899  0.2954  0.0826
 6945TIP3    H142326   2.015   6.132  14.410  1.2763  1.2157 -1.3216
 6945TIP3    H242327   2.120   6.185  14.506 -0.4588  1.0726  0.7106
 6946TIP3   OH242328   3.346   0.866   0.666 -0.0908  0.3151  0.1968
 6946TIP3    H142329   3.360   0.883   0.573  2.2071 -1.1276  0.2198
 6946TIP3    H242330   3.329   0.952   0.704 -0.8920  0.9490 -1.4858
 6947TIP3   OH242331   5.098   3.981  14.548  0.6050  0.0299 -0.0762
 6947TIP3    H142332   5.059   4.043  14.610 -0.2538  1.3694 -1.8424
 6947TIP3    H242333   5.075   3.895  14.583  0.2907  0.7217  1.5212
 6948TIP3   OH242334   3.105   1.117  13.872 -0.0985 -0.1873 -0.2189
 6948TIP3    H142335   3.167   1.078  13.934 -0.6745  0.3154  0.6979
 6948TIP3    H242336   3.047   1.044  13.849 -0.8272 -0.0548  1.0586
 6949TIP3   OH242337   1.770   5.388  17.241 -0.0196 -0.1172  0.4575
 6949TIP3    H142338   1.808   5.406  17.155 -1.4529 -0.5545 -0.3131
 6949TIP3    H242339   1.818   5.311  17.273 -0.3159 -0.7414 -0.5414
 6950TIP3   OH242340   2.881   0.207  16.751  0.0770 -0.4323  0.7942
 6950TIP3    H142341   2.925   0.125  16.729 -0.7216 -0.2650 -1.7811
 6950TIP3    H242342   2.950   0.274  16.742  0.2336 -0.5888  0.8231
 6951TIP3   OH242343   0.028   5.938  15.311  0.1453  0.3834 -0.6612
 6951TIP3    H142344   0.122   5.941  15.330 -0.0296 -0.9344  0.5459
 6951TIP3    H242345   0.024   5.923  15.217  1.2045 -1.3701 -0.4711
 6952TIP3   OH242346   0.120   3.731  17.257 -0.1778 -0.5530  0.3488
 6952TIP3    H142347   0.172   3.792  17.309 -1.2006  0.1696  0.5621
 6952TIP3    H242348   0.182   3.690  17.197  0.4223  1.2006 -0.2636
 6953TIP3   OH242349   4.260   0.307  15.688 -0.1403  0.7466  0.1734
 6953TIP3    H142350   4.168   0.282  15.701 -0.5434  1.9565 -0.2248
 6953TIP3    H242351   4.257   0.401  15.673  1.2757  0.9714  1.1200
 6954TIP3   OH242352   0.916   3.611   6.495  0.0196 -0.7553 -0.4717
 6954TIP3    H142353   0.871   3.651   6.570  0.7361 -1.4856  0.3696
 6954TIP3    H242354   0.918   3.680   6.429 -0.2007  0.0698  0.3625
 6955TIP3   OH242355   0.675   4.618  15.066 -0.0480 -0.0741  0.4946
 6955TIP3    H142356   0.719   4.608  15.151  0.4826 -0.0326  0.2259
 6955TIP3    H242357   0.626   4.700  15.075 -0.0909 -0.1308  0.8024
 6956TIP3   OH242358   5.992   2.604   2.616 -0.2156 -0.4309  0.3318
 6956TIP3    H142359   6.007   2.519   2.575  0.2069  0.5735 -1.7253
 6956TIP3    H242360   6.074   2.652   2.606 -1.2616  1.1926 -1.1044
 6957TIP3   OH242361   3.836   2.837   4.790  0.1419 -0.6292 -0.3950
 6957TIP3    H142362   3.822   2.928   4.765  0.4181 -0.6381 -0.5894
 6957TIP3    H242363   3.842   2.790   4.707  1.9955 -0.5201 -0.3757
 6958TIP3   OH242364   2.475   5.515  11.901 -0.6596  0.3518 -0.0069
 6958TIP3    H142365   2.562   5.537  11.868 -0.8946  1.6821  0.2370
 6958TIP3    H242366   2.446   5.443  11.845  0.1959  0.5417 -0.7122
 6959TIP3   OH242367   5.581   2.804  16.161 -0.2112 -0.3410 -0.3511
 6959TIP3    H142368   5.563   2.754  16.241  0.6551  0.5677  0.4292
 6959TIP3    H242369   5.659   2.855  16.181 -0.1290  0.1043 -1.7007
 6960TIP3   OH242370   0.463   6.762   4.173 -0.0136 -0.3576 -0.3381
 6960TIP3    H142371   0.418   6.678   4.164 -3.5756  1.3215 -0.0911
 6960TIP3    H242372   0.473   6.774   4.267 -1.9588  0.5118 -0.1757
 6961TIP3   OH242373   5.166   3.933  14.950 -0.0007 -0.2792  0.4482
 6961TIP3    H142374   5.145   3.955  14.859 -1.7119  0.7693  1.0594
 6961TIP3    H242375   5.232   3.997  14.976 -2.0393  1.7455  0.9692
 6962TIP3   OH242376   0.455   3.704  15.997 -0.1391  0.2029 -0.0663
 6962TIP3    H142377   0.433   3.684  16.089  1.3374 -0.3494  0.2021
 6962TIP3    H242378   0.471   3.798  15.996  0.6400  0.0892  0.4466
 6963TIP3   OH242379   5.339   3.960   6.539 -0.1138 -0.6506  0.0482
 6963TIP3    H142380   5.271   3.897   6.514 -0.0705 -0.9764  0.7529
 6963TIP3    H242381   5.296   4.045   6.536  0.3592 -0.3761 -3.1167
 6964TIP3   OH242382   2.154   2.186   0.313  0.3080 -0.1476  0.4516
 6964TIP3    H142383   2.244   2.210   0.337 -0.1809  0.9960  1.2454
 6964TIP3    H242384   2.103   2.266   0.328 -0.1441  0.7636 -4.3437
 6965TIP3   OH242385   1.569   6.255   5.429 -0.3823  0.0855 -0.3457
 6965TIP3    H142386   1.509   6.181   5.421  0.3598 -0.5227 -0.3749
 6965TIP3    H242387   1.599   6.252   5.519 -0.3002  0.3108 -0.3663
 6966TIP3   OH242388   1.767   2.179   0.579  0.5488  0.1485 -0.1959
 6966TIP3    H142389   1.751   2.181   0.484  0.0149  2.6177 -0.1101
 6966TIP3    H242390   1.680   2.179   0.618  0.7705 -0.6551  0.3125
 6967TIP3   OH242391   4.607   0.548  15.875  0.0506 -0.1432 -0.4559
 6967TIP3    H142392   4.522   0.569  15.838 -0.6690  0.4260  1.3900
 6967TIP3    H242393   4.669   0.605  15.829 -0.9521  1.3157 -0.0427
 6968TIP3   OH242394   3.209   5.181  17.235  0.2736 -0.1518 -0.2581
 6968TIP3    H142395   3.124   5.223  17.245  0.6501  0.4895  0.2793
 6968TIP3    H242396   3.236   5.202  17.146  0.2567  0.3697 -0.1424
 6969TIP3   OH242397   3.777   0.241   2.410  0.3828 -0.2064 -0.5477
 6969TIP3    H142398   3.786   0.170   2.346  1.2093  0.7120 -1.4721
 6969TIP3    H242399   3.684   0.242   2.432  0.5903 -2.7520  0.8822
 6970TIP3   OH242400   3.660   2.757  12.167  0.2198  0.1088 -0.3540
 6970TIP3    H142401   3.619   2.757  12.080  0.0022 -0.2042 -0.2558
 6970TIP3    H242402   3.686   2.847  12.182 -0.1896  0.2568 -0.5359
 6971TIP3   OH242403   1.457   2.252  16.523 -0.1252 -0.1565 -0.1505
 6971TIP3    H142404   1.500   2.286  16.444 -0.1680  0.8348  0.2394
 6971TIP3    H242405   1.528   2.241  16.586 -0.2435  0.1259  0.0320
 6972TIP3   OH242406   2.856   5.670  13.799  0.4941  0.3937  0.1891
 6972TIP3    H142407   2.810   5.741  13.842 -1.7101 -1.2414  0.7232
 6972TIP3    H242408   2.923   5.643  13.862  0.4620  1.0952  0.5323
 6973TIP3   OH242409   4.119   1.947  16.093  0.2234 -0.2496  0.1103
 6973TIP3    H142410   4.209   1.949  16.125 -0.2599  1.0913  1.4985
 6973TIP3    H242411   4.110   1.862  16.049  2.3649 -0.0927 -0.7189
 6974TIP3   OH242412   3.867   0.541  16.468 -0.1184 -0.6611 -0.2948
 6974TIP3    H142413   3.821   0.478  16.524  0.5179 -0.3901  0.5498
 6974TIP3    H242414   3.936   0.490  16.426  0.6564 -0.4605  0.7029
 6975TIP3   OH242415   1.457   4.851  15.579  0.0092 -0.0336  0.0661
 6975TIP3    H142416   1.375   4.859  15.627  0.2757  0.5252  0.4402
 6975TIP3    H242417   1.462   4.930  15.525 -0.1277 -0.4972 -0.6421
 6976TIP3   OH242418   0.179   1.716  11.982  0.3070  0.0897  0.5162
 6976TIP3    H142419   0.185   1.716  12.077 -0.5612  0.3599  0.5820
 6976TIP3    H242420   0.212   1.802  11.955 -0.3741  0.4078  0.6569
 6977TIP3   OH242421   2.090   6.329   3.348 -0.5612 -0.4319  0.4687
 6977TIP3    H142422   2.130   6.385   3.415 -1.7163  1.7951 -0.5729
 6977TIP3    H242423   2.013   6.292   3.391 -1.4594  1.2147  0.3567
 6978TIP3   OH242424   5.908   6.555   3.778 -0.2156 -0.9419 -0.3130
 6978TIP3    H142425   5.835   6.545   3.718 -0.1459  1.3116 -0.8537
 6978TIP3    H242426   5.882   6.625   3.838 -0.0043 -2.6480  1.9314
 6979TIP3   OH242427   5.012   2.030   1.729 -0.7977  0.8589 -0.0315
 6979TIP3    H142428   5.074   2.099   1.750  0.6497 -0.8834  1.8677
 6979TIP3    H242429   4.956   2.023   1.806 -1.3834  0.4004 -0.4854
 6980TIP3   OH242430   0.878   4.782  14.960  0.0127  0.0173 -0.0536
 6980TIP3    H142431   0.790   4.743  14.964 -0.1362  0.3012 -0.5207
 6980TIP3    H242432   0.885   4.817  14.872 -0.4906  2.5040  0.8115
 6981TIP3   OH242433   1.825   5.883   2.755  0.2264 -0.1423 -0.4163
 6981TIP3    H142434   1.795   5.793   2.747 -1.4941  0.3969 -0.6034
 6981TIP3    H242435   1.858   5.889   2.845 -0.8180 -0.6631  0.0286
 6982TIP3   OH242436   2.732   1.190  17.264 -0.1272 -0.2358  0.5789
 6982TIP3    H142437   2.815   1.230  17.239 -0.0299  0.6310  2.1586
 6982TIP3    H242438   2.670   1.264  17.269 -0.4047 -0.5211  1.6975
 6983TIP3   OH242439   6.536   3.802  12.728 -0.7570 -0.1152 -0.1148
 6983TIP3    H142440   6.624   3.801  12.690 -0.8422  4.1824 -1.0142
 6983TIP3    H242441   6.486   3.740  12.676  1.9979 -4.3831  1.7940
 6984TIP3   OH242442   3.997   2.348   2.300 -0.4670  0.1779  0.4115
 6984TIP3    H142443   3.992   2.278   2.365 -2.7113 -0.8824 -0.7627
 6984TIP3    H242444   3.978   2.428   2.350  2.5132  0.1238  1.8447
 6985TIP3   OH242445   5.242   5.577   3.953 -0.5899 -0.4695  0.3645
 6985TIP3    H142446   5.252   5.672   3.947 -1.0641 -0.2963  1.9110
 6985TIP3    H242447   5.249   5.558   4.046 -1.2612 -1.8712  0.1547
 6986TIP3   OH242448   3.876   3.014   5.123 -0.6750 -0.1751  0.1328
 6986TIP3    H142449   3.923   3.092   5.093 -0.0666  0.1378  1.7715
 6986TIP3    H242450   3.897   2.946   5.059  0.0972  0.5925 -0.4438
 6987TIP3   OH242451   1.008   3.281   2.947 -0.4252  0.3749 -0.7792
 6987TIP3    H142452   1.059   3.316   2.874  0.8737  0.5952  0.2052
 6987TIP3    H242453   0.917   3.302   2.925  0.2370  4.6214 -0.1568
 6988TIP3   OH242454   6.577   2.123  12.037 -0.1742 -0.8792 -0.3337
 6988TIP3    H142455   6.520   2.071  11.980 -1.2778  0.5848 -0.6422
 6988TIP3    H242456   6.610   2.061  12.102 -1.2214 -2.0024 -0.8429
 6989TIP3   OH242457   6.818   6.166  16.936  0.6938 -0.3826 -0.2761
 6989TIP3    H142458   6.900   6.203  16.903 -0.4846  0.3075 -2.6479
 6989TIP3    H242459   6.840   6.077  16.962  2.3951  0.1278  0.1490
 6990TIP3   OH242460   2.632   5.083  13.995  0.3712  0.6149  0.0422
 6990TIP3    H142461   2.654   5.146  13.926 -0.9909  1.6866  0.5275
 6990TIP3    H242462   2.707   5.088  14.056  0.9327  0.7032 -0.6416
 6991TIP3   OH242463   5.405   5.774  12.788  0.5285 -0.4603  0.1740
 6991TIP3    H142464   5.312   5.795  12.783  0.2061 -1.1291  2.3904
 6991TIP3    H242465   5.444   5.819  12.713 -1.7456 -1.2716 -1.6305
 6992TIP3   OH242466   1.791   2.545  12.226  0.2048  0.3156 -0.1236
 6992TIP3    H142467   1.767   2.477  12.289 -1.4387 -0.3122 -1.3460
 6992TIP3    H242468   1.743   2.622  12.255 -0.9044 -0.0930 -0.8119
 6993TIP3   OH242469   2.231   2.379  12.992 -0.2343  0.0994  0.2501
 6993TIP3    H142470   2.137   2.395  13.006 -0.1105  1.6570 -0.5232
 6993TIP3    H242471   2.239   2.365  12.898  0.1805 -1.1576  0.4558
 6994TIP3   OH242472   0.856   4.397  16.924 -0.2111  0.3532  0.1399
 6994TIP3    H142473   0.904   4.476  16.945  2.2700 -0.7927 -0.8974
 6994TIP3    H242474   0.923   4.333  16.899 -2.1588 -1.8440  0.1517
 6995TIP3   OH242475   1.887   6.158   2.511 -0.1652  0.2716 -0.6002
 6995TIP3    H142476   1.876   6.204   2.428 -1.5525 -0.1577 -0.6825
 6995TIP3    H242477   1.799   6.156   2.549 -0.1548 -2.1086 -0.5038
 6996TIP3   OH242478   5.881   6.164   1.351  0.1552 -0.4977  0.2420
 6996TIP3    H142479   5.919   6.149   1.438 -0.6953 -0.9108  0.5545
 6996TIP3    H242480   5.787   6.174   1.367  0.0391 -0.1506 -0.5863
 6997TIP3   OH242481   0.289   5.897  12.819 -0.3181  0.0969  0.6527
 6997TIP3    H142482   0.209   5.860  12.783  0.5742 -1.0609 -0.2289
 6997TIP3    H242483   0.270   5.911  12.912 -1.5931  0.0292  0.4125
 6998TIP3   OH242484   6.336   1.849   1.278 -0.4420 -0.2019 -0.1793
 6998TIP3    H142485   6.351   1.815   1.190 -1.3992  1.3882 -1.0019
 6998TIP3    H242486   6.415   1.826   1.327  1.1017  0.7787 -2.0647
 6999TIP3   OH242487   1.731   1.958   1.971 -0.2607 -0.2612  0.0873
 6999TIP3    H142488   1.806   2.013   1.947  1.2819 -0.5776  3.6057
 6999TIP3    H242489   1.654   2.012   1.953  0.9066  1.0342 -1.2914
 7000TIP3   OH242490   3.304   0.960   3.155 -0.5329  0.6674  0.4499
 7000TIP3    H142491   3.234   0.987   3.214 -0.6579 -0.0201  0.6360
 7000TIP3    H242492   3.299   0.864   3.156  0.9473  0.5836  1.1162
 7001TIP3   OH242493   2.357   2.846   5.576 -0.0644  0.5281  0.0433
 7001TIP3    H142494   2.329   2.820   5.664  0.8995 -1.1865 -0.1152
 7001TIP3    H242495   2.296   2.803   5.517 -0.4508  1.3335 -0.1700
 7002TIP3   OH242496   4.734   2.369  15.017 -0.0329 -0.4200  0.4464
 7002TIP3    H142497   4.804   2.318  15.057  2.4679  0.0299 -3.0116
 7002TIP3    H242498   4.766   2.459  15.017 -1.3400  0.0750  0.1685
 7003TIP3   OH242499   5.179   5.000  14.533  0.0290 -0.3083  0.6213
 7003TIP3    H142500   5.149   4.981  14.444  0.2167 -0.0436  0.5010
 7003TIP3    H242501   5.158   4.921  14.582 -0.0340 -0.4749  0.3316
 7004TIP3   OH242502   4.905   1.335   2.908 -0.4474  0.1363  0.5734
 7004TIP3    H142503   4.947   1.249   2.919  0.3766  0.4346 -0.1898
 7004TIP3    H242504   4.950   1.392   2.970 -0.5449  0.1674  0.6150
 7005TIP3   OH242505   6.262   0.442   0.123 -1.1334 -0.7879 -0.3438
 7005TIP3    H142506   6.313   0.499   0.180 -0.2399 -0.3461 -1.5639
 7005TIP3    H242507   6.195   0.405   0.181 -1.2821  0.9136  0.6288
 7006TIP3   OH242508   5.724   2.077   0.006  0.0256  0.3775  0.1640
 7006TIP3    H142509   5.749   2.010   0.069 -1.8143 -0.2159  0.3360
 7006TIP3    H242510   5.709   2.156   0.058 -1.2386 -0.0447  0.4826
 7007TIP3   OH242511   1.005   0.324  12.195 -0.0740  0.0992  0.7874
 7007TIP3    H142512   1.008   0.238  12.236 -1.0161 -0.5145 -0.3864
 7007TIP3    H242513   1.090   0.363  12.215  1.0217 -1.7373 -0.0372
 7008TIP3   OH242514   5.026   3.264  13.658  0.7402  0.1864  0.1343
 7008TIP3    H142515   5.044   3.310  13.576 -0.3861 -0.0376 -0.2551
 7008TIP3    H242516   5.098   3.200  13.666  0.9054  0.2737 -0.6287
 7009TIP3   OH242517   0.620   4.354   2.052 -0.0562 -0.2692 -0.3748
 7009TIP3    H142518   0.539   4.310   2.075 -0.2458  0.5095  0.5045
 7009TIP3    H242519   0.665   4.367   2.135  1.3485 -1.3704 -0.9186
 7010TIP3   OH242520   2.879   5.544   1.075  0.6936  0.4759 -0.3559
 7010TIP3    H142521   2.973   5.551   1.060  0.5348  3.1960 -0.5257
 7010TIP3    H242522   2.868   5.560   1.168  0.3098  1.8939 -0.6231
 7011TIP3   OH242523   1.719   3.377   4.362 -0.0345 -0.5551  0.0953
 7011TIP3    H142524   1.813   3.391   4.350  0.2260 -1.2819  1.1670
 7011TIP3    H242525   1.691   3.450   4.418  0.2892 -1.3720  1.3592
 7012TIP3   OH242526   4.871   2.893   5.539  0.2229 -0.1160  0.5632
 7012TIP3    H142527   4.819   2.817   5.516  1.4797 -1.1020  0.8921
 7012TIP3    H242528   4.956   2.858   5.565  0.6186  1.3400  1.3844
 7013TIP3   OH242529   4.239   2.765  10.888  0.1942  1.2020  0.2758
 7013TIP3    H142530   4.203   2.770  10.799 -0.3266  1.3203  0.4899
 7013TIP3    H242531   4.323   2.809  10.882 -0.3294  2.2152  0.0840
 7014TIP3   OH242532   3.971   4.346  11.923  0.1733  0.2794  0.3697
 7014TIP3    H142533   4.031   4.368  11.853 -1.6315  1.0329 -1.0238
 7014TIP3    H242534   3.886   4.335  11.880 -0.1714 -4.4157  1.6344
 7015TIP3   OH242535   0.958   6.334  15.278 -0.1805  0.3475  0.2000
 7015TIP3    H142536   0.897   6.289  15.337 -1.3555  0.4294 -0.8970
 7015TIP3    H242537   0.958   6.280  15.198  0.9928  0.4973  0.0850
 7016TIP3   OH242538   4.432   3.174   1.362 -0.4094  0.0351  0.3231
 7016TIP3    H142539   4.467   3.258   1.390 -1.1723 -0.1620  1.9911
 7016TIP3    H242540   4.363   3.154   1.426 -2.2700 -0.4776 -1.7158
 7017TIP3   OH242541   0.882   4.031   3.986  0.2516  1.0265 -0.7092
 7017TIP3    H142542   0.855   4.034   3.895 -1.3941 -2.5726 -0.4727
 7017TIP3    H242543   0.802   4.050   4.036  0.5071  0.3595 -0.0219
 7018TIP3   OH242544   4.341   5.975   0.554  0.0483  0.6402 -0.3125
 7018TIP3    H142545   4.370   5.905   0.612 -0.0213 -0.5427 -1.6568
 7018TIP3    H242546   4.245   5.966   0.552  0.1132 -0.0425 -1.4259
 7019TIP3   OH242547   2.528   6.031   2.476  0.2325 -0.4238 -0.3721
 7019TIP3    H142548   2.540   6.032   2.381 -0.4525  0.4154 -0.4726
 7019TIP3    H242549   2.617   6.031   2.512  0.4962 -0.5677 -1.0119
 7020TIP3   OH242550   6.670   6.449  12.157  0.2599  0.4335 -0.1765
 7020TIP3    H142551   6.657   6.533  12.202  1.8666  0.7505 -0.2625
 7020TIP3    H242552   6.759   6.422  12.181  0.0671 -0.8475 -0.8188
 7021TIP3   OH242553   1.522   2.380  12.028 -0.5906 -0.3089 -0.3694
 7021TIP3    H142554   1.517   2.343  12.116 -1.0629  1.1806  0.2671
 7021TIP3    H242555   1.487   2.469  12.037 -0.7974 -0.1684 -2.0985
 7022TIP3   OH242556   0.470   6.553   3.458 -0.3741  0.7863 -0.2107
 7022TIP3    H142557   0.387   6.536   3.502  0.6978  1.0558  2.0712
 7022TIP3    H242558   0.463   6.643   3.426 -0.8051  0.9445  0.3256
 7023TIP3   OH242559   4.813   1.483  17.278 -0.3422  0.2837 -0.1415
 7023TIP3    H142560   4.902   1.498  17.310  0.0102 -0.4778 -0.7240
 7023TIP3    H242561   4.757   1.500  17.353  0.1906  2.0192 -0.0916
 7024TIP3   OH242562   4.164   5.446   4.741  0.2447 -0.0955  0.0817
 7024TIP3    H142563   4.224   5.511   4.703  0.1292 -0.2937 -0.4522
 7024TIP3    H242564   4.207   5.362   4.724 -0.5027 -0.2968 -0.9413
 7025TIP3   OH242565   3.857   5.676  16.424  0.0217 -0.0907  0.3477
 7025TIP3    H142566   3.774   5.629  16.425 -0.1267  0.1385  1.9176
 7025TIP3    H242567   3.849   5.738  16.352 -1.4184  0.3296  0.8372
 7026TIP3   OH242568   5.770   3.973  17.256 -0.7855 -0.1504  0.3265
 7026TIP3    H142569   5.684   3.992  17.293 -0.0961  0.6935  1.5537
 7026TIP3    H242570   5.787   4.047  17.197 -1.4460 -0.9815 -0.9370
 7027TIP3   OH242571   5.216   0.302  12.373 -0.0985  0.5802 -0.0184
 7027TIP3    H142572   5.185   0.268  12.289  2.8594 -0.5203 -0.7941
 7027TIP3    H242573   5.213   0.227  12.433 -1.3098  1.1269  0.6464
 7028TIP3   OH242574   6.097   3.855  12.954 -0.5264  0.2721 -0.0128
 7028TIP3    H142575   6.036   3.918  12.915  0.7596  0.5041 -1.7747
 7028TIP3    H242576   6.078   3.858  13.048 -1.7213  1.9595 -0.2649
 7029TIP3   OH242577   6.605   2.795   3.437 -0.3789 -0.6275  0.2176
 7029TIP3    H142578   6.645   2.816   3.522  5.9014 -1.4599 -2.0345
 7029TIP3    H242579   6.579   2.703   3.445  0.3368 -0.7650  1.1624
 7030TIP3   OH242580   3.252   3.004  16.253  0.1423 -0.3470 -0.0007
 7030TIP3    H142581   3.245   2.988  16.347 -1.3329 -1.2621 -0.2372
 7030TIP3    H242582   3.320   3.071  16.245  2.0885 -1.9994  1.5416
 7031TIP3   OH242583   5.831   5.637   0.452 -0.1706 -0.2203 -0.4594
 7031TIP3    H142584   5.885   5.709   0.486 -1.3540  0.9413 -0.9812
 7031TIP3    H242585   5.818   5.579   0.527 -0.7387  1.0591  0.4470
 7032TIP3   OH242586   3.158   3.411   4.584 -0.1170  0.4344 -0.3984
 7032TIP3    H142587   3.129   3.361   4.660  0.7988 -0.5361 -0.6588
 7032TIP3    H242588   3.247   3.380   4.567  0.1908  1.5928 -1.0646
 7033TIP3   OH242589   6.271   3.316  14.471  0.6561 -0.0681 -0.1402
 7033TIP3    H142590   6.233   3.333  14.384  0.8810 -0.2821 -0.2812
 7033TIP3    H242591   6.213   3.362  14.531  1.7396  2.0056 -0.5676
 7034TIP3   OH242592   0.164   6.698  11.747 -0.4160  0.3497 -0.0426
 7034TIP3    H142593   0.163   6.685  11.842 -0.2050 -0.4912 -0.1407
 7034TIP3    H242594   0.241   6.650  11.717 -1.1102 -0.3649 -0.7587
 7035TIP3   OH242595   0.092   1.095  15.312 -0.5282 -0.0406  0.3356
 7035TIP3    H142596   0.107   1.014  15.263 -1.4229  0.8812 -1.5629
 7035TIP3    H242597   0.070   1.066  15.400  0.1212 -1.8153 -0.0462
 7036TIP3   OH242598   1.067   2.763   3.653  0.5622 -0.0189  0.3543
 7036TIP3    H142599   1.094   2.838   3.600  0.1304  0.0200  0.1875
 7036TIP3    H242600   1.097   2.686   3.604 -0.2491 -0.0036 -0.1996
 7037TIP3   OH242601   3.860   2.731   4.540  0.3126  0.4635  0.7792
 7037TIP3    H142602   3.886   2.671   4.470 -0.7653  0.1606  0.6102
 7037TIP3    H242603   3.879   2.818   4.506 -1.0388  0.3761 -0.2924
 7038TIP3   OH242604   1.541   0.701   6.048  0.5306 -0.6828 -0.0765
 7038TIP3    H142605   1.530   0.782   5.999 -2.3583 -0.0970  1.3020
 7038TIP3    H242606   1.536   0.727   6.140 -3.1511 -2.5255  0.4481
 7039TIP3   OH242607   4.211   3.563  12.478 -0.4295 -0.0593  0.3334
 7039TIP3    H142608   4.266   3.554  12.400  1.9088  0.6480  1.7920
 7039TIP3    H242609   4.122   3.576  12.443  0.3785 -0.6243 -2.1566
 7040TIP3   OH242610   0.650   5.711  15.047 -0.0957 -0.2435  0.1189
 7040TIP3    H142611   0.693   5.776  14.991 -2.0746  0.1473 -1.0474
 7040TIP3    H242612   0.690   5.627  15.022  0.6416  0.1969 -0.2246
 7041TIP3   OH242613   1.365   0.335   3.018 -0.5093  0.4123  0.2816
 7041TIP3    H142614   1.418   0.414   3.007 -1.4348  0.9408 -0.4807
 7041TIP3    H242615   1.282   0.366   3.055 -1.3190 -0.0362 -1.1050
 7042TIP3   OH242616   2.355   5.811   5.834  0.2110  0.1862  0.0454
 7042TIP3    H142617   2.440   5.834   5.795  0.0173  1.1956  0.2047
 7042TIP3    H242618   2.310   5.894   5.843 -0.6245 -0.2998  0.3902
 7043TIP3   OH242619   0.134   6.658   4.662  0.5873  0.0918  0.0689
 7043TIP3    H142620   0.090   6.694   4.739 -0.9918  0.1814 -0.8364
 7043TIP3    H242621   0.227   6.661   4.684  0.2037  0.6097  1.7523
 7044TIP3   OH242622   4.763   4.489   1.253 -0.2115 -0.1829  0.6397
 7044TIP3    H142623   4.833   4.434   1.288  0.1386  0.3348  0.7681
 7044TIP3    H242624   4.716   4.520   1.330  0.1261  0.3869  0.6257
 7045TIP3   OH242625   6.555   2.580  17.190  0.0153  0.7119  0.2744
 7045TIP3    H142626   6.644   2.588  17.224  0.1325  0.7556 -0.0439
 7045TIP3    H242627   6.566   2.546  17.101 -0.3866 -1.3616  0.9753
 7046TIP3   OH242628   2.777   5.610  14.081 -0.0255 -0.1232 -0.1403
 7046TIP3    H142629   2.775   5.696  14.039 -0.4819 -0.6695 -1.2884
 7046TIP3    H242630   2.841   5.560  14.031 -1.6752 -1.2667 -1.2174
 7047TIP3   OH242631   0.408   6.031  13.177 -0.1071 -0.2337 -0.7382
 7047TIP3    H142632   0.351   5.964  13.140  1.0679 -1.1159 -1.0009
 7047TIP3    H242633   0.348   6.101  13.203 -1.5861 -1.9515  0.8929
 7048TIP3   OH242634   4.187   6.063   3.693  0.0383 -0.5141  0.1281
 7048TIP3    H142635   4.105   6.014   3.699  0.3938 -0.9962  1.3330
 7048TIP3    H242636   4.254   5.996   3.677  0.3564 -0.2749  0.4400
 7049TIP3   OH242637   3.764   3.849   3.869 -0.0138 -0.0431  0.2371
 7049TIP3    H142638   3.841   3.887   3.911  0.4429 -0.2796 -0.3810
 7049TIP3    H242639   3.792   3.830   3.780  0.1495 -2.9291  0.8294
 7050TIP3   OH242640   0.064   4.073  10.783 -0.4485 -0.9395 -0.1762
 7050TIP3    H142641   0.019   4.123  10.715  1.3476  1.9383  0.5950
 7050TIP3    H242642   0.007   4.080  10.859 -0.7494 -1.0629 -0.3872
 7051TIP3   OH242643   1.289   0.457  14.507 -0.2166 -0.1035  0.2277
 7051TIP3    H142644   1.340   0.496  14.577  0.2862  0.1177 -0.2494
 7051TIP3    H242645   1.302   0.362  14.517 -0.2319 -0.0772  0.4904
 7052TIP3   OH242646   6.182   5.900   5.768 -0.1770  0.0589 -0.2869
 7052TIP3    H142647   6.120   5.882   5.839 -0.0423 -1.0811 -0.4356
 7052TIP3    H242648   6.185   5.818   5.718  0.7281  0.4187 -0.8424
 7053TIP3   OH242649   1.022   6.746  13.426  0.0956 -0.3889  0.1786
 7053TIP3    H142650   0.990   6.704  13.346 -1.7501 -1.6189  1.4949
 7053TIP3    H242651   1.004   6.839  13.414 -0.8855 -0.6553 -0.5277
 7054TIP3   OH242652   1.113   4.489   6.589  0.2302  0.6587 -0.1274
 7054TIP3    H142653   1.076   4.468   6.504  1.7020  0.1122 -0.6555
 7054TIP3    H242654   1.206   4.504   6.573  0.7211 -0.3443  1.5101
 7055TIP3   OH242655   6.132   6.230  12.587  0.0907  0.5389  0.2207
 7055TIP3    H142656   6.065   6.176  12.543 -0.5686  0.4660  1.2798
 7055TIP3    H242657   6.148   6.302  12.526 -0.2788  0.0594 -0.4575
 7056TIP3   OH242658   6.640   5.530   0.175 -0.6411  0.1874 -0.0575
 7056TIP3    H142659   6.610   5.442   0.154 -1.9233  0.6327 -0.1972
 7056TIP3    H242660   6.638   5.535   0.270  1.3795 -0.5533  0.0805
 7057TIP3   OH242661   3.873   4.379  12.411 -0.0309 -0.5880  0.1776
 7057TIP3    H142662   3.926   4.367  12.332 -0.1005 -2.5503  0.3718
 7057TIP3    H242663   3.913   4.454  12.455  0.1373  0.4263 -1.5898
 7058TIP3   OH242664   1.671   0.702   1.150 -0.0131 -0.1357 -0.3669
 7058TIP3    H142665   1.732   0.760   1.103 -1.0432  0.3588 -1.1373
 7058TIP3    H242666   1.586   0.746   1.142 -1.0449 -2.2528 -1.8722
 7059TIP3   OH242667   1.305   0.562  10.409  0.1989 -0.4063 -0.3389
 7059TIP3    H142668   1.294   0.640  10.464  1.1646  0.4910 -1.3574
 7059TIP3    H242669   1.238   0.501  10.439  0.3371  0.2636  1.4467
 7060TIP3   OH242670   2.585   5.125   5.815 -0.5297  0.1488 -0.4858
 7060TIP3    H142671   2.622   5.179   5.885 -1.2022  2.0920 -1.5642
 7060TIP3    H242672   2.555   5.188   5.749 -1.4733 -1.5519 -1.7583
 7061TIP3   OH242673   3.259   1.360  11.823  0.0905 -0.1983 -0.2313
 7061TIP3    H142674   3.284   1.300  11.894  0.8987 -1.9719 -1.9198
 7061TIP3    H242675   3.238   1.303  11.749  0.1501  1.5955 -1.7171
 7062TIP3   OH242676   5.828   0.940   2.873  0.0556  0.5821 -0.2707
 7062TIP3    H142677   5.754   0.981   2.828 -0.9052 -0.1205  0.6336
 7062TIP3    H242678   5.822   0.847   2.850 -0.1237  0.3013  0.8390
 7063TIP3   OH242679   3.968   3.573   1.843 -0.5966  0.5156 -0.3260
 7063TIP3    H142680   4.005   3.487   1.822  0.3989  1.0790 -0.9381
 7063TIP3    H242681   3.989   3.585   1.936 -1.1546 -0.0888 -0.1096
 7064TIP3   OH242682   6.400   1.428  11.003 -0.0363 -0.1654 -0.1891
 7064TIP3    H142683   6.369   1.413  10.914  0.2526  0.2204 -0.3585
 7064TIP3    H242684   6.453   1.508  10.997  0.2380 -0.3077  0.2658
 7065TIP3   OH242685   4.679   2.546  14.098 -0.7980  0.2629  0.8955
 7065TIP3    H142686   4.687   2.456  14.130 -2.2305 -0.8513 -1.5529
 7065TIP3    H242687   4.584   2.560  14.090 -0.5978  0.4863 -2.4179
 7066TIP3   OH242688   0.502   0.391  12.543  0.2049 -0.7710 -0.0586
 7066TIP3    H142689   0.427   0.350  12.501 -0.6981 -0.2517  1.0025
 7066TIP3    H242690   0.576   0.371  12.485 -0.7593 -1.1916 -1.1776
 7067TIP3   OH242691   4.531   2.620   3.462 -0.3864  0.0459 -0.2291
 7067TIP3    H142692   4.475   2.646   3.389 -0.3790  1.0673  0.1120
 7067TIP3    H242693   4.584   2.549   3.428  0.6322  1.4349 -1.6943
 7068TIP3   OH242694   6.429   2.611  11.513 -0.5002  0.2313 -0.4192
 7068TIP3    H142695   6.428   2.706  11.522 -0.6438  0.1548  0.3902
 7068TIP3    H242696   6.343   2.590  11.476 -0.1549  0.4809 -1.4018
 7069TIP3   OH242697   2.877   5.835   2.311  0.1766  0.2869  0.4704
 7069TIP3    H142698   2.819   5.808   2.382  0.2054 -0.7707  0.1033
 7069TIP3    H242699   2.820   5.879   2.249  0.3597  2.5365  1.7624
 7070TIP3   OH242700   6.435   3.092  14.244 -0.1726 -0.4113  0.0272
 7070TIP3    H142701   6.363   3.029  14.253 -0.7430  0.3623  1.2920
 7070TIP3    H242702   6.391   3.175  14.228  0.5696 -0.2898 -1.5292
 7071TIP3   OH242703   3.623   1.746   3.322 -0.5690  0.0432  0.5186
 7071TIP3    H142704   3.576   1.686   3.264  0.5714 -0.8376  0.4579
 7071TIP3    H242705   3.555   1.802   3.359 -1.2856  1.0346 -2.0918
 7072TIP3   OH242706   3.382   6.596   0.665  0.4883  0.3285 -0.5577
 7072TIP3    H142707   3.449   6.655   0.699 -0.3121  0.3240  1.1072
 7072TIP3    H242708   3.431   6.523   0.627  1.4335  0.5080  0.2787
 7073TIP3   OH242709   3.200   4.228   1.835 -0.9468  0.1599  0.0160
 7073TIP3    H142710   3.145   4.208   1.759 -1.3692 -0.7923  0.5596
 7073TIP3    H242711   3.181   4.158   1.897  0.8361 -0.1456  0.2546
 7074TIP3   OH242712   4.385   0.341   4.147  0.0841 -0.4220  0.0485
 7074TIP3    H142713   4.384   0.252   4.111  0.9787 -1.3649  2.1990
 7074TIP3    H242714   4.304   0.380   4.116  0.6163 -1.2456 -2.6254
 7075TIP3   OH242715   1.475   6.185  15.055 -0.0860  0.3010 -0.5874
 7075TIP3    H142716   1.451   6.277  15.062 -0.3380  0.1005  2.7858
 7075TIP3    H242717   1.556   6.177  15.105 -1.3415 -1.6196  1.3671
 7076TIP3   OH242718   2.935   3.472  10.444 -0.5834 -0.0409 -0.2541
 7076TIP3    H142719   2.993   3.488  10.519 -0.4481 -0.4078 -0.2767
 7076TIP3    H242720   2.932   3.555  10.397  0.6127 -0.2516 -0.7307
 7077TIP3   OH242721   4.517   3.835  16.395 -0.3121 -0.1128 -0.4530
 7077TIP3    H142722   4.428   3.803  16.412  0.3289 -1.2065  1.0836
 7077TIP3    H242723   4.560   3.762  16.351  0.1655 -0.0489 -0.0938
 7078TIP3   OH242724   5.647   2.867   5.802 -0.1976 -0.2730 -0.3483
 7078TIP3    H142725   5.628   2.949   5.846 -0.5299 -1.8293  2.6165
 7078TIP3    H242726   5.563   2.822   5.797  0.0342 -0.6178 -1.6550
 7079TIP3   OH242727   5.971   0.379   6.505  0.0393 -0.6093 -0.1844
 7079TIP3    H142728   6.039   0.416   6.561  1.0116  0.3450 -1.9160
 7079TIP3    H242729   5.989   0.285   6.504 -1.2787 -1.0210  2.6966
 7080TIP3   OH242730   4.765   4.854  11.326 -0.5700 -0.0097 -0.2568
 7080TIP3    H142731   4.809   4.770  11.315 -0.9797 -0.1111 -1.1520
 7080TIP3    H242732   4.807   4.892  11.404  1.1007 -0.1052 -1.0478
 7081TIP3   OH242733   1.481   0.982   6.114  0.1405  0.1684 -0.5392
 7081TIP3    H142734   1.452   0.950   6.200  1.5300 -1.6061 -0.6873
 7081TIP3    H242735   1.404   1.026   6.078 -1.2618 -1.2645  0.5640
 7082TIP3   OH242736   4.492   4.068   0.729  0.1822 -0.0324  0.0330
 7082TIP3    H142737   4.397   4.056   0.740  0.0982  0.3077 -0.3075
 7082TIP3    H242738   4.517   4.125   0.802  0.0786  0.1008 -0.0351
 7083TIP3   OH242739   1.689   1.113   1.711  0.5666  0.1926 -0.2414
 7083TIP3    H142740   1.597   1.117   1.737  0.8479 -0.3165  0.8596
 7083TIP3    H242741   1.687   1.074   1.623 -0.1440 -1.8771  0.6315
 7084TIP3   OH242742   3.157   2.213  17.009 -0.3547 -0.1612 -0.3815
 7084TIP3    H142743   3.091   2.156  17.048 -0.8245  1.1272  0.8087
 7084TIP3    H242744   3.214   2.237  17.082  0.4626  0.0458 -1.0702
 7085TIP3   OH242745   6.248   3.244  15.718 -0.1274 -0.9353 -0.3270
 7085TIP3    H142746   6.173   3.289  15.679 -0.4108 -1.7678 -0.7719
 7085TIP3    H242747   6.211   3.163  15.754  0.5165 -1.2622 -0.3849
 7086TIP3   OH242748   0.238   2.081   5.749  0.0526  0.0404  0.2330
 7086TIP3    H142749   0.205   2.170   5.762 -0.6989 -0.1451 -0.3538
 7086TIP3    H242750   0.328   2.084   5.782 -0.2774  0.7633  1.1192
 7087TIP3   OH242751   1.969   0.601   5.419 -0.0629  0.0088  0.1762
 7087TIP3    H142752   1.887   0.604   5.468 -0.9806  1.7977 -1.3554
 7087TIP3    H242753   1.968   0.680   5.365  1.4207 -1.2764 -1.8860
 7088TIP3   OH242754   4.030   5.258  12.824  0.1317  0.0227 -0.1156
 7088TIP3    H142755   4.099   5.324  12.826 -0.5965  0.7866  0.2807
 7088TIP3    H242756   4.076   5.177  12.803  1.8094 -0.2137  3.5266
 7089TIP3   OH242757   6.715   3.534  16.115  0.1388 -0.2263 -0.1635
 7089TIP3    H142758   6.785   3.536  16.180  0.5544 -1.2575 -0.5631
 7089TIP3    H242759   6.673   3.619  16.123  2.2008  0.9183 -0.7529
 7090TIP3   OH242760   4.824   0.863   5.516 -0.6472 -0.6721  0.2403
 7090TIP3    H142761   4.802   0.936   5.458  0.5266  0.7922  1.5322
 7090TIP3    H242762   4.909   0.832   5.484  0.7785  1.1592  1.9738
 7091TIP3   OH242763   3.779   6.605  12.962  0.1836  0.2651  0.4788
 7091TIP3    H142764   3.781   6.524  12.913  1.5092  0.5768 -0.0324
 7091TIP3    H242765   3.854   6.599  13.021  0.8038  1.4544 -0.1542
 7092TIP3   OH242766   1.783   0.129  16.173 -0.1836  0.1462  1.2108
 7092TIP3    H142767   1.692   0.103  16.184 -0.4152 -0.2680 -1.1183
 7092TIP3    H242768   1.821   0.060  16.118  0.8888  1.4585  0.2225
 7093TIP3   OH242769   5.497   2.597   0.113  0.0093 -0.2747 -0.4712
 7093TIP3    H142770   5.447   2.667   0.154 -0.9246 -1.0375 -0.2806
 7093TIP3    H242771   5.579   2.594   0.162 -0.5115 -0.2266  0.4244
 7094TIP3   OH242772   5.057   5.216  15.708 -0.0452 -0.8446 -0.5131
 7094TIP3    H142773   4.999   5.291  15.716  0.3716 -0.5962  0.2093
 7094TIP3    H242774   5.047   5.188  15.616 -0.2368  0.0538 -0.7739
 7095TIP3   OH242775   3.814   6.186   2.433 -0.3209  0.4709  0.4296
 7095TIP3    H142776   3.909   6.171   2.438  0.0952  2.1543 -1.0400
 7095TIP3    H242777   3.798   6.259   2.492 -0.9350 -0.5459  1.5552
 7096TIP3   OH242778   0.288   3.503   1.434  1.1537 -0.1433  0.2752
 7096TIP3    H142779   0.267   3.501   1.527  1.0259 -0.6610  0.2374
 7096TIP3    H242780   0.210   3.467   1.391  0.6703  1.2908 -0.1362
 7097TIP3   OH242781   4.947   0.416   6.142  0.9386 -0.0483  0.1108
 7097TIP3    H142782   4.927   0.380   6.228  0.6655  0.6162  0.3297
 7097TIP3    H242783   4.955   0.339   6.085  1.5511 -0.5124  0.8088
 7098TIP3   OH242784   3.859   1.027   3.805 -0.0206  0.3567  0.3603
 7098TIP3    H142785   3.829   1.039   3.895  0.4218 -1.0814  0.7246
 7098TIP3    H242786   3.913   1.104   3.788  0.5961  0.2333  1.6442
 7099TIP3   OH242787   1.174   1.131   6.908  0.4948 -0.4023 -0.3388
 7099TIP3    H142788   1.226   1.154   6.831 -0.5065  2.4036 -0.2875
 7099TIP3    H242789   1.236   1.084   6.964  2.2186  0.4073 -1.4517
 7100TIP3   OH242790   4.114   1.296  11.630  0.1917 -0.2438 -0.4311
 7100TIP3    H142791   4.102   1.208  11.665  2.6232 -0.3946  0.1781
 7100TIP3    H242792   4.056   1.351  11.684  0.2311 -1.1777  0.5901
 7101TIP3   OH242793   0.352   2.234  11.010  0.1276 -0.5871  0.1874
 7101TIP3    H142794   0.360   2.259  10.918  0.6859 -2.3228 -0.2613
 7101TIP3    H242795   0.269   2.274  11.038  0.3634  0.6758 -0.8014
 7102TIP3   OH242796   3.115   6.252  17.111 -0.1573  0.4280 -0.0965
 7102TIP3    H142797   3.093   6.189  17.180  3.0176  0.9439  1.6260
 7102TIP3    H242798   3.053   6.234  17.041 -1.8979 -1.9322  1.8601
 7103TIP3   OH242799   1.784   0.983  13.047 -0.2386  0.3513  0.0758
 7103TIP3    H142800   1.773   0.934  12.965 -0.5980 -1.5782  1.2039
 7103TIP3    H242801   1.703   1.032  13.057 -0.7953 -0.5205 -0.0468
 7104TIP3   OH242802   5.419   0.702  11.901  0.3044  0.2311  0.1811
 7104TIP3    H142803   5.360   0.680  11.829  0.4032 -0.9504  0.4287
 7104TIP3    H242804   5.406   0.631  11.964  2.2332 -0.2743  0.0844
 7105TIP3   OH242805   2.092   3.921   1.925 -0.2083  0.5186 -0.5104
 7105TIP3    H142806   2.186   3.903   1.936 -0.0996  1.4706  0.2577
 7105TIP3    H242807   2.087   4.017   1.920 -1.0828  0.4437 -1.1401
 7106TIP3   OH242808   0.343   2.689   6.623 -0.6371 -0.1391  0.2014
 7106TIP3    H142809   0.392   2.641   6.556 -1.5902 -0.2485 -0.4430
 7106TIP3    H242810   0.410   2.727   6.679  0.1925  0.0179 -0.8618
 7107TIP3   OH242811   0.074   0.363  11.202 -0.3745  0.3981 -0.3107
 7107TIP3    H142812  -0.012   0.398  11.227 -0.7465 -0.6087 -0.1658
 7107TIP3    H242813   0.055   0.306  11.128  0.2643  0.6622 -0.6799
 7108TIP3   OH242814   1.384   3.609  13.192 -0.2669  0.3487  0.2918
 7108TIP3    H142815   1.455   3.608  13.255  0.4555 -1.4967 -0.4827
 7108TIP3    H242816   1.317   3.665  13.231  0.0454 -0.9051  2.8050
 7109TIP3   OH242817   4.067   4.474   1.017  0.3853 -0.3260 -0.1074
 7109TIP3    H142818   4.014   4.423   0.955  1.2518  0.2946 -1.4026
 7109TIP3    H242819   4.073   4.418   1.095  1.2428 -2.1971 -1.4459
 7110TIP3   OH242820   0.834   3.408  16.051 -0.0660  0.1851 -0.1923
 7110TIP3    H142821   0.749   3.425  16.011 -0.0996 -1.1484 -0.7550
 7110TIP3    H242822   0.816   3.402  16.144 -0.7129 -0.6658 -0.3551
 7111TIP3   OH242823   1.976   0.708  11.126 -0.2738 -0.7637  0.0133
 7111TIP3    H142824   1.928   0.740  11.050  0.4114  0.2137 -0.0330
 7111TIP3    H242825   1.993   0.786  11.179 -1.2685 -1.5052  1.5003
 7112TIP3   OH242826   3.105   1.330   3.656 -0.2591  0.0904  0.0363
 7112TIP3    H142827   3.160   1.330   3.734  0.2341  0.0762 -0.3024
 7112TIP3    H242828   3.045   1.403   3.669  0.6221  0.8589 -0.1140
 7113TIP3   OH242829   4.889   1.305  12.151  0.2570  0.0474 -0.0480
 7113TIP3    H142830   4.967   1.312  12.206  0.0699  3.7519  0.0043
 7113TIP3    H242831   4.852   1.394  12.150 -3.4490 -1.2897 -0.8478
 7114TIP3   OH242832   2.104   1.094   2.034  0.1383  0.4175 -0.4082
 7114TIP3    H142833   2.116   1.020   2.094  0.3881  0.6591 -0.1549
 7114TIP3    H242834   2.045   1.061   1.967 -0.9840  0.4509  0.5300
 7115TIP3   OH242835   0.928   6.599  16.285  0.6088 -0.1289 -0.1357
 7115TIP3    H142836   0.919   6.525  16.225  0.6509 -0.5028  0.3078
 7115TIP3    H242837   1.005   6.577  16.338  0.5864  0.2062  0.0367
 7116TIP3   OH242838   4.324   0.513   1.909  0.0982 -0.5198 -0.2122
 7116TIP3    H142839   4.374   0.574   1.963 -0.2740  0.5901 -1.0925
 7116TIP3    H242840   4.286   0.451   1.972 -1.5205  1.5737  0.9973
 7117TIP3   OH242841   0.886   5.325  15.349  0.2154  0.5198 -0.2071
 7117TIP3    H142842   0.959   5.376  15.384  2.7007 -2.7038 -0.2513
 7117TIP3    H242843   0.921   5.284  15.270 -0.7908 -2.8587  0.9371
 7118TIP3   OH242844   1.172   6.132   0.979  0.8181  0.1508 -0.0186
 7118TIP3    H142845   1.267   6.136   0.993  0.6472  0.2605  1.2344
 7118TIP3    H242846   1.137   6.098   1.062 -0.0797 -1.9312 -1.1791
 7119TIP3   OH242847   0.824   1.291   2.873  0.3351  0.1437 -0.0224
 7119TIP3    H142848   0.882   1.223   2.840 -0.3539  0.1137 -1.2208
 7119TIP3    H242849   0.874   1.332   2.945  1.0912 -1.0414  0.1562
 7120TIP3   OH242850   1.675   6.801  15.277  0.4309 -0.3613  0.3328
 7120TIP3    H142851   1.636   6.887  15.262 -0.1420 -0.7472 -0.4935
 7120TIP3    H242852   1.722   6.810  15.360  1.1236  0.9909 -0.1821
 7121TIP3   OH242853   6.368   2.261   0.935 -0.1444 -0.2874  0.4678
 7121TIP3    H142854   6.454   2.239   0.900  0.1829 -0.9579  1.6522
 7121TIP3    H242855   6.367   2.225   1.023 -0.2072  2.9992  1.9696
 7122TIP3   OH242856   3.765   4.094   4.066  0.4114  0.2143 -0.0429
 7122TIP3    H142857   3.841   4.118   4.120  0.6194  0.6452 -0.5177
 7122TIP3    H242858   3.693   4.086   4.129  0.6375  0.7611  0.2949
 7123TIP3   OH242859   0.233   4.976  16.239  0.3403 -0.8268  0.2980
 7123TIP3    H142860   0.321   5.002  16.266  0.1007  0.0711  0.2418
 7123TIP3    H242861   0.174   5.024  16.297 -0.1237 -0.8851 -0.1138
 7124TIP3   OH242862   5.154   2.947  14.423 -0.2901 -0.2195  0.0569
 7124TIP3    H142863   5.202   2.961  14.504  0.1663 -1.9144  0.1100
 7124TIP3    H242864   5.076   2.899  14.450 -0.1629 -0.7450 -0.5040
 7125TIP3   OH242865   4.280   2.937   3.557  0.5344  0.3124 -0.1609
 7125TIP3    H142866   4.369   2.968   3.544  0.6015 -0.1878 -0.9644
 7125TIP3    H242867   4.270   2.865   3.495 -0.8744  1.2582 -1.0883
 7126TIP3   OH242868   4.178   0.473  13.334 -0.5547 -0.1246  0.0877
 7126TIP3    H142869   4.092   0.508  13.309  0.8872  1.8146 -2.6723
 7126TIP3    H242870   4.177   0.383  13.303 -1.5816 -0.1295  0.0947
 7127TIP3   OH242871   0.230   5.810  11.198  0.1467  0.1537  0.8313
 7127TIP3    H142872   0.296   5.793  11.132 -2.0747 -3.1911 -0.8105
 7127TIP3    H242873   0.191   5.725  11.216 -2.5762  1.6675  2.9444
 7128TIP3   OH242874   2.695   3.293   0.580 -0.2702 -0.0719 -0.2957
 7128TIP3    H142875   2.783   3.326   0.600  0.2758 -0.4502 -1.8985
 7128TIP3    H242876   2.643   3.371   0.563 -0.1235  0.1316  0.1630
 7129TIP3   OH242877   2.984   1.005  12.474 -0.2784 -0.2157 -0.2273
 7129TIP3    H142878   3.022   1.075  12.420 -0.2866  0.3597  0.4966
 7129TIP3    H242879   3.060   0.959  12.510 -0.2566  0.3864  0.5188
 7130TIP3   OH242880   3.150   6.391   1.547 -0.0230  0.3125 -0.4882
 7130TIP3    H142881   3.153   6.458   1.478  0.4455  0.1670 -0.6127
 7130TIP3    H242882   3.104   6.434   1.620 -0.0938  0.6302 -0.7161
 7131TIP3   OH242883   3.023   4.425  15.474  0.4532 -0.1522  0.3746
 7131TIP3    H142884   3.070   4.342  15.484 -0.3174 -0.5743  0.5741
 7131TIP3    H242885   3.087   4.484  15.433  0.6209 -1.2157 -0.9646
 7132TIP3   OH242886   5.422   6.563  15.041 -0.1303 -1.3093  0.2057
 7132TIP3    H142887   5.499   6.601  14.999  0.2120 -2.4470 -0.2267
 7132TIP3    H242888   5.403   6.484  14.991 -2.8543 -0.0167 -1.0054
 7133TIP3   OH242889   0.909   4.719   4.152  0.1556  0.2226  0.0353
 7133TIP3    H142890   0.824   4.708   4.194  0.2092 -3.1998 -0.4591
 7133TIP3    H242891   0.893   4.703   4.060  1.3680 -0.9359 -0.0067
 7134TIP3   OH242892   2.262   0.626   2.760 -0.3366 -0.7340  0.1780
 7134TIP3    H142893   2.228   0.593   2.677  1.1334 -0.3314 -0.6244
 7134TIP3    H242894   2.192   0.680   2.795 -0.1644  1.1064 -2.0352
 7135TIP3   OH242895   2.748   1.838   1.878  0.4162  0.0592 -0.2259
 7135TIP3    H142896   2.761   1.757   1.828 -0.2668 -0.0199 -0.2886
 7135TIP3    H242897   2.697   1.895   1.819  0.3241  0.2826  0.0631
 7136TIP3   OH242898   0.375   3.396   4.134  0.0464  1.0779  0.3189
 7136TIP3    H142899   0.421   3.312   4.133 -1.4491  0.2213  0.0593
 7136TIP3    H242900   0.407   3.440   4.213  1.6285  0.7465 -0.0876
 7137TIP3   OH242901   6.471   4.439  12.781 -0.5414  0.4562  0.2198
 7137TIP3    H142902   6.534   4.444  12.852  0.0749  0.4391 -0.3166
 7137TIP3    H242903   6.462   4.346  12.763 -0.7454  0.4569  0.3173
 7138TIP3   OH242904   3.875   4.235  11.411  0.4228  0.1717 -0.3389
 7138TIP3    H142905   3.864   4.201  11.322 -1.7530  0.0126 -0.0724
 7138TIP3    H242906   3.807   4.302  11.419  1.2482  0.8839  0.8855
 7139TIP3   OH242907   6.754   2.569  12.862 -0.6437  0.0682 -0.3614
 7139TIP3    H142908   6.729   2.476  12.864  0.0063 -0.1391 -1.1603
 7139TIP3    H242909   6.829   2.574  12.921 -0.9080  0.1637 -0.0305
 7140TIP3   OH242910   1.491   4.291   0.725  0.2743  0.4038 -0.2130
 7140TIP3    H142911   1.504   4.321   0.815 -0.8212 -0.3222  0.2002
 7140TIP3    H242912   1.563   4.332   0.676  1.0631  0.5651  1.0325
 7141TIP3   OH242913   3.252   0.292   3.693  0.0348 -0.3747 -0.0154
 7141TIP3    H142914   3.265   0.339   3.611 -1.0867  0.7839  0.4407
 7141TIP3    H242915   3.211   0.209   3.666 -0.5832  0.1085 -0.6188
 7142TIP3   OH242916   2.643   4.873  17.120  0.4402 -0.4547 -0.9939
 7142TIP3    H142917   2.713   4.808  17.109  3.1439  2.2440 -1.0711
 7142TIP3    H242918   2.640   4.890  17.214 -0.6167 -1.0104 -0.9127
 7143TIP3   OH242919   6.362   3.351  13.920  0.0354 -0.1839 -0.4317
 7143TIP3    H142920   6.447   3.314  13.897  0.3775  1.3736 -1.8221
 7143TIP3    H242921   6.303   3.325  13.849 -0.6781 -1.2309  0.5053
 7144TIP3   OH242922   3.365   0.766   5.605  0.0485 -1.0145 -0.5669
 7144TIP3    H142923   3.325   0.809   5.530  3.1445  0.7812 -1.3905
 7144TIP3    H242924   3.374   0.835   5.671  0.7037 -1.6309  0.0112
 7145TIP3   OH242925   5.879   0.651   4.691 -0.1460  0.2203 -0.1919
 7145TIP3    H142926   5.885   0.740   4.726 -2.2492  1.1236 -1.9330
 7145TIP3    H242927   5.863   0.663   4.597 -1.0167 -2.0002 -0.3829
 7146TIP3   OH242928   5.623   4.642  16.317  0.3458 -0.3781 -0.3656
 7146TIP3    H142929   5.606   4.628  16.224 -0.2585 -0.0945 -0.3031
 7146TIP3    H242930   5.718   4.634  16.326  0.5250  0.6199 -1.1883
 7147TIP3   OH242931   5.225   1.434  15.870  0.5274 -0.1667  0.7083
 7147TIP3    H142932   5.266   1.422  15.784  0.5764  1.3360  0.5076
 7147TIP3    H242933   5.141   1.389  15.863  0.9629 -0.9281  0.2217
 7148TIP3   OH242934   1.143   1.978  13.657 -0.4732  0.0122 -0.1794
 7148TIP3    H142935   1.141   1.894  13.612 -1.3018  0.5438 -1.1784
 7148TIP3    H242936   1.216   2.026  13.617 -0.6945  0.1780 -0.3876
 7149TIP3   OH242937   5.607   2.876  13.505 -0.3464 -0.4147 -0.2000
 7149TIP3    H142938   5.528   2.911  13.464  1.1288  2.6533 -0.7087
 7149TIP3    H242939   5.668   2.865  13.433  0.7419  0.4735  0.5512
 7150TIP3   OH242940   5.776   2.637   3.250  0.2880  0.2396 -0.0049
 7150TIP3    H142941   5.728   2.703   3.299  0.0824  1.1185 -1.3458
 7150TIP3    H242942   5.823   2.686   3.183  2.1063 -0.7193  0.4903
 7151TIP3   OH242943   5.537   4.693   1.966 -0.4256  0.2806  0.1620
 7151TIP3    H142944   5.473   4.760   1.942 -2.1587 -1.5687 -0.6565
 7151TIP3    H242945   5.535   4.692   2.062 -0.4289  1.3074  0.1906
 7152TIP3   OH242946   0.789   6.277   1.783  1.1860 -0.3698 -0.1725
 7152TIP3    H142947   0.845   6.338   1.734  0.6669  0.6351  0.4541
 7152TIP3    H242948   0.794   6.307   1.873  1.1496 -1.4539  0.1983
 7153TIP3   OH242949   1.659   0.786  13.924 -0.0857  0.1916  0.5435
 7153TIP3    H142950   1.692   0.774  14.013 -1.7764 -0.7210  1.0977
 7153TIP3    H242951   1.565   0.798  13.934 -0.1064  1.7689 -1.0242
 7154TIP3   OH242952   3.333   2.332   4.887 -0.0882 -0.1508 -0.4568
 7154TIP3    H142953   3.370   2.379   4.812  0.6384  0.8435  0.4979
 7154TIP3    H242954   3.244   2.365   4.896 -0.3324 -0.6016 -1.1374
 7155TIP3   OH242955   4.124   5.128  16.230 -0.4135  0.1408  0.0296
 7155TIP3    H142956   4.118   5.129  16.325 -1.8032  1.1760 -0.0379
 7155TIP3    H242957   4.120   5.220  16.204 -0.9266 -0.1686 -1.0693
 7156TIP3   OH242958   0.043   3.230   4.541  0.0997  0.0299 -0.4835
 7156TIP3    H142959   0.029   3.310   4.591  0.8352 -0.0519 -0.1241
 7156TIP3    H242960   0.099   3.177   4.597 -1.6494 -1.4230 -0.0243
 7157TIP3   OH242961   3.739   3.017  12.524 -0.3255  0.1580 -0.2190
 7157TIP3    H142962   3.690   2.935  12.516  1.8298 -1.2955  0.3447
 7157TIP3    H242963   3.715   3.052  12.609  1.7729 -2.2010  1.5238
 7158TIP3   OH242964   2.601   3.695  16.312 -0.1975  0.4779 -0.2012
 7158TIP3    H142965   2.607   3.602  16.333  1.0469  0.8896  1.4943
 7158TIP3    H242966   2.617   3.699  16.217  2.9542 -0.8499  0.1351
 7159TIP3   OH242967   6.575   6.172  11.315 -0.6274 -0.4087 -0.4810
 7159TIP3    H142968   6.661   6.212  11.325 -0.4961 -0.7954 -0.0431
 7159TIP3    H242969   6.532   6.225  11.248  0.2957 -0.7960 -1.4029
 7160TIP3   OH242970   2.629   4.334   3.020 -0.1069 -0.3471 -0.1310
 7160TIP3    H142971   2.566   4.264   3.001  1.7964 -1.9293 -1.0299
 7160TIP3    H242972   2.713   4.299   2.990  1.3678  1.3142  1.8007
 7161TIP3   OH242973   2.111   0.248   3.993 -0.3630 -0.1008  0.1756
 7161TIP3    H142974   2.020   0.279   3.992 -0.5046 -0.3782 -2.1258
 7161TIP3    H242975   2.103   0.153   3.991 -0.0711 -0.1178 -0.8404
 7162TIP3   OH242976   2.856   6.344  12.632  0.5856  0.3816 -0.1093
 7162TIP3    H142977   2.909   6.299  12.698 -1.3145  1.4159  2.2764
 7162TIP3    H242978   2.915   6.412  12.597  1.4633  0.2116  0.9748
 7163TIP3   OH242979   3.081   3.468  12.297  0.0958 -0.4283  0.6107
 7163TIP3    H142980   3.017   3.535  12.319  1.0347 -0.1311  2.5831
 7163TIP3    H242981   3.031   3.386  12.297 -0.8901  0.1188 -1.0631
 7164TIP3   OH242982   5.296   2.513   5.808  0.3551 -0.4763  0.2506
 7164TIP3    H142983   5.233   2.536   5.876  0.4556 -0.8481  0.4754
 7164TIP3    H242984   5.341   2.595   5.788 -1.9356  0.3997 -1.7811
 7165TIP3   OH242985   5.676   0.930   4.390  0.1920 -0.0507 -1.0811
 7165TIP3    H142986   5.601   0.982   4.358 -1.6414 -1.3109  0.8839
 7165TIP3    H242987   5.679   0.949   4.484  3.2065  0.9063 -1.2694
 7166TIP3   OH242988   5.281   0.970   1.262  0.0399 -0.5189  1.1472
 7166TIP3    H142989   5.282   1.065   1.272 -1.1794 -0.6574  3.4130
 7166TIP3    H242990   5.303   0.937   1.349 -1.4206 -2.2751  0.9221
 7167TIP3   OH242991   5.492   2.921  16.444  0.5252  0.4938 -0.0070
 7167TIP3    H142992   5.542   2.840  16.432  0.1591  0.5683 -2.8425
 7167TIP3    H242993   5.558   2.987  16.463  0.8885 -0.3115  1.7520
 7168TIP3   OH242994   4.990   1.105   5.927  0.6451 -0.3555  0.0163
 7168TIP3    H142995   5.006   1.010   5.920  0.0186 -0.4290 -0.5097
 7168TIP3    H242996   5.023   1.128   6.014  2.7757 -0.6426 -0.6388
 7169TIP3   OH242997   2.914   3.281  12.161  0.1270  0.1940 -0.3546
 7169TIP3    H142998   2.856   3.283  12.237  0.3732  1.2812 -0.1737
 7169TIP3    H242999   2.861   3.318  12.090  0.2885  0.3162 -0.4120
 7170TIP3   OH243000   2.277   1.291   5.190  0.0821 -0.4204 -0.1023
 7170TIP3    H143001   2.313   1.286   5.101 -1.7180 -0.3821 -0.8818
 7170TIP3    H243002   2.315   1.371   5.226 -0.6329  0.6145 -1.5535
 7171TIP3   OH243003   6.281   6.276   6.366 -0.2634 -0.1874  0.2835
 7171TIP3    H143004   6.344   6.336   6.406  0.4129  0.7126 -1.9694
 7171TIP3    H243005   6.205   6.331   6.346 -0.3739 -0.4917 -0.1456
 7172TIP3   OH243006   5.257   6.049   2.009  0.5067 -0.7926  0.0434
 7172TIP3    H143007   5.332   6.108   2.021 -0.0050 -0.2017  0.4176
 7172TIP3    H243008   5.225   6.033   2.098 -1.0875  0.6665 -0.2240
 7173TIP3   OH243009   4.126   4.340  13.097  0.0073  0.2287 -0.1595
 7173TIP3    H143010   4.204   4.340  13.152  1.0891 -0.5824 -1.6266
 7173TIP3    H243011   4.125   4.427  13.057  0.4977  0.0281 -0.6063
 7174TIP3   OH243012   3.953   4.584   4.313 -0.1048 -0.2728 -0.2325
 7174TIP3    H143013   3.887   4.548   4.254  1.0844 -2.0273 -0.5653
 7174TIP3    H243014   3.910   4.588   4.398 -0.6548 -1.3592 -0.4478
 7175TIP3   OH243015   3.747   2.510   3.508  1.0201 -0.1165  0.1203
 7175TIP3    H143016   3.715   2.596   3.481 -0.9785 -0.8580 -0.0542
 7175TIP3    H243017   3.761   2.462   3.426  0.1047 -0.6263  0.2507
 7176TIP3   OH243018   5.881   0.420   3.265 -0.3746  0.6951 -0.1051
 7176TIP3    H143019   5.862   0.328   3.243  0.4410  0.8904 -1.8408
 7176TIP3    H243020   5.796   0.464   3.258 -0.8594  0.0115  1.2034
 7177TIP3   OH243021   6.293   0.720   3.014 -0.4167  0.2114 -0.4472
 7177TIP3    H143022   6.215   0.767   2.984 -1.7932 -1.7271 -0.1015
 7177TIP3    H243023   6.261   0.632   3.036  1.6111 -0.2182  1.0965
 7178TIP3   OH243024   3.782   2.140   1.232 -0.2947  0.0728 -0.0127
 7178TIP3    H143025   3.731   2.169   1.157 -0.2455 -0.4967 -0.2713
 7178TIP3    H243026   3.732   2.171   1.308 -0.3306  0.6719 -0.2718
 7179TIP3   OH243027   1.865   0.797  15.551  0.1661  0.6544  0.2269
 7179TIP3    H143028   1.933   0.822  15.489 -2.0491  1.9090 -1.8896
 7179TIP3    H243029   1.845   0.877  15.599 -0.0355  0.3881  0.5963
 7180TIP3   OH243030   0.875   4.004  11.554 -0.3382  0.2516 -0.6800
 7180TIP3    H143031   0.886   4.060  11.631  0.8570  1.7772 -1.9172
 7180TIP3    H243032   0.962   4.002  11.513 -1.3065  0.7955 -2.8635
 7181TIP3   OH243033   1.480   1.602   1.284 -0.3726  0.4929  0.0188
 7181TIP3    H143034   1.403   1.655   1.302 -0.6646  0.3756 -0.8570
 7181TIP3    H243035   1.554   1.655   1.314 -0.7329  0.9426  0.1099
 7182TIP3   OH243036   3.433   0.921   3.902  0.3828  0.3168 -0.0602
 7182TIP3    H143037   3.339   0.912   3.920  0.4033  1.5803  0.8272
 7182TIP3    H243038   3.462   0.989   3.963  2.1801 -1.0740  0.7148
 7183TIP3   OH243039   5.090   5.478   5.582 -0.5272 -0.0477  0.1822
 7183TIP3    H143040   5.181   5.462   5.606 -0.0715  2.7127  0.6834
 7183TIP3    H243041   5.044   5.485   5.666 -0.9111  0.0268 -0.0336
 7184TIP3   OH243042   0.781   6.612   2.270  0.4080 -0.3261 -0.3115
 7184TIP3    H143043   0.856   6.560   2.298  0.3396  0.6033  1.7503
 7184TIP3    H243044   0.705   6.557   2.287  0.4785 -0.4387 -0.3577
 7185TIP3   OH243045   4.670   2.983   0.951  0.4179 -0.1985  0.3424
 7185TIP3    H143046   4.610   2.909   0.943  0.1932 -0.3863  2.8251
 7185TIP3    H243047   4.615   3.061   0.938  0.4076 -0.4188 -1.0333
 7186TIP3   OH243048   6.241   5.290   3.879 -0.3805  0.5941  0.0154
 7186TIP3    H143049   6.276   5.285   3.790 -1.7641 -0.6275 -0.4923
 7186TIP3    H243050   6.233   5.384   3.896 -0.9927  0.8564 -1.5353
 7187TIP3   OH243051   0.358   2.541   0.318  0.0623  0.0712 -0.8018
 7187TIP3    H143052   0.378   2.516   0.408  1.1443  0.6636 -0.8523
 7187TIP3    H243053   0.437   2.587   0.288 -0.6419  0.7128 -1.7405
 7188TIP3   OH243054   6.355   1.589   5.883 -0.0999 -0.0883 -0.1876
 7188TIP3    H143055   6.314   1.504   5.870 -0.9226  0.1784  0.5445
 7188TIP3    H243056   6.341   1.636   5.801  1.6161 -1.1405 -1.1294
 7189TIP3   OH243057   0.933   1.582  11.119 -0.3225  0.1739  0.4055
 7189TIP3    H143058   0.880   1.553  11.193 -2.0655 -1.5394 -1.3920
 7189TIP3    H243059   0.888   1.661  11.087 -1.0451 -0.5034 -0.2922
 7190TIP3   OH243060   3.965   3.367  12.681 -0.6090  0.2046 -0.0836
 7190TIP3    H143061   4.006   3.447  12.715 -1.2410  0.8569 -0.8279
 7190TIP3    H243062   3.935   3.321  12.759  1.1393 -0.0942  0.4625
 7191TIP3   OH243063   5.315   6.026  13.281 -0.2728 -0.2230 -0.1962
 7191TIP3    H143064   5.227   6.018  13.243 -0.6217 -0.0889  0.5472
 7191TIP3    H243065   5.367   5.961  13.235 -0.5392  0.2826 -1.2521
 7192TIP3   OH243066   3.803   4.769   3.880 -0.9280  0.4129 -0.2701
 7192TIP3    H143067   3.783   4.678   3.857  0.1809  0.1877 -0.3765
 7192TIP3    H243068   3.718   4.806   3.905 -1.3751 -0.6845 -0.0920
 7193TIP3   OH243069   3.608   0.200   1.511  0.5340  0.4822 -0.9384
 7193TIP3    H143070   3.513   0.204   1.499  0.4892 -1.3854 -1.5547
 7193TIP3    H243071   3.643   0.257   1.442 -0.1212  2.0783 -0.0177
 7194TIP3   OH243072   3.942   0.651  12.280 -0.2943  0.7715 -0.6761
 7194TIP3    H143073   3.915   0.635  12.190  0.4882 -2.2824 -0.5064
 7194TIP3    H243074   4.038   0.656  12.276 -0.0224 -1.8988  0.1326
 7195TIP3   OH243075   2.613   6.719   3.558  0.8768  0.8159 -0.1268
 7195TIP3    H143076   2.546   6.663   3.599  2.0653 -0.5741  0.0099
 7195TIP3    H243077   2.566   6.799   3.534 -1.1241 -0.5504 -1.0898
 7196TIP3   OH243078   3.199   0.031  13.601 -0.3219  0.3624 -0.1226
 7196TIP3    H143079   3.137  -0.041  13.595 -2.2031  1.9710 -0.9616
 7196TIP3    H243080   3.146   0.110  13.588  1.5250  1.9703  1.5480
 7197TIP3   OH243081   4.974   1.158   5.250  0.2534 -0.0384 -0.5747
 7197TIP3    H143082   4.972   1.252   5.233  1.5141 -0.4216 -3.3762
 7197TIP3    H243083   4.886   1.137   5.280 -0.6961  1.7196 -1.9461
 7198TIP3   OH243084   5.447   6.589  12.479  0.0949  0.4463 -0.2965
 7198TIP3    H143085   5.427   6.682  12.481  0.0155  0.4538 -1.1352
 7198TIP3    H243086   5.379   6.549  12.533  0.9557  0.9988  1.2715
 7199TIP3   OH243087   2.327   6.571  16.055  0.0325  0.2227  0.1987
 7199TIP3    H143088   2.309   6.515  15.979  1.9409  0.4483 -0.4751
 7199TIP3    H243089   2.323   6.660  16.021 -2.5559  0.5545  1.1760
 7200TIP3   OH243090   0.032   4.099  11.388 -0.0709 -0.2455 -0.7720
 7200TIP3    H143091  -0.011   4.062  11.465  0.3193  2.2363  0.7832
 7200TIP3    H243092  -0.036   4.152  11.345  0.4407  0.7649 -0.3828
 7201TIP3   OH243093   2.968   0.360  13.069  0.0806  0.3445  0.4613
 7201TIP3    H143094   2.950   0.293  13.003 -0.2523 -0.6582  1.5484
 7201TIP3    H243095   2.881   0.386  13.100  0.1802  1.5913 -0.2263
 7202TIP3   OH243096   1.644   5.900   4.913 -0.3391  0.1052  0.1871
 7202TIP3    H143097   1.706   5.961   4.953  0.6920 -0.6012 -0.2793
 7202TIP3    H243098   1.586   5.956   4.862 -0.5318  0.8471  1.1921
 7203TIP3   OH243099   6.674   0.978   2.595  0.3880  0.7461 -0.3466
 7203TIP3    H143100   6.676   0.914   2.524 -1.5273  1.6104 -1.2501
 7203TIP3    H243101   6.664   1.063   2.551  1.4716  1.5660  0.8831
 7204TIP3   OH243102   1.166   3.862  14.476 -0.4205 -0.2724  0.5571
 7204TIP3    H143103   1.190   3.922  14.546  0.9050  0.8222 -0.7718
 7204TIP3    H243104   1.099   3.910  14.426 -0.2022 -0.3678  0.1685
 7205TIP3   OH243105   2.536   1.362  17.194 -0.2810 -0.2132  0.0325
 7205TIP3    H143106   2.557   1.407  17.112 -1.4014 -0.3303 -0.3352
 7205TIP3    H243107   2.453   1.318  17.177  0.4749 -1.9447  0.5764
 7206TIP3   OH243108   5.594   1.493  11.023 -0.4139 -0.1344  0.3279
 7206TIP3    H143109   5.505   1.479  10.991  0.6453 -2.2128 -2.0106
 7206TIP3    H243110   5.637   1.542  10.953  0.4842  0.2295  1.1124
 7207TIP3   OH243111   0.463   4.837   2.087 -0.0701  0.3266  0.1525
 7207TIP3    H143112   0.490   4.860   1.997  1.5617  0.2613  0.5847
 7207TIP3    H243113   0.502   4.906   2.141 -1.1674  0.4437  0.8201
 7208TIP3   OH243114   4.896   5.522  13.844  0.6261 -0.6635  0.0939
 7208TIP3    H143115   4.812   5.563  13.864  1.6270  2.0931 -0.8013
 7208TIP3    H243116   4.874   5.434  13.816 -1.9768 -0.0216 -0.1518
 7209TIP3   OH243117   5.535   0.836   2.933 -0.0575 -0.1357 -0.8134
 7209TIP3    H143118   5.556   0.909   2.875  1.2732  0.1529 -0.0161
 7209TIP3    H243119   5.482   0.778   2.880  0.1699  0.6704 -1.9623
 7210TIP3   OH243120   5.898   1.322  15.674 -0.6519 -0.4371  0.4200
 7210TIP3    H143121   5.981   1.346  15.716 -0.1293  0.9133 -1.2541
 7210TIP3    H243122   5.911   1.232  15.646  0.5755 -0.0178 -0.4789
 7211TIP3   OH243123   6.765   1.703  14.719  0.4897  0.1728 -0.2511
 7211TIP3    H143124   6.834   1.638  14.704  1.0600  0.9147 -0.9507
 7211TIP3    H243125   6.807   1.787  14.701 -0.9834  0.5554 -2.2587
 7212TIP3   OH243126   2.089   2.286   0.962  0.4399  0.0924 -0.9308
 7212TIP3    H143127   2.066   2.241   0.882  0.5368  0.3666 -1.1152
 7212TIP3    H243128   2.113   2.374   0.934 -1.0180  0.6816 -0.4459
 7213TIP3   OH243129   0.840   2.642   4.789  0.0582  0.7890 -0.3816
 7213TIP3    H143130   0.873   2.727   4.818  0.9095  0.8247 -1.3948
 7213TIP3    H243131   0.889   2.578   4.842 -0.3280  0.9099  0.1309
 7214TIP3   OH243132   5.995   0.507  13.998  0.2061 -0.1844  0.1426
 7214TIP3    H143133   6.013   0.486  14.090  0.3283 -0.3381  0.0838
 7214TIP3    H243134   6.065   0.464  13.950 -0.8967 -1.6818 -0.1872
 7215TIP3   OH243135   2.010   4.852   0.670  0.0354  0.2512  0.2380
 7215TIP3    H143136   2.061   4.810   0.739 -2.5104 -0.4287  1.8672
 7215TIP3    H243137   2.071   4.913   0.628  3.0573 -2.7700 -0.1921
 7216TIP3   OH243138   6.656   0.385   5.648 -0.3211  0.1497 -0.1569
 7216TIP3    H143139   6.565   0.402   5.622 -0.1017  0.5098 -0.6952
 7216TIP3    H243140   6.668   0.438   5.727 -0.5394  0.1985 -0.1541
 7217TIP3   OH243141   1.205   4.028   1.376 -0.1509  0.4521 -0.6820
 7217TIP3    H143142   1.211   3.968   1.451 -0.3309  0.9437 -0.2736
 7217TIP3    H243143   1.111   4.035   1.359 -0.0943  0.1059 -1.1477
 7218TIP3   OH243144   3.681   4.672   1.010 -0.3440  0.1288  0.1638
 7218TIP3    H143145   3.702   4.712   0.925 -1.9018 -1.1763 -0.9097
 7218TIP3    H243146   3.683   4.578   0.992 -2.7104 -0.1454  1.0131
 7219TIP3   OH243147   2.409   1.517  13.134  0.5214 -0.6263 -0.3369
 7219TIP3    H143148   2.434   1.562  13.215 -2.8223  0.2163  0.3797
 7219TIP3    H243149   2.414   1.424  13.155 -1.3683 -0.4168  1.3096
 7220TIP3   OH243150   4.565   4.892  14.399 -0.0783  0.0825 -0.2708
 7220TIP3    H143151   4.609   4.913  14.482  1.2254 -0.0610 -0.9010
 7220TIP3    H243152   4.541   4.977  14.363  0.3554  0.2083 -0.2706
 7221TIP3   OH243153   6.191   1.726  14.301 -0.3324  0.2648 -0.2376
 7221TIP3    H143154   6.097   1.729  14.317 -0.4984 -0.0931 -1.0741
 7221TIP3    H243155   6.220   1.643  14.338 -0.3979  0.2512 -0.2177
 7222TIP3   OH243156   6.566   4.412  11.011  0.1194 -0.3285 -0.4566
 7222TIP3    H143157   6.599   4.461  10.936 -1.9556  2.0334  0.0701
 7222TIP3    H243158   6.486   4.370  10.980 -0.4879  0.2609  0.2710
 7223TIP3   OH243159   1.713   1.818  16.045  0.1283 -0.5548  0.1410
 7223TIP3    H143160   1.678   1.803  16.133 -0.4635  0.5944  0.1251
 7223TIP3    H243161   1.794   1.867  16.059 -1.4645  2.3894  0.0375
 7224TIP3   OH243162   2.748   6.771  15.502 -0.3136 -0.0680  0.7292
 7224TIP3    H143163   2.731   6.677  15.501 -1.0350 -0.0402 -2.8744
 7224TIP3    H243164   2.665   6.811  15.476  1.0446  1.1814 -2.0899
 7225TIP3   OH243165   0.881   1.201  16.406 -0.2191  0.3320 -0.0452
 7225TIP3    H143166   0.908   1.125  16.456 -1.5067  1.4813  2.6251
 7225TIP3    H243167   0.831   1.165  16.333 -0.9193 -1.3958  1.2141
 7226TIP3   OH243168   6.367   6.043  16.217 -0.1907 -0.1606  0.0641
 7226TIP3    H143169   6.349   6.073  16.306 -0.1546  3.2105 -0.9385
 7226TIP3    H243170   6.460   6.019  16.219  0.5096  2.2527  0.4652
 7227TIP3   OH243171   1.739   1.487   3.599  0.1944  0.2783 -0.5483
 7227TIP3    H143172   1.724   1.518   3.688 -0.0262 -1.0879 -0.0853
 7227TIP3    H243173   1.656   1.448   3.573 -0.1154  1.6903 -1.8163
 7228TIP3   OH243174   5.887   2.720   5.746  0.0335  0.0574  0.2036
 7228TIP3    H143175   5.809   2.750   5.794 -0.4888 -0.6954 -0.1564
 7228TIP3    H243176   5.901   2.788   5.680  0.4640  0.8504  1.0803
 7229TIP3   OH243177   1.695   3.735   4.256  0.4643  0.0354 -0.3686
 7229TIP3    H143178   1.613   3.758   4.299  0.4850 -0.3354 -0.1238
 7229TIP3    H243179   1.739   3.676   4.318  0.9920  0.3656 -0.4186
 7230TIP3   OH243180   0.579   4.276  13.263 -0.7858  0.2963  0.1952
 7230TIP3    H143181   0.489   4.299  13.286 -0.7098  0.9548 -0.1600
 7230TIP3    H243182   0.609   4.348  13.207 -0.5710 -0.6912 -1.0090
 7231TIP3   OH243183   0.485   3.684   1.429 -0.4479  0.5026  0.0800
 7231TIP3    H143184   0.423   3.611   1.433 -1.8692  1.6718  0.3195
 7231TIP3    H243185   0.513   3.686   1.337  1.1924 -1.5439  0.4592
 7232TIP3   OH243186   3.294   2.126   2.691  0.2244 -0.3820 -0.3560
 7232TIP3    H143187   3.267   2.187   2.760  0.3614 -0.5739 -0.1350
 7232TIP3    H243188   3.212   2.104   2.646  0.0687 -0.6238  0.0403
 7233TIP3   OH243189   0.455   2.093  16.064 -0.1669 -0.4447  0.2984
 7233TIP3    H143190   0.403   2.035  16.008  1.1924 -1.4895  0.0580
 7233TIP3    H243191   0.466   2.173  16.013  1.3666 -1.5126 -1.1559
 7234TIP3   OH243192   2.214   2.192   1.708 -0.0760  0.4564  0.2958
 7234TIP3    H143193   2.290   2.153   1.666  0.1121  0.0530  0.9835
 7234TIP3    H243194   2.189   2.129   1.776 -0.6157  0.8962  0.5179
 7235TIP3   OH243195   1.702   4.533   2.373 -0.8015 -0.1564 -0.1279
 7235TIP3    H143196   1.611   4.543   2.401 -0.8439 -0.6424 -0.0998
 7235TIP3    H243197   1.732   4.623   2.359 -0.7818  0.1171  1.4663
 7236TIP3   OH243198   3.004   6.519  14.153  0.2354 -0.0236 -0.7534
 7236TIP3    H143199   3.077   6.541  14.211  0.3529 -0.5805 -0.6882
 7236TIP3    H243200   3.044   6.506  14.067  0.2243 -0.3736 -0.7084
 7237TIP3   OH243201   2.938   6.163  16.916  0.2784  0.0979  0.4036
 7237TIP3    H143202   2.894   6.078  16.917 -0.4405  0.4593  1.3215
 7237TIP3    H243203   2.957   6.179  16.824  0.4496 -1.0651  0.2165
 7238TIP3   OH243204   5.620   3.445  15.307  0.2475 -0.2967  0.6390
 7238TIP3    H143205   5.667   3.490  15.377  4.4713 -1.5784 -1.0587
 7238TIP3    H243206   5.618   3.507  15.235 -2.3747  0.3352  1.1632
 7239TIP3   OH243207   5.341   4.628   4.374  0.5925  0.2708  0.3993
 7239TIP3    H143208   5.380   4.566   4.435  1.3586 -0.5524 -0.8921
 7239TIP3    H243209   5.411   4.649   4.312 -0.0070  1.4923  0.0977
 7240TIP3   OH243210   2.652   4.068   4.238  0.5754 -0.1867 -0.3178
 7240TIP3    H143211   2.647   4.138   4.173  1.2564 -0.6640 -0.8906
 7240TIP3    H243212   2.745   4.046   4.243  0.4470 -0.6208  0.3313
 7241TIP3   OH243213   3.146   4.018   3.394 -0.3222  0.9060 -0.0820
 7241TIP3    H143214   3.201   3.977   3.461 -0.8083 -0.1960 -0.3259
 7241TIP3    H243215   3.162   3.966   3.315 -0.2695  1.7693 -0.6522
 7242TIP3   OH243216   2.188   1.815  15.174 -0.2521 -0.3889 -0.1140
 7242TIP3    H143217   2.162   1.741  15.229 -0.1940 -1.8722 -1.9689
 7242TIP3    H243218   2.279   1.796  15.150  0.4423  1.3460  0.9691
 7243TIP3   OH243219   0.449   0.909  10.781  0.4527  0.0712  0.5423
 7243TIP3    H143220   0.488   0.822  10.795  1.5369  0.0445 -2.0777
 7243TIP3    H243221   0.380   0.894  10.717  1.6199  1.3183 -1.0622
 7244TIP3   OH243222   1.193   5.993   5.286 -0.3234  0.0565 -0.9140
 7244TIP3    H143223   1.256   5.921   5.299 -1.2714 -1.1226 -2.5173
 7244TIP3    H243224   1.160   6.011   5.374  0.0157 -1.3973 -0.4479
 7245TIP3   OH243225   2.470   1.678   1.456  0.0233  0.1654  0.0455
 7245TIP3    H143226   2.466   1.656   1.363  1.7280 -0.0645 -0.0111
 7245TIP3    H243227   2.514   1.603   1.497  1.2646  1.1941  0.6692
 7246TIP3   OH243228   5.756   6.148  17.039 -0.0885 -0.6342  0.0447
 7246TIP3    H143229   5.696   6.161  17.113  0.6120  1.2805  0.3357
 7246TIP3    H243230   5.781   6.236  17.013 -2.0610 -1.0424 -4.0173
 7247TIP3   OH243231   5.526   2.069  12.693  0.6545  0.0793 -0.1420
 7247TIP3    H143232   5.436   2.043  12.713  1.1621  0.2015  2.8869
 7247TIP3    H243233   5.580   2.019  12.754  2.6263  0.3776 -1.5323
 7248TIP3   OH243234   3.756   1.746   1.731  0.0772  0.0576  0.8684
 7248TIP3    H143235   3.678   1.788   1.695  1.6242  0.8125 -1.8819
 7248TIP3    H243236   3.778   1.678   1.667  1.2720 -0.6557  1.9898
 7249TIP3   OH243237   6.503   6.629   0.882  0.3274 -0.3963 -0.7837
 7249TIP3    H143238   6.481   6.715   0.918  0.6605 -0.6070 -0.0603
 7249TIP3    H243239   6.572   6.647   0.819  0.9221 -0.2150 -0.0908
 7250TIP3   OH243240   6.382   5.015  12.656  0.0154  0.3463 -0.4484
 7250TIP3    H143241   6.387   4.926  12.622 -0.7837 -0.2520  0.8799
 7250TIP3    H243242   6.289   5.038  12.651 -0.1890  0.1403  1.4312
 7251TIP3   OH243243   0.678   5.709  17.278 -0.8640 -0.0911 -0.4095
 7251TIP3    H143244   0.734   5.785  17.261 -0.0183 -0.7032 -0.4026
 7251TIP3    H243245   0.661   5.712  17.372 -2.1818  0.9914 -0.6442
 7252TIP3   OH243246   1.625   1.230   5.761 -0.0095 -0.0634 -0.2892
 7252TIP3    H143247   1.574   1.194   5.688 -0.4260  2.1663 -1.1656
 7252TIP3    H243248   1.567   1.220   5.837 -0.1717 -1.0434 -0.5234
 7253TIP3   OH243249   0.708   6.586  11.735  0.3068 -0.2497 -0.4164
 7253TIP3    H143250   0.663   6.669  11.718 -1.0426 -0.8253  0.1492
 7253TIP3    H243251   0.682   6.529  11.663  1.1377 -0.2229 -0.7428
 7254TIP3   OH243252   3.263   5.535   0.368  0.4736  0.1861 -0.6124
 7254TIP3    H143253   3.243   5.564   0.457  0.6872  0.3328 -0.6099
 7254TIP3    H243254   3.228   5.605   0.312 -0.5966 -0.4020 -0.7055
 7255TIP3   OH243255   6.521   5.235   5.749  0.3801  0.6053 -0.1892
 7255TIP3    H143256   6.450   5.183   5.785  1.0913 -0.4998 -0.3357
 7255TIP3    H243257   6.483   5.277   5.672 -0.8378  2.1325  1.1925
 7256TIP3   OH243258   0.332   3.209   1.832  0.3482 -0.8782  0.4872
 7256TIP3    H143259   0.390   3.252   1.895 -1.2207 -0.3559  1.6614
 7256TIP3    H243260   0.303   3.280   1.774 -1.3737 -0.4832  1.7416
 7257TIP3   OH243261   3.437   5.651  11.852 -0.2158 -0.2307 -0.4507
 7257TIP3    H143262   3.396   5.734  11.827  0.2782  0.0710 -0.2649
 7257TIP3    H243263   3.525   5.674  11.880 -0.3826 -0.6935  0.5182
 7258TIP3   OH243264   6.807   1.553   4.300  0.0089  0.1545  0.0023
 7258TIP3    H143265   6.723   1.539   4.345 -0.2272 -0.9663 -0.7469
 7258TIP3    H243266   6.784   1.555   4.207  0.8182 -0.1815 -0.2128
 7259TIP3   OH243267   6.590   3.386   4.702  0.2598 -0.0318  0.3473
 7259TIP3    H143268   6.618   3.472   4.732 -0.7877  0.6099 -0.4523
 7259TIP3    H243269   6.562   3.400   4.612 -0.4409 -1.0957  0.3841
 7260TIP3   OH243270   3.417   1.502  12.140  0.7132 -0.0624 -0.2115
 7260TIP3    H143271   3.414   1.492  12.235  1.0408 -0.9172 -0.2760
 7260TIP3    H243272   3.398   1.594  12.124 -1.4767 -0.3104  0.5857
 7261TIP3   OH243273   0.793   3.842  16.716 -0.8098 -0.0611 -0.0839
 7261TIP3    H143274   0.836   3.788  16.783 -2.1209 -0.8829  0.1319
 7261TIP3    H243275   0.861   3.857  16.651  0.2778  0.0959  1.0446
 7262TIP3   OH243276   3.181   0.988   0.199 -0.3675 -0.0810 -0.3059
 7262TIP3    H143277   3.259   1.027   0.158  0.5349 -0.5688  0.8784
 7262TIP3    H243278   3.216   0.926   0.262 -1.7473 -0.6950 -0.1119
 7263TIP3   OH243279   1.744   0.683   5.601 -0.0729  0.0752  0.0204
 7263TIP3    H143280   1.818   0.651   5.654 -0.0677 -0.1183 -0.1036
 7263TIP3    H243281   1.734   0.775   5.628 -0.5614 -0.2303  0.9160
 7264TIP3   OH243282   1.975   5.802  11.885  0.3028  0.1926  0.0818
 7264TIP3    H143283   2.040   5.857  11.841 -0.3894  2.2098  1.4509
 7264TIP3    H243284   2.025   5.726  11.915  2.2974  2.0666  1.8428
 7265TIP3   OH243285   5.845   5.945   1.625 -0.0986 -0.3344 -0.0147
 7265TIP3    H143286   5.815   5.891   1.551 -2.1404  1.6575 -0.7662
 7265TIP3    H243287   5.771   5.945   1.686  0.0642  1.1228  0.2086
 7266TIP3   OH243288   2.620   0.484   0.505 -0.1244 -0.5607  0.1234
 7266TIP3    H143289   2.546   0.505   0.562 -0.8008  0.3556 -1.0571
 7266TIP3    H243290   2.580   0.456   0.422  0.8390  0.1668 -0.6150
 7267TIP3   OH243291   4.069   2.690   1.949 -0.3011  0.6347 -0.3300
 7267TIP3    H143292   3.988   2.737   1.927 -2.4968 -1.9636  1.6485
 7267TIP3    H243293   4.078   2.624   1.880 -0.8314 -0.1447  0.3314
 7268TIP3   OH243294   5.446   2.213   2.461 -0.0374 -0.2997 -0.0049
 7268TIP3    H143295   5.530   2.177   2.492  1.4227  0.7306 -2.4859
 7268TIP3    H243296   5.408   2.143   2.409 -1.6653 -1.4063  2.4988
 7269TIP3   OH243297   5.085   3.210  11.706  0.4702  0.1593  0.2321
 7269TIP3    H143298   5.017   3.222  11.640  1.4242 -0.7500 -0.9509
 7269TIP3    H243299   5.077   3.118  11.732 -0.8306  0.8216  2.4992
 7270TIP3   OH243300   2.787   3.955  10.782 -0.7101  0.7491  0.3052
 7270TIP3    H143301   2.755   3.934  10.870 -0.7258 -2.5588 -0.3848
 7270TIP3    H243302   2.710   3.944  10.726 -0.2080  0.7554 -0.3946
 7271TIP3   OH243303   0.902   5.750   5.437 -0.0088  0.2876  0.0066
 7271TIP3    H143304   0.951   5.707   5.507 -2.5218 -1.1239  1.0653
 7271TIP3    H243305   0.872   5.832   5.476 -2.3271 -0.9830  1.1313
 7272TIP3   OH243306   4.317   2.107  17.194  0.2573 -0.1245 -0.3107
 7272TIP3    H143307   4.313   2.012  17.180 -0.5638 -0.0277 -0.7645
 7272TIP3    H243308   4.391   2.119  17.254  0.4419 -1.0382 -0.3400
 7273TIP3   OH243309   2.319   4.348  11.587  0.0556  0.2713  0.1311
 7273TIP3    H143310   2.348   4.439  11.578 -0.2873  0.3505 -0.2047
 7273TIP3    H243311   2.235   4.354  11.632  1.3270 -0.0651  2.7163
 7274TIP3   OH243312   0.160   0.998  16.997  0.1683  0.0816  0.7540
 7274TIP3    H143313   0.179   0.911  16.962  2.1818 -0.7782  3.6077
 7274TIP3    H243314   0.201   1.058  16.935  3.2163 -1.3345  1.2094
 7275TIP3   OH243315   3.964   4.700  16.684 -0.0502 -0.1004 -0.0093
 7275TIP3    H143316   3.891   4.683  16.744 -0.4321 -2.5676 -1.0147
 7275TIP3    H243317   4.022   4.625  16.696  1.3413  0.8401 -0.6419
 7276TIP3   OH243318   3.649   4.631  13.093  0.0586 -0.2654 -0.6319
 7276TIP3    H143319   3.604   4.641  13.178 -0.6223 -0.2477 -0.9854
 7276TIP3    H243320   3.659   4.537  13.082 -0.9378 -0.3366 -1.0708
 7277TIP3   OH243321   3.538   2.163  13.892 -0.1647  0.2508 -0.0579
 7277TIP3    H143322   3.616   2.131  13.937  0.2854 -1.3135 -1.8018
 7277TIP3    H243323   3.495   2.084  13.860 -1.4116  1.2000 -0.8206
 7278TIP3   OH243324   3.883   5.206  17.031  0.6724 -0.4460 -0.6324
 7278TIP3    H143325   3.934   5.125  17.035  0.0979 -0.7794  0.7392
 7278TIP3    H243326   3.848   5.216  17.120 -1.1188  0.0951 -1.3501
 7279TIP3   OH243327   1.859   3.311  14.546 -0.4624  0.1959 -0.1357
 7279TIP3    H143328   1.916   3.331  14.471 -0.4932  2.2017  0.3305
 7279TIP3    H243329   1.864   3.389  14.601 -2.1797 -0.3623  0.8611
 7280TIP3   OH243330   0.181   5.074   4.069  0.4833  0.3139 -0.1808
 7280TIP3    H143331   0.205   5.166   4.076  1.0301  0.0696  1.7612
 7280TIP3    H243332   0.224   5.032   4.144 -2.6522 -0.8830  1.1352
 7281TIP3   OH243333   5.117   4.544  17.097 -0.1328  0.2192 -0.3020
 7281TIP3    H143334   5.029   4.572  17.071 -0.1407  0.2254 -0.2671
 7281TIP3    H243335   5.104   4.493  17.176 -0.0653  0.5502 -0.0761
 7282TIP3   OH243336   4.078   3.285  11.977  0.7399  0.1906  0.5647
 7282TIP3    H143337   3.997   3.308  12.022  0.3554  0.1992 -0.1191
 7282TIP3    H243338   4.061   3.200  11.937  1.9308 -1.0567  2.5097
 7283TIP3   OH243339   5.231   5.165   3.923 -0.6938  0.1876  0.0549
 7283TIP3    H143340   5.271   5.240   3.968  0.1563 -0.2263  0.0051
 7283TIP3    H243341   5.262   5.089   3.972 -0.5778 -0.2038 -0.6177
 7284TIP3   OH243342   2.825   3.497   5.397 -0.1244 -0.0948  0.3983
 7284TIP3    H143343   2.772   3.561   5.349 -0.7754 -0.9489 -0.0333
 7284TIP3    H243344   2.776   3.482   5.478  0.2974  0.3449  0.7384
 7285TIP3   OH243345   3.762   5.860   4.086 -0.6796  0.4288 -0.1101
 7285TIP3    H143346   3.697   5.912   4.134  0.5137  0.3385  1.6969
 7285TIP3    H243347   3.818   5.925   4.043 -1.1969  0.5373 -0.6284
 7286TIP3   OH243348   5.757   5.834  11.584  0.6930 -0.5503  0.3748
 7286TIP3    H143349   5.764   5.746  11.619  0.4028 -0.6634  0.1571
 7286TIP3    H243350   5.705   5.824  11.504 -1.0386  0.0652  1.3445
 7287TIP3   OH243351   2.218   6.757  16.561 -0.2951  0.3371 -0.3429
 7287TIP3    H143352   2.252   6.795  16.480 -1.2808 -1.4231 -1.6503
 7287TIP3    H243353   2.295   6.721  16.606  0.2441  1.2631 -0.4943
 7288TIP3   OH243354   5.766   3.382  13.272 -0.2805  0.0223  0.0172
 7288TIP3    H143355   5.775   3.442  13.198  0.3847 -1.2472 -0.9658
 7288TIP3    H243356   5.693   3.324  13.247 -0.5704  0.0867  0.7097
 7289TIP3   OH243357   3.580   1.004   4.329  0.4888  0.6154 -0.0499
 7289TIP3    H143358   3.609   1.065   4.398  1.1715  1.1430 -0.7910
 7289TIP3    H243359   3.651   1.006   4.265  0.7452 -1.3358  0.1305
 7290TIP3   OH243360   4.794   1.558  12.915  0.0025  0.2451  0.4610
 7290TIP3    H143361   4.887   1.571  12.897 -0.4345  1.9907 -0.8190
 7290TIP3    H243362   4.784   1.463  12.924  2.1321  0.1052  2.1491
 7291TIP3   OH243363   2.789   4.101   2.620 -0.2530 -0.0656 -0.5119
 7291TIP3    H143364   2.883   4.085   2.619 -0.2148  0.1499 -1.3203
 7291TIP3    H243365   2.751   4.019   2.650  0.0604 -1.0682 -2.6437
 7292TIP3   OH243366   5.593   5.589  16.670  0.4624 -0.1122 -0.5088
 7292TIP3    H143367   5.674   5.630  16.638  1.1496  0.0339  1.3212
 7292TIP3    H243368   5.619   5.544  16.750 -1.0198 -1.1953 -0.5974
 7293TIP3   OH243369   0.452   5.359  12.469 -0.8153 -0.3823 -0.0014
 7293TIP3    H143370   0.432   5.445  12.434 -1.9167 -1.3569 -1.8910
 7293TIP3    H243371   0.543   5.343  12.442 -0.8260 -0.0818 -0.2166
 7294TIP3   OH243372   1.534   6.778   5.571  0.3242  0.3931 -0.3715
 7294TIP3    H143373   1.479   6.854   5.551  1.8838  1.8785  0.6600
 7294TIP3    H243374   1.604   6.781   5.506 -0.4735 -1.1804 -1.3599
 7295TIP3   OH243375   1.535   4.078   3.527  0.1127  0.2610  0.0362
 7295TIP3    H143376   1.538   4.017   3.601  3.1683 -0.6177 -0.6822
 7295TIP3    H243377   1.509   4.024   3.452 -1.1750  0.7640  0.0936
 7296TIP3   OH243378   4.362   0.740  16.737  0.1035  0.2322 -0.0279
 7296TIP3    H143379   4.371   0.786  16.654  1.0350 -0.7669 -0.5094
 7296TIP3    H243380   4.288   0.681  16.724  0.8980 -0.6938 -0.5626
 7297TIP3   OH243381   6.446   5.854  11.286 -0.0433 -0.5261 -1.0384
 7297TIP3    H143382   6.529   5.868  11.331  0.0502 -1.2938 -0.9677
 7297TIP3    H243383   6.421   5.941  11.254 -0.7051  0.3006  1.4893
 7298TIP3   OH243384   5.905   6.691  12.608  0.5181 -0.4466  0.1740
 7298TIP3    H143385   5.826   6.644  12.636  0.3106  0.6198  1.4646
 7298TIP3    H243386   5.875   6.754  12.544  0.7731 -1.9055 -1.4428
 7299TIP3   OH243387   1.540   0.763   0.680 -0.3679  0.3029 -0.0118
 7299TIP3    H143388   1.456   0.735   0.717 -0.7527  0.7973 -0.5004
 7299TIP3    H243389   1.529   0.856   0.661  0.8275  0.7688  1.3835
 7300TIP3   OH243390   6.603   5.171  14.729 -0.7370  0.2228 -0.3930
 7300TIP3    H143391   6.520   5.129  14.751 -0.4181 -0.0611  0.2893
 7300TIP3    H243392   6.649   5.107  14.675 -0.4939 -0.0752  0.1643
 7301TIP3   OH243393   2.063   2.383   1.848  0.0662 -0.0651 -0.2763
 7301TIP3    H143394   2.113   2.361   1.926 -1.0435  0.5876  0.6477
 7301TIP3    H243395   2.062   2.302   1.796  0.0902 -0.7746  0.8030
 7302TIP3   OH243396   0.734   0.754  16.441 -0.7482 -0.7652  0.3135
 7302TIP3    H143397   0.806   0.780  16.383 -0.6641  1.1368  1.1935
 7302TIP3    H243398   0.747   0.807  16.520 -2.9239 -0.6187  0.6172
 7303TIP3   OH243399   5.895   3.230  10.761 -0.4733  0.0269  0.0359
 7303TIP3    H143400   5.823   3.188  10.715  0.5615 -2.1526  0.2833
 7303TIP3    H243401   5.967   3.168  10.754  1.2330  1.8928  0.2690
 7304TIP3   OH243402   5.256   2.002  17.157 -0.4803  0.2611 -0.3524
 7304TIP3    H143403   5.251   2.022  17.250 -0.2528 -0.2529 -0.2254
 7304TIP3    H243404   5.266   2.087  17.114 -0.2764  0.4756  0.1164
 7305TIP3   OH243405   2.864   6.147  10.755 -0.4358  0.2461 -0.7971
 7305TIP3    H143406   2.956   6.167  10.771 -0.8301  1.7253 -0.2461
 7305TIP3    H243407   2.865   6.058  10.719  0.9801 -0.8445  1.6901
 7306TIP3   OH243408   0.310   5.383  14.782 -0.3438 -0.0853 -0.3535
 7306TIP3    H143409   0.327   5.289  14.780 -1.0942 -0.2434  0.0444
 7306TIP3    H243410   0.292   5.402  14.874 -1.3444  0.2218 -0.5941
 7307TIP3   OH243411   6.650   1.428  12.588 -0.1726  0.3256  0.4271
 7307TIP3    H143412   6.621   1.493  12.524 -0.5106 -0.0761  0.1678
 7307TIP3    H243413   6.702   1.478  12.651 -0.4954  0.8612  0.2736
 7308TIP3   OH243414   5.094   0.572  12.058 -0.2566 -0.2004  0.6615
 7308TIP3    H143415   5.040   0.583  11.980  0.6407  0.8158  0.1547
 7308TIP3    H243416   5.056   0.497  12.103  0.5032 -2.2404 -1.8478
 7309TIP3   OH243417   3.047   3.799   2.152  0.1560 -0.1518  0.3789
 7309TIP3    H143418   3.064   3.708   2.130 -1.7489 -0.2356 -1.0171
 7309TIP3    H243419   3.075   3.807   2.243  1.9461 -1.6422  0.0266
 7310TIP3   OH243420   1.921   5.111  13.306 -0.1477 -0.6753 -0.7961
 7310TIP3    H143421   1.846   5.059  13.334  0.1122 -1.3897 -1.4058
 7310TIP3    H243422   1.995   5.051  13.312  0.2619 -0.1787 -0.8611
 7311TIP3   OH243423   5.146   4.426  16.684  0.2535 -0.2560 -0.1343
 7311TIP3    H143424   5.239   4.404  16.688  0.1914 -0.7501 -1.2278
 7311TIP3    H243425   5.110   4.391  16.765  0.6654 -1.7689 -0.5860
 7312TIP3   OH243426   1.797   4.349  16.648  0.1619  0.5026  0.2160
 7312TIP3    H143427   1.886   4.329  16.618 -0.4488 -2.0707 -0.1006
 7312TIP3    H243428   1.806   4.365  16.742  0.7748 -1.3721  0.5100
 7313TIP3   OH243429   1.125   4.696  17.297  0.5058 -0.2308 -0.1346
 7313TIP3    H143430   1.155   4.632  17.361  1.0966 -0.1959 -0.3699
 7313TIP3    H243431   1.184   4.770  17.308 -0.3493  0.3905  0.3265
 7314TIP3   OH243432   3.412   3.371   5.816  0.7476  0.7909  0.4349
 7314TIP3    H143433   3.397   3.383   5.910  0.6456  0.6849  0.4326
 7314TIP3    H243434   3.413   3.460   5.781  0.3019  0.8092  0.4631
 7315TIP3   OH243435   4.138   0.207  12.686 -0.3394 -0.4173 -0.3492
 7315TIP3    H143436   4.113   0.144  12.619 -0.0503 -1.2398  0.3061
 7315TIP3    H243437   4.145   0.290  12.639 -0.1295 -0.9788 -1.3360
 7316TIP3   OH243438   2.847   2.220  12.914  0.1705 -0.8479  0.0769
 7316TIP3    H143439   2.805   2.134  12.918  0.4902 -1.1015 -1.5786
 7316TIP3    H243440   2.775   2.282  12.925 -0.2758 -1.3050 -0.2329
 7317TIP3   OH243441   0.762   6.747   0.617  0.4923 -0.1313  0.5164
 7317TIP3    H143442   0.840   6.740   0.673  1.4398  0.3233 -0.6986
 7317TIP3    H243443   0.774   6.678   0.551  0.4721  0.7083 -0.3870
 7318TIP3   OH243444   3.487   2.016   1.406  0.3094 -0.0083 -0.0425
 7318TIP3    H143445   3.475   2.061   1.322  0.4107 -0.2957 -0.2143
 7318TIP3    H243446   3.518   2.083   1.466 -0.1508  0.2880 -0.1347
 7319TIP3   OH243447   3.288   2.092  14.252 -0.0938 -0.3271  0.4540
 7319TIP3    H143448   3.233   2.104  14.175 -0.2306  0.0212  0.6003
 7319TIP3    H243449   3.354   2.162  14.245 -0.7699  0.4097  1.2171
 7320TIP3   OH243450   0.710   1.842  13.116 -0.7224  0.0373  0.1833
 7320TIP3    H143451   0.785   1.803  13.160 -0.1690 -0.6851 -1.3453
 7320TIP3    H243452   0.669   1.770  13.068  0.1066  1.1748 -2.4099
 7321TIP3   OH243453   6.525   1.329   4.488 -0.3694 -1.1341 -0.3096
 7321TIP3    H143454   6.603   1.298   4.441  0.1863 -1.0259  0.5028
 7321TIP3    H243455   6.459   1.263   4.471 -0.0373 -1.3405 -0.8439
 7322TIP3   OH243456   2.988   3.560   1.853 -0.6667  0.4064 -0.9235
 7322TIP3    H143457   2.954   3.650   1.854 -2.1468 -0.0429  2.4196
 7322TIP3    H243458   2.911   3.505   1.840 -0.3958 -0.4455  0.7653
 7323TIP3   OH243459   3.098   3.709   0.478 -0.1147  0.1205 -0.4251
 7323TIP3    H143460   3.144   3.775   0.426  0.8128 -0.7325 -0.7123
 7323TIP3    H243461   3.113   3.627   0.431  1.4542 -0.8300  1.5695
 7324TIP3   OH243462   4.664   2.801  14.831  0.0413 -0.1812 -0.0690
 7324TIP3    H143463   4.618   2.805  14.747  1.5836  0.7222 -0.9090
 7324TIP3    H243464   4.628   2.723  14.874 -0.9904 -0.4990 -1.4291
 7325TIP3   OH243465   1.932   0.830   1.303  0.5489  0.0596  0.1771
 7325TIP3    H143466   1.836   0.828   1.305  0.4779  1.4832 -0.4507
 7325TIP3    H243467   1.957   0.751   1.257 -0.3242 -0.3738  0.4357
 7326TIP3   OH243468   4.925   1.789  11.979 -0.4984  0.6630 -0.1286
 7326TIP3    H143469   4.835   1.761  11.966  0.0753 -1.4189  0.0977
 7326TIP3    H243470   4.925   1.882  11.954 -3.2208  1.4612  2.2584
 7327TIP3   OH243471   4.106   0.596  15.608  0.1102  0.0758  0.4046
 7327TIP3    H143472   4.127   0.686  15.632 -1.1409 -0.0346  2.0774
 7327TIP3    H243473   4.039   0.569  15.671  0.7954 -2.1910  0.2536
 7328TIP3   OH243474   3.646   4.110  14.112  0.0855 -0.1226  0.0550
 7328TIP3    H143475   3.565   4.109  14.163  0.0574 -0.1566  0.0101
 7328TIP3    H243476   3.676   4.201  14.116 -1.8138  0.7876 -2.8270
 7329TIP3   OH243477   3.760   0.220  11.564 -0.3589 -0.1072 -0.0914
 7329TIP3    H143478   3.704   0.295  11.543 -0.2432 -0.1261 -0.4727
 7329TIP3    H243479   3.718   0.179  11.639 -0.4676  0.2949  0.0690
 7330TIP3   OH243480   4.447   6.481  15.619  0.0304  0.2713  0.3558
 7330TIP3    H143481   4.360   6.445  15.635  0.4657 -1.6361 -1.2789
 7330TIP3    H243482   4.495   6.411  15.577  2.2855  1.4060  0.8785
 7331TIP3   OH243483   3.947   2.154  15.989  0.0205  0.2756 -0.4900
 7331TIP3    H143484   3.871   2.213  15.995 -0.0788  0.2139 -1.1144
 7331TIP3    H243485   3.933   2.091  16.059  1.5831  2.6333  2.1767
 7332TIP3   OH243486   6.179   0.287   6.194 -0.1158  0.4930 -0.2907
 7332TIP3    H143487   6.112   0.353   6.178  1.4138  1.8500 -1.3516
 7332TIP3    H243488   6.188   0.284   6.290 -0.3216  1.7120 -0.2234
 7333TIP3   OH243489   1.430   3.484  16.977  0.0124  0.2178  0.3776
 7333TIP3    H143490   1.357   3.520  16.927  1.1555  1.3447 -0.5515
 7333TIP3    H243491   1.480   3.561  17.005  0.8132 -0.5232  1.0515
 7334TIP3   OH243492   0.723   0.780  13.960 -0.3353  0.8900 -0.0691
 7334TIP3    H143493   0.810   0.758  13.993 -1.1103 -1.0146  0.8478
 7334TIP3    H243494   0.719   0.875  13.965  0.1355  0.8494  4.1399
 7335TIP3   OH243495   2.998   6.443  12.349  0.1239  0.3550  0.4089
 7335TIP3    H143496   3.049   6.499  12.408 -0.8845  1.0053  0.6800
 7335TIP3    H243497   2.911   6.482  12.347 -0.3334 -0.6431 -0.1847
 7336TIP3   OH243498   2.351   2.433   1.801 -0.0874 -0.1990 -0.4638
 7336TIP3    H143499   2.309   2.350   1.780  1.7252 -1.0282 -1.0110
 7336TIP3    H243500   2.385   2.422   1.890  2.2392 -1.0024 -1.3807
 7337TIP3   OH243501   6.313   3.882  13.942  0.2871 -0.3910  0.6819
 7337TIP3    H143502   6.389   3.824  13.936  1.8333  1.7147 -1.8581
 7337TIP3    H243503   6.344   3.956  13.994  0.6406  1.3060 -1.8221
 7338TIP3   OH243504   4.517   6.645   5.883 -0.2512  0.3856  0.4427
 7338TIP3    H143505   4.503   6.738   5.865  1.6574  0.4879 -0.7143
 7338TIP3    H243506   4.522   6.640   5.979 -2.1193  1.1575  0.6211
 7339TIP3   OH243507   5.745   6.758   4.617  0.1347  0.3913  0.4392
 7339TIP3    H143508   5.723   6.687   4.677 -0.0303 -0.9683 -1.1534
 7339TIP3    H243509   5.787   6.824   4.672  2.5743 -1.9589  1.6213
 7340TIP3   OH243510   2.202   1.667   4.051 -0.0518  0.7013  0.1470
 7340TIP3    H143511   2.160   1.713   4.124  0.2791  1.3908 -0.0975
 7340TIP3    H243512   2.296   1.679   4.066  0.0088  1.2719 -0.6628
 7341TIP3   OH243513   5.620   3.029  11.786 -0.6922 -0.3591 -0.5533
 7341TIP3    H143514   5.553   3.028  11.718  0.8070 -0.8950 -2.0902
 7341TIP3    H243515   5.700   3.056  11.741 -0.0163  1.1136  1.4028
 7342TIP3   OH243516   5.012   1.034  16.822 -0.4128 -0.2759  0.6780
 7342TIP3    H143517   5.101   1.012  16.851 -0.9633 -1.5145  1.5192
 7342TIP3    H243518   4.977   0.951  16.790 -1.4185  0.1021  0.7875
 7343TIP3   OH243519   6.615   4.659   2.453 -0.4302 -0.4744 -0.3569
 7343TIP3    H143520   6.682   4.627   2.393 -0.3136 -0.4345 -0.2484
 7343TIP3    H243521   6.570   4.729   2.404 -0.3326 -0.4383 -0.3952
 7344TIP3   OH243522   3.011   1.947   0.319 -0.3816 -0.0021  0.0240
 7344TIP3    H143523   2.964   2.027   0.343  0.0245  1.0062 -2.2524
 7344TIP3    H243524   3.063   1.926   0.396 -1.1791  1.4184  1.0065
 7345TIP3   OH243525   2.759   1.421   1.853 -0.4499  0.3286 -0.6046
 7345TIP3    H143526   2.760   1.504   1.807 -0.5240 -0.4772 -2.1408
 7345TIP3    H243527   2.830   1.370   1.813  0.4150  0.0677  1.1510
 7346TIP3   OH243528   4.806   2.990  11.168 -0.6782  0.1819 -0.4239
 7346TIP3    H143529   4.737   2.942  11.122 -1.9054  1.7583 -0.2844
 7346TIP3    H243530   4.761   3.032  11.241  0.5136  0.8941 -0.0846
 7347TIP3   OH243531   1.184   6.336  12.679 -0.0939  0.5191 -0.3542
 7347TIP3    H143532   1.238   6.381  12.745 -0.5422 -1.2473  1.3153
 7347TIP3    H243533   1.246   6.282  12.630 -0.2250 -1.5544  1.6015
 7348TIP3   OH243534   4.285   0.141   0.773 -0.1243 -0.1857 -0.0132
 7348TIP3    H143535   4.379   0.125   0.766 -0.2616 -1.0698  0.0157
 7348TIP3    H243536   4.248   0.094   0.698 -0.7372 -1.7517  1.2177
 7349TIP3   OH243537   4.210   1.455  15.887 -0.3884  0.5765 -0.1225
 7349TIP3    H143538   4.151   1.442  15.812 -1.5918  0.2438  0.8393
 7349TIP3    H243539   4.298   1.444  15.850 -0.8293  2.2779 -1.8518
 7350TIP3   OH243540   5.953   6.242  11.111  0.7385 -0.3142 -0.1839
 7350TIP3    H143541   5.906   6.165  11.079 -1.4916  0.9285 -0.0909
 7350TIP3    H243542   5.998   6.277  11.033  1.4623 -1.4438 -0.3013
 7351TIP3   OH243543   5.303   4.538  14.052  0.0596  0.4744  0.2444
 7351TIP3    H143544   5.398   4.533  14.059  0.0914 -1.1662 -0.8705
 7351TIP3    H243545   5.287   4.552  13.959 -0.8135 -0.8265  0.1738
 7352TIP3   OH243546   0.962   5.974   5.804  0.7007 -0.2170 -0.1205
 7352TIP3    H143547   0.931   5.914   5.873  1.9132 -2.6941 -1.5770
 7352TIP3    H243548   0.916   6.056   5.821 -2.0939 -1.9250  1.2473
 7353TIP3   OH243549   6.613   4.110   1.954  0.4793 -0.2677 -0.5627
 7353TIP3    H143550   6.616   4.032   1.899 -1.6541 -1.7546  1.2395
 7353TIP3    H243551   6.521   4.138   1.951  0.7701  0.9083  0.5253
 7354TIP3   OH243552   1.619   6.425  13.444 -0.7772 -0.2303  0.9494
 7354TIP3    H143553   1.545   6.422  13.383  1.2840 -1.2720 -1.7101
 7354TIP3    H243554   1.642   6.333  13.457  1.1184  0.1041  0.2467
 7355TIP3   OH243555   2.033   3.477  14.373 -0.5964 -0.1004  0.5557
 7355TIP3    H143556   2.068   3.489  14.285 -0.2082  0.0091  0.7222
 7355TIP3    H243557   2.025   3.566  14.409  1.4805 -0.2304  1.4809
 7356TIP3   OH243558   6.568   1.568  14.216 -0.0050 -0.3532  0.2602
 7356TIP3    H143559   6.473   1.573  14.202 -0.2749 -1.6026  1.3808
 7356TIP3    H243560   6.580   1.600  14.306  0.2653 -2.7076  1.1282
 7357TIP3   OH243561   4.237   3.588   6.373  0.4063  0.3668  0.3114
 7357TIP3    H143562   4.158   3.534   6.375  0.6225 -0.2258 -2.7359
 7357TIP3    H243563   4.209   3.673   6.405 -1.6646  0.3447 -1.2235
 7358TIP3   OH243564   3.664   0.975  16.737 -0.1604  0.6707  0.4485
 7358TIP3    H143565   3.605   1.021  16.796 -0.2126 -0.9921  1.7782
 7358TIP3    H243566   3.726   1.042  16.708 -1.2194  1.9212  0.9483
 7359TIP3   OH243567   4.076   3.835  13.587 -0.1296  0.2705 -0.5250
 7359TIP3    H143568   4.082   3.752  13.540 -0.2756 -0.2446  0.3270
 7359TIP3    H243569   4.015   3.817  13.659  1.9879  0.2312  1.3974
 7360TIP3   OH243570   1.451   5.681  11.832  0.0389  0.8236  0.4323
 7360TIP3    H143571   1.421   5.771  11.821 -2.8209 -0.0010  0.7436
 7360TIP3    H243572   1.525   5.672  11.772  0.4359  3.3720  0.4609
 7361TIP3   OH243573   6.732   4.545  11.492  0.2258 -0.0046  0.2802
 7361TIP3    H143574   6.784   4.626  11.492 -1.1240  0.9103  0.3874
 7361TIP3    H243575   6.642   4.575  11.477 -0.7913 -1.1719  3.2880
 7362TIP3   OH243576   2.757   4.847  11.523 -0.3519  0.1266 -0.4225
 7362TIP3    H143577   2.813   4.910  11.570 -0.1643 -0.3564  0.0052
 7362TIP3    H243578   2.755   4.880  11.433  3.9195 -1.9323 -1.5229
 7363TIP3   OH243579   0.692   4.263  15.971 -0.5299  0.3449 -0.2977
 7363TIP3    H143580   0.760   4.286  15.908 -0.0739 -1.9818 -0.7683
 7363TIP3    H243581   0.645   4.190  15.930 -1.5945  0.1680  1.1557
 7364TIP3   OH243582   2.212   0.054  17.178  0.5456  0.1507  0.6024
 7364TIP3    H143583   2.130   0.044  17.226 -1.2907  0.5964 -2.1437
 7364TIP3    H243584   2.238   0.145  17.194  1.4704 -0.4550  2.7927
 7365TIP3   OH243585   4.537   6.716  15.508  0.4369 -0.3606 -0.1979
 7365TIP3    H143586   4.477   6.763  15.566  1.2789 -0.1152  0.4883
 7365TIP3    H243587   4.517   6.623  15.522  0.1752 -0.2793 -0.0300
 7366TIP3   OH243588   0.738   5.175   5.535 -0.0612  0.2739  0.4563
 7366TIP3    H143589   0.831   5.150   5.540 -0.0700  0.4972  1.9080
 7366TIP3    H243590   0.738   5.270   5.540 -0.3449  0.3277 -0.3094
 7367TIP3   OH243591   1.809   5.917  15.974  0.4993 -0.0778 -0.8349
 7367TIP3    H143592   1.772   5.832  15.949  0.1305 -0.3128  0.4202
 7367TIP3    H243593   1.903   5.901  15.981  0.3067 -0.7727  0.7045
 7368TIP3   OH243594   4.161   0.842  15.730 -0.2312  0.4790 -0.1363
 7368TIP3    H143595   4.154   0.931  15.694 -0.4896  0.4348 -0.1988
 7368TIP3    H243596   4.140   0.851  15.823 -0.7771  0.4049 -0.2477
 7369TIP3   OH243597   6.557   5.041  13.101  0.1975  0.3325 -0.0296
 7369TIP3    H143598   6.547   5.079  13.014 -0.7791 -0.0203 -0.0862
 7369TIP3    H243599   6.646   5.008  13.103 -0.3125 -1.2665 -1.5786
 7370TIP3   OH243600   4.449   2.819  10.294  0.2893 -0.3184 -0.6009
 7370TIP3    H143601   4.415   2.816  10.205  0.2625  1.4968 -0.6887
 7370TIP3    H243602   4.438   2.911  10.321 -1.0951 -1.0872  1.7947
 7371TIP3   OH243603   6.744   5.795   4.650  0.5289 -0.6244  0.1945
 7371TIP3    H143604   6.687   5.820   4.722  0.4372 -1.2178  0.3273
 7371TIP3    H243605   6.820   5.753   4.691  0.1611 -1.5828 -0.0825
 7372TIP3   OH243606   6.330   0.320   2.294  0.3495 -0.0342  0.2682
 7372TIP3    H143607   6.307   0.302   2.203 -1.2133 -0.7036  0.7761
 7372TIP3    H243608   6.414   0.275   2.306 -0.2113 -1.3112 -0.3963
 7373TIP3   OH243609   1.389   0.133   1.385  0.4554  0.1608 -0.2534
 7373TIP3    H143610   1.352   0.216   1.414 -0.4828  0.5392 -2.3051
 7373TIP3    H243611   1.477   0.155   1.355  0.3869  0.3321 -0.3326
 7374TIP3   OH243612   4.667   4.020   0.506 -0.0412 -0.0110  0.3627
 7374TIP3    H143613   4.680   3.939   0.456 -0.1182  0.2705 -0.1176
 7374TIP3    H243614   4.654   3.990   0.596  1.1078 -0.4731  0.4004
 7375TIP3   OH243615   5.236   1.028  13.407 -0.0075  0.4042 -0.0995
 7375TIP3    H143616   5.213   1.067  13.323  1.2978  1.2919 -0.0741
 7375TIP3    H243617   5.258   0.937  13.386 -1.3840  0.1243 -0.4260
 7376TIP3   OH243618   6.371   0.707  13.515  0.1206  0.0341  0.3160
 7376TIP3    H143619   6.371   0.710  13.611  2.0185 -1.8789  0.4481
 7376TIP3    H243620   6.462   0.720  13.490  0.1153 -1.9978 -1.0529
 7377TIP3   OH243621   2.171   2.542   5.623 -0.0451 -0.2685  0.4030
 7377TIP3    H143622   2.237   2.578   5.564  0.2651  0.3433  1.1070
 7377TIP3    H243623   2.095   2.527   5.567 -0.0235  1.0472 -0.0041
 7378TIP3   OH243624   5.112   6.623   3.334 -0.4968  0.3899  0.3357
 7378TIP3    H143625   5.124   6.702   3.386 -0.0166  0.4744  0.1051
 7378TIP3    H243626   5.027   6.589   3.361 -0.3351  0.5248  1.0450
 7379TIP3   OH243627   5.516   6.672   2.179 -0.2863 -0.1452 -1.1115
 7379TIP3    H143628   5.586   6.738   2.176  0.4459 -0.9258 -1.6063
 7379TIP3    H243629   5.561   6.589   2.193 -1.0237 -0.7848 -2.3266
 7380TIP3   OH243630   3.728   6.380  12.340 -0.3447 -0.6727  0.4101
 7380TIP3    H143631   3.677   6.300  12.330 -1.9911 -0.1845  3.6605
 7380TIP3    H243632   3.804   6.354  12.392  0.2015 -0.4843 -0.2811
 7381TIP3   OH243633   3.894   4.881  16.295 -0.0856 -0.5869 -0.1556
 7381TIP3    H143634   3.845   4.942  16.240 -2.4706 -0.8044  1.6027
 7381TIP3    H243635   3.923   4.934  16.369  1.6892 -0.6612 -0.7556
 7382TIP3   OH243636   1.067   4.256  14.820  0.6982  0.1909 -0.2901
 7382TIP3    H143637   1.151   4.303  14.817  0.2489  0.9973 -0.3369
 7382TIP3    H243638   1.002   4.323  14.839  0.0981 -0.4945  0.1218
 7383TIP3   OH243639   2.973   1.357   5.301 -0.3252  0.1816 -0.1249
 7383TIP3    H143640   3.044   1.414   5.329  1.0479 -1.0424 -0.9494
 7383TIP3    H243641   2.931   1.404   5.229 -1.9144  1.9651  1.8662
 7384TIP3   OH243642   4.148   5.347  15.214  0.0894  0.9695  0.9925
 7384TIP3    H143643   4.183   5.409  15.150 -0.3155 -0.7059 -0.9340
 7384TIP3    H243644   4.198   5.365  15.294  2.7125  1.1763 -0.5737
 7385TIP3   OH243645   3.752   6.073  15.624  0.5566 -0.2162 -0.1709
 7385TIP3    H143646   3.809   6.100  15.697  0.4169 -0.5883  0.0796
 7385TIP3    H243647   3.670   6.119  15.640  1.0762  1.0748 -1.0555
 7386TIP3   OH243648   1.166   6.664   0.297 -0.2715 -0.2804  0.4782
 7386TIP3    H143649   1.189   6.755   0.279 -2.1778  0.2929  0.7785
 7386TIP3    H243650   1.072   6.660   0.283 -0.0456 -2.5605 -0.9111
 7387TIP3   OH243651   1.675   2.738   6.262 -0.3934 -0.3692 -0.2818
 7387TIP3    H143652   1.712   2.780   6.340  0.1653 -0.0982 -0.6819
 7387TIP3    H243653   1.728   2.659   6.251 -0.7102 -0.5966 -0.1785
 7388TIP3   OH243654   5.453   1.970   3.973 -0.0850 -0.3880 -0.0889
 7388TIP3    H143655   5.518   1.918   3.927  0.0137 -0.3845  0.0448
 7388TIP3    H243656   5.449   2.052   3.924 -1.5740 -1.1967 -1.3871
 7389TIP3   OH243657   5.737   3.779  14.899  0.2050  0.7583 -0.3412
 7389TIP3    H143658   5.815   3.813  14.855 -0.3297  1.8227 -0.4836
 7389TIP3    H243659   5.668   3.781  14.832 -0.7326  2.7919  0.6050
 7390TIP3   OH243660   4.651   0.940  16.841 -0.5012  0.1948  0.4252
 7390TIP3    H143661   4.599   0.894  16.907 -0.4764 -1.5675 -0.7095
 7390TIP3    H243662   4.694   0.870  16.792 -1.9865  1.2608 -2.6714
 7391TIP3   OH243663   3.376   2.804   3.269  0.1365 -0.0262 -0.2886
 7391TIP3    H143664   3.324   2.868   3.317  0.6508  1.4434 -1.6182
 7391TIP3    H243665   3.394   2.845   3.185  1.1233 -1.6242 -0.9091
 7392TIP3   OH243666   6.451   4.001  11.413 -0.2500 -0.3181 -0.0225
 7392TIP3    H143667   6.520   3.973  11.353  0.2053  2.4076 -0.9552
 7392TIP3    H243668   6.370   3.993  11.362 -0.0841  0.2722 -0.3953
 7393TIP3   OH243669   4.864   6.587  10.901  0.1269  0.1871  0.1761
 7393TIP3    H143670   4.925   6.516  10.918 -0.2494  0.0933  1.1598
 7393TIP3    H243671   4.897   6.661  10.951  0.0220  0.4538 -0.1401
 7394TIP3   OH243672   5.362   4.575  17.019 -0.0555 -0.0415 -0.2470
 7394TIP3    H143673   5.371   4.609  16.930  1.1707 -1.2538 -0.6357
 7394TIP3    H243674   5.268   4.579  17.038 -0.1921  1.3560 -1.1148
 7395TIP3   OH243675   3.449   5.027   2.207 -0.0363 -0.0593 -0.2171
 7395TIP3    H143676   3.393   5.077   2.265 -1.0546 -1.1276 -0.2341
 7395TIP3    H243677   3.450   5.076   2.125 -1.5986 -0.3883 -0.4658
 7396TIP3   OH243678   1.078   0.600   6.938 -0.2472  0.4051 -0.2292
 7396TIP3    H143679   1.018   0.526   6.942 -0.5582  0.6086 -0.9819
 7396TIP3    H243680   1.159   0.563   6.904 -0.5525  0.4918 -1.0773
 7397TIP3   OH243681   3.485   3.447   2.528  0.1785 -0.2891  0.0975
 7397TIP3    H143682   3.419   3.513   2.546 -1.2085 -1.5501 -0.1253
 7397TIP3    H243683   3.525   3.474   2.446 -1.2015 -0.3326 -0.6145
 7398TIP3   OH243684   5.081   1.440   4.167 -0.2864  0.3439  0.7495
 7398TIP3    H143685   5.124   1.399   4.091 -0.6116 -0.2938  0.9051
 7398TIP3    H243686   5.153   1.467   4.224  0.0087  1.6900 -0.2075
 7399TIP3   OH243687   1.182   5.437  14.416 -0.0025  0.2630  0.2134
 7399TIP3    H143688   1.100   5.445  14.466 -1.5686  0.4745 -2.2276
 7399TIP3    H243689   1.170   5.495  14.341  1.9438 -0.5867 -0.8238
 7400TIP3   OH243690   5.742   5.978  15.452  0.5759 -0.1623  0.6178
 7400TIP3    H143691   5.749   6.068  15.483 -1.8834  0.3407 -0.0610
 7400TIP3    H243692   5.724   5.927  15.531 -2.1063  0.6082  0.6089
 7401TIP3   OH243693   6.463   0.224   4.952 -0.2594 -0.3048  0.4549
 7401TIP3    H143694   6.395   0.165   4.984 -0.6147  0.4727  1.1722
 7401TIP3    H243695   6.538   0.208   5.009 -0.1238 -0.5309  0.2199
 7402TIP3   OH243696   1.982   2.250   1.556 -0.1121  0.0406 -0.6635
 7402TIP3    H143697   2.049   2.197   1.599  0.8250  0.5359 -1.4609
 7402TIP3    H243698   1.900   2.205   1.575  0.3511 -0.2070  0.9253
 7403TIP3   OH243699   3.126   3.462  12.736 -0.3893 -0.2962 -0.4566
 7403TIP3    H143700   3.102   3.518  12.662 -0.0200 -0.6777 -0.8732
 7403TIP3    H243701   3.094   3.376  12.713 -0.4457 -0.3800 -0.0776
 7404TIP3   OH243702   6.775   3.979  15.179  0.1161  0.4355 -0.3858
 7404TIP3    H143703   6.773   3.908  15.243  0.3488 -0.1391 -0.9922
 7404TIP3    H243704   6.771   3.934  15.094 -1.6392  1.2148 -0.7754
 7405TIP3   OH243705   3.194   4.791   1.146 -0.0699 -0.4892  0.5196
 7405TIP3    H143706   3.152   4.764   1.064 -0.4000 -1.2068  0.9110
 7405TIP3    H243707   3.230   4.710   1.182  2.5076  0.2199 -0.2465
 7406TIP3   OH243708   1.988   1.096  11.712  0.9303 -0.4030  0.0472
 7406TIP3    H143709   1.903   1.119  11.675  0.7131 -0.8346  0.2631
 7406TIP3    H243710   2.043   1.074  11.637  1.2323  1.0810 -0.1827
 7407TIP3   OH243711   4.029   0.654  14.870  0.6140  0.4749 -0.1939
 7407TIP3    H143712   3.949   0.629  14.823  1.8198 -0.8327 -1.6393
 7407TIP3    H243713   4.088   0.685  14.801  1.8802  0.0054  0.6607
 7408TIP3   OH243714   5.958   0.463  11.255  0.0518  0.0389  0.3084
 7408TIP3    H143715   5.965   0.408  11.178 -0.1332  0.1671  0.1992
 7408TIP3    H243716   5.875   0.510  11.244 -0.5787 -0.8332  1.1685
 7409TIP3   OH243717   0.359   0.319  14.527  0.0732 -0.2547 -0.4947
 7409TIP3    H143718   0.277   0.350  14.489 -0.0408 -0.9528 -0.8441
 7409TIP3    H243719   0.331   0.256  14.594  0.3223 -0.3525 -0.4828
 7410TIP3   OH243720   4.862   6.215  10.660 -0.6573  0.4728 -0.1802
 7410TIP3    H143721   4.892   6.254  10.578  0.1737 -0.0363 -0.1288
 7410TIP3    H243722   4.937   6.221  10.719 -1.3464  1.1236  0.6569
 7411TIP3   OH243723   2.081   4.235   0.466 -0.3619 -0.2204 -0.0806
 7411TIP3    H143724   2.022   4.304   0.439 -2.8304 -2.5197 -1.0449
 7411TIP3    H243725   2.153   4.238   0.402 -0.0844  1.7230  0.2578
 7412TIP3   OH243726   5.496   1.876   0.155  0.4981 -0.3356 -0.0059
 7412TIP3    H143727   5.460   1.809   0.097 -0.0160 -0.9674  1.0069
 7412TIP3    H243728   5.591   1.866   0.149  0.5503  0.8545 -2.1475
 7413TIP3   OH243729   0.515   0.597  15.138  0.7612 -0.4513  0.5678
 7413TIP3    H143730   0.545   0.688  15.136 -0.3121 -0.1016 -0.8762
 7413TIP3    H243731   0.419   0.603  15.145  0.6179 -1.4519 -0.2530
 7414TIP3   OH243732   0.710   4.230  12.282  0.3171  0.0811 -0.3207
 7414TIP3    H143733   0.718   4.149  12.332 -1.3972 -0.7756 -1.3511
 7414TIP3    H243734   0.759   4.294  12.333  0.0740 -1.1455  1.5485
 7415TIP3   OH243735   3.061   6.618  13.560 -0.9968  0.0692  0.0012
 7415TIP3    H143736   2.996   6.599  13.628 -0.5330 -1.6046  0.0237
 7415TIP3    H243737   3.049   6.548  13.495  0.3591  0.0985 -0.3043
 7416TIP3   OH243738   1.903   0.421   6.859 -0.3700  0.2895 -0.2300
 7416TIP3    H143739   1.815   0.386   6.842 -0.1100 -0.7761  0.5172
 7416TIP3    H243740   1.938   0.366   6.929  0.3068  1.6946  0.5863
 7417TIP3   OH243741   3.670   0.104  16.017  0.3420  0.2237  0.2751
 7417TIP3    H143742   3.725   0.042  16.064  0.4272  0.8519  1.0219
 7417TIP3    H243743   3.601   0.050  15.978  0.2648 -0.3131  1.1263
 7418TIP3   OH243744   1.047   3.871  17.056 -0.0620 -0.7938 -0.2860
 7418TIP3    H143745   1.131   3.915  17.041 -1.3808  1.8368 -0.5004
 7418TIP3    H243746   1.071   3.785  17.092  2.7469 -0.8695 -2.0098
 7419TIP3   OH243747   4.956   4.599  12.501 -0.1775  0.0117  0.0879
 7419TIP3    H143748   4.913   4.603  12.416 -1.0561  0.6373  0.5474
 7419TIP3    H243749   4.942   4.508  12.530  1.3250 -0.6096 -1.0116
 7420TIP3   OH243750   0.302   2.536   5.987  0.1128  0.2154  0.1152
 7420TIP3    H143751   0.262   2.503   6.068 -0.2545  1.8526  0.6357
 7420TIP3    H243752   0.374   2.475   5.970 -1.7917 -2.0761 -0.1681
 7421TIP3   OH243753   3.983   6.628  13.409  0.0893 -0.0167  0.3735
 7421TIP3    H143754   3.950   6.715  13.428 -1.1034 -0.2243 -0.6306
 7421TIP3    H243755   4.068   6.624  13.453  0.3208  1.7626  0.1451
 7422TIP3   OH243756   6.344   6.546  14.841 -0.0313  0.0609 -0.1910
 7422TIP3    H143757   6.437   6.563  14.856  0.1935  2.3932 -3.1620
 7422TIP3    H243758   6.340   6.455  14.812  1.4705  0.1278 -0.6968
 7423TIP3   OH243759   0.491   3.750  14.839  0.1513 -0.0341 -0.2737
 7423TIP3    H143760   0.521   3.726  14.751  0.5007  0.3705 -0.2627
 7423TIP3    H243761   0.498   3.668  14.889 -1.1726 -0.5659 -0.9185
 7424TIP3   OH243762   3.958   2.338   1.347 -0.4323 -0.4269  0.1785
 7424TIP3    H143763   3.892   2.390   1.393 -0.6332  0.0499 -0.6360
 7424TIP3    H243764   3.909   2.263   1.312 -0.5255 -0.1467 -0.3042
 7425TIP3   OH243765   0.190   5.941  17.017  0.0545 -0.7989  0.0551
 7425TIP3    H143766   0.282   5.950  17.040  0.0521 -0.1771 -0.1398
 7425TIP3    H243767   0.190   5.922  16.923 -0.0463  0.6261 -0.2579
 7426TIP3   OH243768   6.359   5.614  12.420  0.3059  0.1393  0.6099
 7426TIP3    H143769   6.363   5.529  12.378 -1.6667  0.4876 -0.3820
 7426TIP3    H243770   6.401   5.674  12.357 -1.0062  0.3595 -0.0881
 7427TIP3   OH243771   4.462   1.829  17.041 -0.2074  0.4301  0.2465
 7427TIP3    H143772   4.521   1.791  16.976 -0.2484 -0.6583  0.8201
 7427TIP3    H243773   4.394   1.763  17.053  0.2146  0.2628  1.9498
 7428TIP3   OH243774   6.245   3.364   3.257 -0.9887  0.4005  0.4838
 7428TIP3    H143775   6.285   3.423   3.192  0.5133 -1.0854  0.0022
 7428TIP3    H243776   6.317   3.338   3.314 -1.6061 -1.0012  0.6680
 7429TIP3   OH243777   1.797   3.545  17.044  1.0032  0.0833  0.1131
 7429TIP3    H143778   1.762   3.544  16.955 -3.2306  0.6751  1.5459
 7429TIP3    H243779   1.757   3.469  17.086 -0.7183  2.2021  2.6018
 7430TIP3   OH243780   2.892   6.653   5.842  0.8043  0.2070 -0.3831
 7430TIP3    H143781   2.975   6.606   5.841 -0.5328 -2.4289  0.3360
 7430TIP3    H243782   2.889   6.696   5.927  0.3238 -2.0436  0.8127
 7431TIP3   OH243783   2.195   1.726  11.950 -0.0136 -0.2809  0.0554
 7431TIP3    H143784   2.219   1.634  11.938  0.6346 -0.3753  1.7387
 7431TIP3    H243785   2.268   1.775  11.914 -0.4517 -0.3930 -1.0330
 7432TIP3   OH243786   0.870   1.890  15.126 -0.0762 -0.2613 -0.2543
 7432TIP3    H143787   0.897   1.798  15.127 -1.0470 -0.5999  2.1371
 7432TIP3    H243788   0.919   1.930  15.198  1.0929  1.4060 -1.8624
 7433TIP3   OH243789   4.490   4.250   0.445  0.2095 -0.4799 -0.4220
 7433TIP3    H143790   4.531   4.163   0.450 -1.2564 -1.1385  1.1517
 7433TIP3    H243791   4.503   4.288   0.532 -1.2168 -0.1187 -0.3470
 7434TIP3   OH243792   4.806   6.145   5.041  0.2101  0.8989 -0.3501
 7434TIP3    H143793   4.781   6.231   5.075 -0.5108  1.1816 -1.5421
 7434TIP3    H243794   4.758   6.083   5.096  1.7895  1.1626  1.4019
 7435TIP3   OH243795   6.345   0.586   0.849 -0.3862 -0.5223  0.0162
 7435TIP3    H143796   6.432   0.546   0.840  0.7544  1.8596 -0.3586
 7435TIP3    H243797   6.339   0.646   0.775 -3.2836 -2.0997 -1.1904
 7436TIP3   OH243798   3.576   3.900  16.711  0.1690  0.3859  0.1241
 7436TIP3    H143799   3.535   3.904  16.624  0.8598 -0.4703 -0.2561
 7436TIP3    H243800   3.579   3.807  16.732  1.6959  0.4252  0.2282
 7437TIP3   OH243801   3.191   6.763   5.675  0.3105  0.1753  0.5260
 7437TIP3    H143802   3.220   6.686   5.626  1.1432  0.3458  0.7322
 7437TIP3    H243803   3.101   6.776   5.648 -0.4191 -1.8534  1.7011
 7438TIP3   OH243804   4.990   4.063  12.803  0.2127 -0.3249  0.3821
 7438TIP3    H143805   5.068   4.010  12.787 -0.4207 -1.6341  1.4090
 7438TIP3    H243806   4.917   4.002  12.791 -0.6844  0.9140 -0.7292
 7439TIP3   OH243807   2.289   2.717   0.741 -0.2152  0.7134 -0.2423
 7439TIP3    H143808   2.325   2.796   0.702  2.5987 -1.4399 -2.4568
 7439TIP3    H243809   2.247   2.671   0.669  0.4586 -0.9451  0.3677
 7440TIP3   OH243810   2.812   3.451   1.411  0.2503 -0.4411  0.3362
 7440TIP3    H143811   2.904   3.451   1.385  0.4405 -0.8188  0.9936
 7440TIP3    H243812   2.765   3.478   1.332  1.0491  1.7273  0.5299
 7441TIP3   OH243813   1.100   2.929  16.217 -0.5823  0.5550 -0.2159
 7441TIP3    H143814   1.043   2.867  16.263  0.4472 -0.4896 -0.2797
 7441TIP3    H243815   1.136   2.878  16.144  1.2423  0.8221  0.4401
 7442TIP3   OH243816   1.005   6.190  14.988 -0.1203 -0.1955  0.3380
 7442TIP3    H143817   0.922   6.186  14.940 -1.0025 -1.8074  1.9045
 7442TIP3    H243818   1.031   6.282  14.982 -1.9544  0.3286 -0.2796
 7443TIP3   OH243819   5.028   0.791  13.410 -0.7312 -0.3323 -0.1668
 7443TIP3    H143820   4.952   0.748  13.372 -1.9614 -0.0489  1.8544
 7443TIP3    H243821   5.078   0.721  13.451 -0.9559 -0.2671  0.2200
 7444TIP3   OH243822   0.784   1.815   2.417  0.6267  0.2233 -0.2333
 7444TIP3    H143823   0.738   1.880   2.470 -0.8548 -1.1528  0.2506
 7444TIP3    H243824   0.770   1.844   2.327  0.6856  1.0246  0.0116
 7445TIP3   OH243825   1.232   4.951   5.682  0.0635  0.0928 -0.4033
 7445TIP3    H143826   1.269   4.917   5.763  0.9704  1.3584 -0.2674
 7445TIP3    H243827   1.235   4.877   5.621  1.6651 -0.1918 -0.0053
 7446TIP3   OH243828   3.117   2.242  11.805 -1.0773 -0.1982  0.2777
 7446TIP3    H143829   3.143   2.281  11.721 -0.1729 -0.4113  0.4443
 7446TIP3    H243830   3.141   2.308  11.870 -1.0723 -0.3455  0.4262
 7447TIP3   OH243831   6.519   6.142  10.649 -0.0812  0.4434  0.1282
 7447TIP3    H143832   6.541   6.150  10.742  1.6984  1.3745 -0.3296
 7447TIP3    H243833   6.501   6.232  10.620  1.1890  0.4395 -0.7966
 7448TIP3   OH243834   3.245   2.410   3.803 -0.2043 -0.1150  0.5072
 7448TIP3    H143835   3.187   2.358   3.859 -1.1033  0.3438  0.0202
 7448TIP3    H243836   3.196   2.491   3.787 -1.1951 -1.2491 -3.0682
 7449TIP3   OH243837   4.383   4.388   2.283  0.1129  0.2238  0.1276
 7449TIP3    H143838   4.424   4.470   2.310  0.3199 -0.1663  1.0177
 7449TIP3    H243839   4.289   4.407   2.284  0.1613  1.7080 -3.7530
 7450TIP3   OH243840   4.482   1.691  15.712 -0.3405  0.5342  0.1787
 7450TIP3    H143841   4.568   1.676  15.675 -0.4687  1.3788 -0.5027
 7450TIP3    H243842   4.440   1.605  15.713 -0.4937  0.5208 -2.0958
 7451TIP3   OH243843   2.300   2.885   1.821 -0.6137  0.1449 -0.9322
 7451TIP3    H143844   2.245   2.947   1.868 -0.9099  0.4783 -1.7059
 7451TIP3    H243845   2.244   2.808   1.810  0.2614 -0.9482  1.4458
 7452TIP3   OH243846   3.201   1.126  16.503 -0.1571  0.0818  0.4606
 7452TIP3    H143847   3.255   1.136  16.581  0.4531  1.6816 -0.1295
 7452TIP3    H243848   3.262   1.109  16.432 -0.6545 -0.6772  0.1929
 7453TIP3   OH243849   2.595   2.139  13.505  0.2855  0.2448  0.2616
 7453TIP3    H143850   2.587   2.160  13.412 -0.3598  1.8721  0.6492
 7453TIP3    H243851   2.512   2.098  13.528 -1.3966  3.6432  0.9700
 7454TIP3   OH243852   0.011   2.551  15.561 -0.1773  0.4263  0.2307
 7454TIP3    H143853  -0.075   2.538  15.601 -0.0448 -0.4287  0.2531
 7454TIP3    H243854   0.072   2.553  15.635 -0.1782  1.0697  0.2168
 7455TIP3   OH243855   2.201   2.314   3.273 -0.0775  0.6709  0.0206
 7455TIP3    H143856   2.113   2.279   3.289  0.1344  0.8713  1.8307
 7455TIP3    H243857   2.260   2.245   3.303  0.4015  0.5799 -1.0953
 7456TIP3   OH243858   4.756   5.190   0.419 -0.1905  0.6308  0.2695
 7456TIP3    H143859   4.688   5.256   0.407  0.1626  1.0060  0.3314
 7456TIP3    H243860   4.717   5.109   0.386 -0.5207  0.9259 -0.0631
 7457TIP3   OH243861   5.739   5.951   4.710  0.2757 -1.1974 -0.2690
 7457TIP3    H143862   5.746   5.910   4.796  1.4625 -0.8464 -0.1729
 7457TIP3    H243863   5.817   6.008   4.704 -0.3380 -0.4138 -1.1459
 7458TIP3   OH243864   3.718   0.873  15.835 -0.3337  0.5601  0.1947
 7458TIP3    H143865   3.704   0.792  15.884 -1.3785  0.6543  0.0665
 7458TIP3    H243866   3.717   0.847  15.743  1.7020  0.3712  0.1739
 7459TIP3   OH243867   0.605   4.785  16.462 -0.3567  0.3936  0.2131
 7459TIP3    H143868   0.575   4.874  16.479 -0.1243  0.3125  1.0813
 7459TIP3    H243869   0.620   4.747  16.549 -1.7994 -0.9515 -0.0707
 7460TIP3   OH243870   2.822   6.121   1.199 -0.1200  0.3096  0.5718
 7460TIP3    H143871   2.807   6.215   1.189 -0.2747  0.1537 -0.7567
 7460TIP3    H243872   2.888   6.100   1.134 -0.6205 -0.6440  0.3564
 7461TIP3   OH243873   1.857   2.397   3.613 -0.2526  0.5372 -0.2665
 7461TIP3    H143874   1.940   2.406   3.660 -0.8765  2.9946  0.5250
 7461TIP3    H243875   1.811   2.480   3.629 -3.1938 -0.9916 -0.0759
 7462TIP3   OH243876   6.563   3.144  15.931  0.0749  0.3051  0.1278
 7462TIP3    H143877   6.553   3.235  15.905  2.1983 -0.2411 -3.1295
 7462TIP3    H243878   6.654   3.137  15.960  0.3832 -1.0292 -1.0643
 7463TIP3   OH243879   6.067   2.039  16.225  0.2157 -0.0441  0.1567
 7463TIP3    H143880   6.043   2.122  16.184  1.5264 -0.0962 -0.8084
 7463TIP3    H243881   6.077   2.060  16.318 -2.8293  0.0722  0.5592
 7464TIP3   OH243882   1.192   2.110   4.517  0.4487 -0.3448 -0.1678
 7464TIP3    H143883   1.205   2.142   4.428 -0.4536 -1.1965 -0.6237
 7464TIP3    H243884   1.104   2.139   4.541  0.2401 -1.0982  0.0074
 7465TIP3   OH243885   4.276   6.374   5.376 -0.4765  0.1693 -0.6444
 7465TIP3    H143886   4.311   6.286   5.384 -0.4831  0.0335 -1.9656
 7465TIP3    H243887   4.218   6.384   5.452 -1.1479 -1.2855 -0.9379
 7466TIP3   OH243888   4.586   5.424   0.318 -0.2638 -0.0003  0.1179
 7466TIP3    H143889   4.539   5.422   0.234  0.7573  0.1426 -0.4802
 7466TIP3    H243890   4.533   5.479   0.375 -0.0796  1.3902 -1.0035
 7467TIP3   OH243891   5.465   6.090   1.101 -0.3414  0.7495  0.4401
 7467TIP3    H143892   5.501   6.168   1.057 -0.2286  0.8188  0.6548
 7467TIP3    H243893   5.388   6.123   1.148  0.0398  0.8439  1.0014
 7468TIP3   OH243894   6.311   5.986   0.833  0.5227  0.1447 -1.0406
 7468TIP3    H143895   6.263   6.056   0.789 -0.9051 -0.1327 -0.0068
 7468TIP3    H243896   6.272   5.982   0.921  0.7970 -1.7025 -0.9546
 7469TIP3   OH243897   4.286   6.094  10.876  0.0399 -0.3547  0.2432
 7469TIP3    H143898   4.235   6.149  10.817  0.4059 -0.2322  0.0385
 7469TIP3    H243899   4.235   6.013  10.884  0.6250 -0.9071 -1.2997
 7470TIP3   OH243900   1.583   5.875   1.334 -0.5215  0.2858  0.4780
 7470TIP3    H143901   1.668   5.916   1.319 -1.3348  1.1470 -2.5565
 7470TIP3    H243902   1.581   5.856   1.427  1.9847  2.5253  1.0987
 7471TIP3   OH243903   1.691   3.597   4.522  0.7165 -0.0530 -0.2919
 7471TIP3    H143904   1.762   3.558   4.573 -0.1255 -0.6172  0.4815
 7471TIP3    H243905   1.680   3.685   4.560  0.6963 -0.1357 -0.1043
 7472TIP3   OH243906   0.750   3.133  16.822  0.4627  0.0439  0.5139
 7472TIP3    H143907   0.728   3.161  16.911  0.1440  0.6215  0.2599
 7472TIP3    H243908   0.797   3.050  16.834 -1.7345 -1.2149  1.1124
 7473TIP3   OH243909   0.495   2.232   3.726  0.4522  0.2189  0.0527
 7473TIP3    H143910   0.479   2.196   3.813 -1.5152 -0.0403 -0.3799
 7473TIP3    H243911   0.573   2.185   3.695  0.4742 -0.5406  1.1893
 7474TIP3   OH243912   6.091   0.752  14.501 -0.0492 -0.3809 -0.0424
 7474TIP3    H143913   6.068   0.664  14.530  0.0935 -0.0265  1.1857
 7474TIP3    H243914   6.026   0.809  14.542  0.1141  0.1306 -0.4840
 7475TIP3   OH243915   6.790   3.735   0.466 -0.1843  0.1767 -0.4396
 7475TIP3    H143916   6.843   3.775   0.398 -0.0159  0.8523  0.0740
 7475TIP3    H243917   6.789   3.800   0.537  1.5802 -1.4362  1.1820
 7476TIP3   OH243918   4.462   5.874  14.072  0.8352  0.1245 -0.2534
 7476TIP3    H143919   4.377   5.851  14.110  1.6940 -2.1100  0.4957
 7476TIP3    H243920   4.508   5.921  14.142 -0.6776  3.9818 -1.5681
 7477TIP3   OH243921   0.312   3.066   3.754 -0.0316  0.0956  0.4997
 7477TIP3    H143922   0.316   2.978   3.718  0.4504  0.1295  0.4699
 7477TIP3    H243923   0.282   3.054   3.844 -1.4096  0.0255  0.0589
 7478TIP3   OH243924   0.057   6.343   3.233  0.4804 -0.0593 -0.0129
 7478TIP3    H143925   0.098   6.304   3.310  0.2107 -0.8232 -0.2512
 7478TIP3    H243926  -0.013   6.282   3.209 -0.2205  0.7781 -0.1404
 7479TIP3   OH243927   4.361   2.890  16.662 -0.7554  0.3022  0.3459
 7479TIP3    H143928   4.390   2.852  16.745  0.8441 -1.6789 -1.0201
 7479TIP3    H243929   4.309   2.821  16.621  0.5207  0.2839 -1.3324
 7480TIP3   OH243930   4.243   4.275   5.341  0.0681 -0.2400 -0.0327
 7480TIP3    H143931   4.290   4.352   5.374  1.9800 -1.4336  0.1994
 7480TIP3    H243932   4.236   4.290   5.246 -0.5946  0.7063  0.1505
 7481TIP3   OH243933   3.261   1.729  13.859 -0.3629 -0.4960  0.2675
 7481TIP3    H143934   3.165   1.733  13.854 -0.4509  0.4547  1.8651
 7481TIP3    H243935   3.290   1.810  13.818 -0.3682  0.1465  1.4819
 7482TIP3   OH243936   4.628   1.468  14.713  0.1409  0.2082 -0.1113
 7482TIP3    H143937   4.604   1.394  14.657  2.1759 -1.5174  1.1397
 7482TIP3    H243938   4.709   1.440  14.756  0.9536  3.1458  0.5032
 7483TIP3   OH243939   1.210   4.737   2.980  0.1754 -0.2600 -0.1738
 7483TIP3    H143940   1.134   4.794   2.968  1.1990  0.8921 -1.6177
 7483TIP3    H243941   1.240   4.717   2.891  1.5357 -0.7022  0.3472
 7484TIP3   OH243942   3.733   1.277   0.685  0.0488  0.1693 -0.9086
 7484TIP3    H143943   3.795   1.291   0.756 -0.0379  1.9775 -1.1521
 7484TIP3    H243944   3.648   1.275   0.727  0.1142 -0.3283 -0.7957
 7485TIP3   OH243945   3.401   6.103   2.038 -0.0091  0.0400 -0.1461
 7485TIP3    H143946   3.438   6.065   2.117 -0.7043  0.9939  0.6695
 7485TIP3    H243947   3.441   6.055   1.966  0.7437 -0.7448  0.7857
 7486TIP3   OH243948   2.047   2.882  13.160 -0.4117 -0.3533  0.1638
 7486TIP3    H143949   1.990   2.862  13.087  0.4026 -2.5848  0.0458
 7486TIP3    H243950   1.991   2.875  13.237 -0.9695  0.6379 -0.1444
 7487TIP3   OH243951   2.311   2.284  13.772 -0.8801  0.8405 -0.0101
 7487TIP3    H143952   2.260   2.233  13.708 -1.0694  1.0109  0.0023
 7487TIP3    H243953   2.250   2.298  13.845  0.7413 -3.7451  2.6402
 7488TIP3   OH243954   5.913   2.928   5.496 -0.3088 -0.3351  0.3169
 7488TIP3    H143955   5.976   2.889   5.436 -1.2618 -0.6341 -0.5036
 7488TIP3    H243956   5.830   2.928   5.449 -0.8814  0.3126  1.2704
 7489TIP3   OH243957   6.335   1.997  16.792 -0.2858 -0.3857  0.3037
 7489TIP3    H143958   6.266   1.939  16.824 -1.8294  0.6267 -1.0482
 7489TIP3    H243959   6.322   2.079  16.841 -0.6096  0.0867 -0.5457
 7490TIP3   OH243960   2.720   4.741   1.443 -0.4377  0.1440  0.2166
 7490TIP3    H143961   2.806   4.700   1.445  0.0208  1.0720  0.4685
 7490TIP3    H243962   2.674   4.703   1.518 -0.0708 -0.0000  0.3730
 7491TIP3   OH243963   6.374   2.469  11.834 -0.2197  0.5386 -0.2520
 7491TIP3    H143964   6.410   2.554  11.806 -0.5080  0.8078  0.1934
 7491TIP3    H243965   6.301   2.453  11.774  1.6109 -0.8192 -2.2992
 7492TIP3   OH243966   1.218   5.539   6.293 -0.6903  0.2299  0.0664
 7492TIP3    H143967   1.218   5.610   6.356  0.4164  0.5596 -0.2766
 7492TIP3    H243968   1.146   5.559   6.233 -1.8870 -0.1964  1.3018
 7493TIP3   OH243969   0.740   3.981   3.728  0.1200 -0.1640 -0.6504
 7493TIP3    H143970   0.746   3.915   3.660  1.3213  0.4720 -1.1928
 7493TIP3    H243971   0.670   4.039   3.699  0.0052 -0.4134 -0.8719
 7494TIP3   OH243972   4.650   3.691   2.243 -0.0763 -0.1643  0.5401
 7494TIP3    H143973   4.626   3.761   2.304  0.5277  1.1706 -0.6959
 7494TIP3    H243974   4.703   3.734   2.176 -1.0689 -1.4691 -1.1831
 7495TIP3   OH243975   0.521   3.021   3.298  0.0855  0.0127 -0.7379
 7495TIP3    H143976   0.571   2.941   3.282 -0.2828 -0.4491  0.3494
 7495TIP3    H243977   0.463   2.999   3.370  0.9549  1.6899  0.5302
 7496TIP3   OH243978   0.265   0.402   5.105  0.3671  0.4771 -0.6571
 7496TIP3    H143979   0.338   0.458   5.078 -0.4008  2.2754  0.8211
 7496TIP3    H243980   0.260   0.413   5.200 -0.2578 -1.6218 -0.3935
 7497TIP3   OH243981   3.040   2.722   4.252  0.4435  0.2883  0.3851
 7497TIP3    H143982   2.949   2.743   4.229  0.0759  0.6526  2.0721
 7497TIP3    H243983   3.033   2.669   4.331  1.7477  1.1176  1.0831
 7498TIP3   OH243984   0.020   0.150  11.037 -0.4139  1.0041  0.2577
 7498TIP3    H143985  -0.043   0.099  11.088 -0.1640  0.7359  0.2952
 7498TIP3    H243986  -0.023   0.161  10.952  0.1678 -0.5989 -0.2884
 7499TIP3   OH243987   6.197   3.267   1.433 -0.4183  0.4180 -0.2381
 7499TIP3    H143988   6.141   3.231   1.364  2.0374 -4.0240 -0.2928
 7499TIP3    H243989   6.227   3.351   1.399 -2.9960  0.5882 -2.3672
 7500TIP3   OH243990   4.361   6.117   5.420  0.2364 -0.4272 -0.3205
 7500TIP3    H143991   4.353   6.023   5.408  2.2570 -0.6934  0.1653
 7500TIP3    H243992   4.421   6.128   5.493  0.1220  1.2545 -0.4253
 7501TIP3   OH243993   2.405   5.142   0.699  0.5607 -0.6474  0.1071
 7501TIP3    H143994   2.500   5.141   0.682  1.3662  1.1547  3.5535
 7501TIP3    H243995   2.373   5.218   0.649  0.6792 -1.7344 -1.7256
 7502TIP3   OH243996   4.286   4.243  15.647 -0.4659 -0.2876  0.0153
 7502TIP3    H143997   4.355   4.281  15.701  1.9072 -0.5520 -2.6337
 7502TIP3    H243998   4.211   4.235  15.707  1.1235  1.8468  2.5064
 7503TIP3   OH243999   1.914   2.789  11.620 -0.3915  0.2896 -0.6293
 7503TIP3    H144000   1.929   2.873  11.663  1.0860  0.0417 -0.6161
 7503TIP3    H244001   1.992   2.776  11.566 -0.7154 -0.9712 -0.8101
 7504TIP3   OH244002   2.921   6.253   4.370  0.5162  0.5974  0.2625
 7504TIP3    H144003   3.011   6.284   4.372  0.1088  1.8157  0.5013
 7504TIP3    H244004   2.873   6.312   4.428 -1.1757  2.5564 -2.8069
 7505TIP3   OH244005   5.291   2.552  12.419 -0.3661  0.3936  0.1095
 7505TIP3    H144006   5.224   2.508  12.472  0.1873  1.2659  1.5886
 7505TIP3    H244007   5.240   2.609  12.360 -0.9608  0.2649  0.4866
 7506TIP3   OH244008   5.791   0.436  13.848 -0.1793  0.2806  0.4941
 7506TIP3    H144009   5.839   0.354  13.835  0.1671  0.4992  0.3979
 7506TIP3    H244010   5.841   0.483  13.915 -0.3237  0.4575  0.4784
 7507TIP3   OH244011   0.917   2.928   5.503 -0.3842 -0.4313 -0.1025
 7507TIP3    H144012   0.860   2.994   5.544 -1.5541 -2.5495  1.9165
 7507TIP3    H244013   0.910   2.946   5.409 -0.0761  2.7099  0.3665
 7508TIP3   OH244014   5.875   4.433  15.297  0.1927 -0.3476  0.4263
 7508TIP3    H144015   5.876   4.521  15.332  3.0145  0.0866 -0.4353
 7508TIP3    H244016   5.952   4.391  15.335  0.3654 -1.5648 -1.1442
 7509TIP3   OH244017   4.344   3.895  13.488 -0.3476 -0.9994 -0.2973
 7509TIP3    H144018   4.397   3.843  13.549  1.3603 -0.5591 -1.3248
 7509TIP3    H244019   4.254   3.879  13.515  0.2327 -2.6675  0.8491
 7510TIP3   OH244020   4.063   2.430   0.835 -0.7342  0.0628 -0.4077
 7510TIP3    H144021   4.027   2.459   0.919 -0.1630  2.7575 -1.0246
 7510TIP3    H244022   4.155   2.411   0.854 -1.2043 -2.0155  0.0909
 7511TIP3   OH244023   2.011   1.827   1.834 -0.0145 -0.0028 -0.2218
 7511TIP3    H144024   2.026   1.801   1.925  1.5622  0.4002 -0.3294
 7511TIP3    H244025   1.968   1.751   1.794  0.3332 -0.6335  0.5814
 7512TIP3   OH244026   1.209   2.670  13.532 -0.2852  0.4844  0.2073
 7512TIP3    H144027   1.139   2.672  13.466  0.3820 -0.7422 -0.5827
 7512TIP3    H244028   1.162   2.666  13.616 -1.1531  3.0102 -0.0864
 7513TIP3   OH244029   3.495   1.165  12.680  0.4162  0.7725  0.5306
 7513TIP3    H144030   3.541   1.082  12.692  2.1683  1.5922 -0.1661
 7513TIP3    H244031   3.403   1.144  12.696  0.8451 -1.2319  0.6272
 7514TIP3   OH244032   0.523   1.725   0.426  0.0360  0.7423 -0.4329
 7514TIP3    H144033   0.558   1.648   0.380  0.6221  0.7977 -0.0831
 7514TIP3    H244034   0.563   1.800   0.382  2.2608  0.7521  1.4627
 7515TIP3   OH244035   6.477   3.655  13.961  0.0182 -0.0663 -0.4551
 7515TIP3    H144036   6.471   3.595  14.035  0.7089  1.4546  0.8680
 7515TIP3    H244037   6.518   3.603  13.892 -0.7573 -1.5468  0.1500
 7516TIP3   OH244038   0.647   6.204   5.390 -0.2288  0.1235 -0.1554
 7516TIP3    H144039   0.727   6.231   5.345 -0.8074 -0.3335 -1.5341
 7516TIP3    H244040   0.577   6.228   5.329 -1.1939  0.9401  1.2332
 7517TIP3   OH244041   2.914   3.168   0.698 -0.3304  0.2295 -0.4606
 7517TIP3    H144042   2.876   3.154   0.785 -0.8233 -1.0395 -0.8604
 7517TIP3    H244043   3.007   3.151   0.710 -0.2918  0.6788 -0.0581
 7518TIP3   OH244044   5.000   3.286   2.244 -0.1916  0.3784  0.0703
 7518TIP3    H144045   4.937   3.214   2.245  0.5961 -0.3341 -0.6271
 7518TIP3    H244046   5.062   3.263   2.175  0.3041  1.5339  0.1022
 7519TIP3   OH244047   1.730   2.583  13.361  0.3783  0.3707 -0.3216
 7519TIP3    H144048   1.738   2.566  13.267  0.1069 -0.8055 -0.1441
 7519TIP3    H244049   1.646   2.544  13.385  0.4825  0.6010  0.4351
 7520TIP3   OH244050   0.243   2.378  12.177 -0.2860  0.4863 -0.6920
 7520TIP3    H144051   0.156   2.409  12.151 -1.1706 -0.7890  0.6299
 7520TIP3    H244052   0.286   2.356  12.095 -1.7101 -0.1188 -1.3086
 7521TIP3   OH244053   4.385   0.075   1.612  0.1091 -0.0328  0.2652
 7521TIP3    H144054   4.395   0.041   1.522  1.0815  2.0098 -0.4505
 7521TIP3    H244055   4.406  -0.000   1.668  0.0848 -1.1873 -1.2094
 7522TIP3   OH244056   6.039   5.268  11.973  0.4105 -0.3142 -0.3733
 7522TIP3    H144057   6.016   5.248  12.064  0.5677  1.1985  0.0306
 7522TIP3    H244058   6.126   5.230  11.962  0.9711  0.6281  0.5631
 7523TIP3   OH244059   2.473   5.650  14.020  0.3721  0.5653 -0.4442
 7523TIP3    H144060   2.478   5.694  13.935  0.3500  1.2946 -0.0842
 7523TIP3    H244061   2.563   5.642  14.049  0.3342  1.0950 -0.1614
 7524TIP3   OH244062   2.782   5.013   0.046  0.2777  0.1379  0.5405
 7524TIP3    H144063   2.772   5.043   0.136 -0.1078  0.3950  0.4128
 7524TIP3    H244064   2.765   5.090  -0.007  1.9563  0.3571  0.2764
 7525TIP3   OH244065   6.312   5.889  15.191  0.2178  0.2771 -0.0164
 7525TIP3    H144066   6.294   5.796  15.206 -1.3819  0.5867  0.1012
 7525TIP3    H244067   6.260   5.935  15.257  1.2282  1.2664  0.1300
 7526TIP3   OH244068   3.815   5.646  16.751 -0.4600 -0.3285  0.3887
 7526TIP3    H144069   3.839   5.705  16.822  0.2172  1.3546 -1.1621
 7526TIP3    H244070   3.758   5.698  16.694  0.1119 -1.1674 -1.0098
 7527TIP3   OH244071   4.410   6.021   2.379 -0.2430 -0.5531  0.6058
 7527TIP3    H144072   4.383   5.981   2.462 -0.5182  0.7439  1.1570
 7527TIP3    H244073   4.484   6.076   2.401 -0.0516 -0.5168 -0.0968
 7528TIP3   OH244074   3.305   3.424   6.466 -0.2249  0.2934  0.0483
 7528TIP3    H144075   3.279   3.431   6.558 -1.3210 -1.0435 -0.1336
 7528TIP3    H244076   3.401   3.423   6.468 -0.1843 -2.8425  1.4848
 7529TIP3   OH244077   5.731   2.067   1.594 -0.3001 -0.0435  0.3490
 7529TIP3    H144078   5.684   2.099   1.670  0.7801 -0.5258  1.2601
 7529TIP3    H244079   5.823   2.067   1.621  0.2943  1.1588 -1.4561
 7530TIP3   OH244080   2.912   3.985   4.277 -0.7926  0.3256 -0.0695
 7530TIP3    H144081   2.972   3.930   4.226  1.1967 -0.0483  2.4453
 7530TIP3    H244082   2.883   3.929   4.349 -0.1135  1.9894  1.5724
 7531TIP3   OH244083   1.564   1.580   2.280 -0.0230 -0.6570 -0.1422
 7531TIP3    H144084   1.623   1.636   2.229  0.3732 -1.3714 -0.4883
 7531TIP3    H244085   1.618   1.547   2.351 -0.3704 -0.2728  0.3040
 7532TIP3   OH244086   5.834   4.429  13.580 -0.0513  0.2111  0.5388
 7532TIP3    H144087   5.821   4.520  13.555 -1.8280  0.0774  0.7810
 7532TIP3    H244088   5.911   4.400  13.531  1.3381  2.1848  1.4484
 7533TIP3   OH244089   0.560   1.738  16.301  0.2438  0.0307  0.1103
 7533TIP3    H144090   0.526   1.697  16.222  0.3348  0.0392  0.0672
 7533TIP3    H244091   0.597   1.821  16.272 -0.4645  0.4147  0.2776
 7534TIP3   OH244092   1.404   0.899  13.252  0.5152 -0.3300 -0.4214
 7534TIP3    H144093   1.415   0.957  13.328  2.2058 -1.0080 -0.0902
 7534TIP3    H244094   1.375   0.816  13.289  2.3774 -0.9895 -0.3348
 7535TIP3   OH244095   2.872   0.627   3.828  0.5711 -0.4007  0.7484
 7535TIP3    H144096   2.870   0.596   3.919  1.0110 -0.1871  0.8348
 7535TIP3    H244097   2.955   0.595   3.794 -0.4756 -2.2500 -0.2282
 7536TIP3   OH244098   1.622   6.241  11.912  0.5211 -0.0491 -0.4133
 7536TIP3    H144099   1.663   6.300  11.976 -0.2439  1.5148 -1.3034
 7536TIP3    H244100   1.617   6.293  11.832 -1.6385 -0.7841 -0.8078
 7537TIP3   OH244101   3.389   3.739  17.130 -0.3966 -0.0182  0.3569
 7537TIP3    H144102   3.471   3.721  17.176 -0.3063 -1.7303 -0.3962
 7537TIP3    H244103   3.346   3.806  17.183  1.0732  0.2705  1.2486
 7538TIP3   OH244104   2.273   1.420  14.894 -0.1195 -0.3626 -0.0015
 7538TIP3    H144105   2.356   1.384  14.926  0.5802 -1.1717 -2.4765
 7538TIP3    H244106   2.299   1.480  14.824 -1.5492  1.1984  0.7453
 7539TIP3   OH244107   3.530   6.571   5.654  0.2453  0.2901  0.6143
 7539TIP3    H144108   3.546   6.659   5.688 -0.7023  0.4919  0.5703
 7539TIP3    H244109   3.523   6.516   5.732  1.8026  0.0505  0.6243
 7540TIP3   OH244110   6.016   3.854  16.428 -0.2076 -0.4185 -0.3200
 7540TIP3    H144111   5.956   3.809  16.487 -1.1337  0.1716 -0.7993
 7540TIP3    H244112   6.012   3.804  16.346  1.1587 -1.3018  0.1127
 7541TIP3   OH244113   3.386   0.211   5.280  0.0556  0.0902 -0.2684
 7541TIP3    H144114   3.330   0.283   5.309 -1.2096  0.2180 -2.7870
 7541TIP3    H244115   3.473   0.250   5.273 -0.2821  0.9238  0.0450
 7542TIP3   OH244116   2.186   5.209   5.024 -0.1879  0.2214  0.6387
 7542TIP3    H144117   2.162   5.159   4.947 -0.7956 -1.2614  1.7463
 7542TIP3    H244118   2.262   5.261   4.996  0.7617 -1.6352 -0.4719
 7543TIP3   OH244119   1.355   3.157   5.729  0.0163  0.6229 -0.1546
 7543TIP3    H144120   1.410   3.125   5.801  0.1477 -2.6377 -1.5391
 7543TIP3    H244121   1.266   3.143   5.760  0.0719 -0.7268 -0.5560
 7544TIP3   OH244122   4.656   6.440   4.377  0.3957  0.0943  0.0220
 7544TIP3    H144123   4.619   6.436   4.465 -0.1735  0.3990 -0.1929
 7544TIP3    H244124   4.695   6.527   4.371 -0.2060  0.3533 -0.2629
 7545TIP3   OH244125   2.109   4.291   1.907  0.0384  0.0437 -0.3607
 7545TIP3    H144126   2.038   4.307   1.845  0.6299 -0.6198 -1.2345
 7545TIP3    H244127   2.184   4.267   1.852  0.4297 -1.1246  0.6299
 7546TIP3   OH244128   6.017   2.891   4.621  0.0084 -0.0608  0.2653
 7546TIP3    H144129   6.103   2.931   4.620 -0.3185  0.7024  1.4182
 7546TIP3    H244130   6.025   2.818   4.682 -0.0395 -0.2809  0.0107
 7547TIP3   OH244131   6.356   4.790   6.028 -0.1934 -0.2866  0.0840
 7547TIP3    H144132   6.440   4.785   5.982 -0.4598 -0.0794 -0.4355
 7547TIP3    H244133   6.365   4.729   6.101  0.0560 -1.0176 -0.5422
 7548TIP3   OH244134   3.440   4.253  14.605  0.0448  0.1921  0.4514
 7548TIP3    H144135   3.368   4.305  14.642  0.0004  1.3467 -1.1624
 7548TIP3    H244136   3.398   4.186  14.552 -0.0001  2.4923 -2.7293
 7549TIP3   OH244137   5.684   6.270  12.292 -0.0266 -0.1867 -0.0837
 7549TIP3    H144138   5.681   6.244  12.200  2.0962 -0.3378 -0.1515
 7549TIP3    H244139   5.760   6.225  12.328  0.9317  2.1426  1.0094
 7550TIP3   OH244140   6.614   0.409   3.187 -0.0794  0.0861  0.4036
 7550TIP3    H144141   6.581   0.365   3.108 -0.4364 -0.3232  0.7780
 7550TIP3    H244142   6.560   0.375   3.258  0.4577  0.2071  0.8754
 7551TIP3   OH244143   3.565   5.713   1.271 -0.1832  0.4568  0.0224
 7551TIP3    H144144   3.617   5.635   1.291 -1.9244 -0.5681  0.7282
 7551TIP3    H244145   3.561   5.716   1.175 -0.8855 -0.9013 -0.0201
 7552TIP3   OH244146   0.682   0.132  14.972 -0.3798 -0.5485  0.5863
 7552TIP3    H144147   0.640   0.153  15.055 -0.1600  0.6330  0.4177
 7552TIP3    H244148   0.615   0.084  14.923 -0.3559 -1.6617  1.5969
 7553TIP3   OH244149   1.030   5.194   3.543 -0.5893 -0.0791  0.3180
 7553TIP3    H144150   1.107   5.173   3.595  2.6663  1.0524 -3.5625
 7553TIP3    H244151   0.970   5.120   3.558  1.0903 -0.9345  3.6304
 7554TIP3   OH244152   3.182   1.165  11.665 -0.1939  1.0231  0.3581
 7554TIP3    H144153   3.097   1.123  11.651  0.1214  0.6414 -0.5002
 7554TIP3    H244154   3.204   1.203  11.580  1.2989 -0.3867  0.0608
 7555TIP3   OH244155   0.303   1.120  11.282  0.1771 -0.6615 -0.4989
 7555TIP3    H144156   0.298   1.124  11.377  0.5636 -1.2285 -0.4498
 7555TIP3    H244157   0.394   1.096  11.264 -0.3813 -2.6437 -0.9418
 7556TIP3   OH244158   4.390   4.812   4.041  0.0013 -0.0765 -0.3049
 7556TIP3    H144159   4.453   4.848   4.104 -0.7620  0.4415  0.1916
 7556TIP3    H244160   4.304   4.833   4.079 -0.4728 -1.0968 -0.7730
 7557TIP3   OH244161   2.000   1.083   0.451 -0.0304  0.1588 -0.4511
 7557TIP3    H144162   2.002   1.051   0.361 -0.1509  0.4216 -0.5498
 7557TIP3    H244163   2.050   1.165   0.449 -1.7560  1.2583 -0.7343
 7558TIP3   OH244164   0.349   2.575  16.009 -0.3822 -0.5608  0.3752
 7558TIP3    H144165   0.377   2.666  16.000 -1.3546 -0.2515  0.2539
 7558TIP3    H244166   0.277   2.579  16.073 -0.0396 -1.3336  0.8195
 7559TIP3   OH244167   2.493   6.663   0.061 -0.0345  0.3933 -0.0116
 7559TIP3    H144168   2.436   6.685  -0.012 -1.0955 -0.2296  0.5918
 7559TIP3    H244169   2.486   6.567   0.069  0.6899  0.3692  0.3919
 7560TIP3   OH244170   3.263   3.826  14.763  0.2578 -0.8484 -0.3661
 7560TIP3    H144171   3.250   3.913  14.726  0.4609  0.0076  1.4553
 7560TIP3    H244172   3.244   3.766  14.691 -1.2392  0.6493 -1.2869
 7561TIP3   OH244173   6.340   6.657   5.542  0.5825 -0.0070 -0.1247
 7561TIP3    H144174   6.333   6.576   5.491 -2.0039 -0.9238  1.4731
 7561TIP3    H244175   6.416   6.644   5.597  0.5255 -1.1344 -0.2816
 7562TIP3   OH244176   6.047   1.909   0.767 -0.5244 -0.5597  0.2376
 7562TIP3    H144177   6.081   1.821   0.780  1.3599 -0.2954 -2.1341
 7562TIP3    H244178   6.115   1.967   0.800 -0.7319 -0.0076 -0.2733
 7563TIP3   OH244179   4.192   2.449  10.999 -0.2282 -0.0363 -0.5500
 7563TIP3    H144180   4.122   2.385  10.990 -1.3570  1.3200 -2.2797
 7563TIP3    H244181   4.252   2.429  10.926 -1.5828  1.9149 -2.3340
 7564TIP3   OH244182   6.727   1.083  14.116 -0.0007  0.3968 -0.3924
 7564TIP3    H144183   6.674   1.009  14.087 -2.6242  2.4077 -1.1650
 7564TIP3    H244184   6.767   1.116  14.036  2.2186 -0.8275  0.1247
 7565TIP3   OH244185   1.852   5.368   4.871  0.4474  0.4711 -0.1319
 7565TIP3    H144186   1.812   5.418   4.800  1.7805  1.6521 -0.1161
 7565TIP3    H244187   1.915   5.429   4.910 -0.5946  0.0160  2.4077
 7566TIP3   OH244188   5.946   5.306  14.054 -0.2756  0.3597  0.3687
 7566TIP3    H144189   6.004   5.295  13.979  0.9004  2.2769  0.9202
 7566TIP3    H244190   5.980   5.383  14.100 -2.0226  0.3051  1.8929
 7567TIP3   OH244191   4.102   1.712   0.627 -0.3493 -0.0139 -0.2369
 7567TIP3    H144192   4.192   1.704   0.660 -0.2468 -0.2484 -0.5642
 7567TIP3    H244193   4.096   1.645   0.559 -0.6071  0.3547 -0.5806
 7568TIP3   OH244194   2.948   2.699  15.402  0.1842 -0.4416  0.2042
 7568TIP3    H144195   3.026   2.650  15.427  1.4833  1.5622  0.3441
 7568TIP3    H244196   2.933   2.760  15.474  0.2484  1.1571 -1.0554
 7569TIP3   OH244197   1.953   0.271  15.472  0.0691  0.1232  0.2446
 7569TIP3    H144198   1.866   0.256  15.435  0.3852 -0.2029 -0.3762
 7569TIP3    H244199   1.954   0.365  15.492  0.3219  0.5718 -1.7298
 7570TIP3   OH244200   5.560   0.296   3.758 -0.3988  0.2260  0.0623
 7570TIP3    H144201   5.516   0.360   3.813 -0.5928 -0.4685  0.7294
 7570TIP3    H244202   5.628   0.346   3.712 -1.4813  1.1961 -0.5404
 7571TIP3   OH244203   5.304   3.590   4.048 -0.1351 -0.4230 -0.1009
 7571TIP3    H144204   5.271   3.680   4.041  0.0793 -0.1583  1.8118
 7571TIP3    H244205   5.330   3.567   3.959  1.1886  1.9414 -0.4031
 7572TIP3   OH244206   1.342   2.646   1.780  0.1311 -0.6078 -0.3765
 7572TIP3    H144207   1.421   2.659   1.728 -0.2408  1.5046 -0.4744
 7572TIP3    H244208   1.325   2.551   1.775  2.7915 -1.1696 -0.0893
 7573TIP3   OH244209   2.392   6.321  13.636 -0.6733 -0.0889 -0.1561
 7573TIP3    H144210   2.383   6.353  13.546 -2.0741 -1.1296 -0.4200
 7573TIP3    H244211   2.373   6.228  13.630 -1.2333 -0.0879  1.2886
 7574TIP3   OH244212   6.095   6.325  17.258 -0.7309  0.1391  0.3620
 7574TIP3    H144213   6.055   6.317  17.172 -0.0286 -1.9476  0.1753
 7574TIP3    H244214   6.187   6.345  17.240 -1.2172  3.2764  0.7601
 7575TIP3   OH244215   3.133   0.453   1.110  0.2600 -0.5638 -0.4415
 7575TIP3    H144216   3.196   0.495   1.051  2.4703  1.7077  3.1611
 7575TIP3    H244217   3.052   0.501   1.097  0.8742  0.3090 -1.1846
 7576TIP3   OH244218   1.788   6.781   4.872  0.1233  0.2600 -0.2343
 7576TIP3    H144219   1.787   6.753   4.780 -1.6256 -0.9872  0.1204
 7576TIP3    H244220   1.858   6.846   4.876  3.3954 -2.8552 -1.4663
 7577TIP3   OH244221   4.441   6.607   4.206 -0.2589 -0.4713 -0.4033
 7577TIP3    H144222   4.441   6.622   4.300 -3.9112 -1.6526 -0.0253
 7577TIP3    H244223   4.490   6.526   4.194  0.2334 -0.3051  0.4807
 7578TIP3   OH244224   5.093   3.722  15.472  0.2126 -0.1443 -0.0167
 7578TIP3    H144225   5.096   3.758  15.384 -0.9254 -0.6612 -0.2864
 7578TIP3    H244226   5.169   3.759  15.516 -1.9427  4.3939  0.4565
 7579TIP3   OH244227   0.707   0.218   0.246 -0.4522  0.0003 -0.6468
 7579TIP3    H144228   0.770   0.190   0.180 -1.7470 -1.8089 -1.1822
 7579TIP3    H244229   0.645   0.273   0.198 -0.0569  0.6764 -0.4004
 7580TIP3   OH244230   5.540   3.423   0.844 -0.0872 -0.6445  0.1663
 7580TIP3    H144231   5.507   3.488   0.782  1.5608  0.0574 -0.0038
 7580TIP3    H244232   5.461   3.375   0.871 -1.7521  2.6260  1.7775
 7581TIP3   OH244233   3.209   5.754   0.209  0.6172 -0.0502  0.0181
 7581TIP3    H144234   3.154   5.740   0.132  0.5349 -0.8485  0.2185
 7581TIP3    H244235   3.296   5.771   0.174  0.5473 -0.2621 -0.2576
 7582TIP3   OH244236   6.100   2.029   3.483 -0.1111 -0.3975 -0.4657
 7582TIP3    H144237   6.178   2.081   3.466  0.9554 -1.2911  1.3958
 7582TIP3    H244238   6.113   1.994   3.571 -1.2610 -2.9565 -1.2187
 7583TIP3   OH244239   0.595   1.049  16.456 -0.2191  0.7012 -0.2938
 7583TIP3    H144240   0.500   1.064  16.463 -0.3038  0.0050  0.1877
 7583TIP3    H244241   0.610   1.039  16.362 -0.2263  3.1121 -0.6049
 7584TIP3   OH244242   5.472   4.149  13.019 -0.1196  0.0768  0.6832
 7584TIP3    H144243   5.566   4.159  13.003 -0.4401  1.8620 -0.3558
 7584TIP3    H244244   5.433   4.143  12.932 -1.0158 -0.0830  1.0877
 7585TIP3   OH244245   0.904   2.064   0.828  0.0887  0.1469 -0.1112
 7585TIP3    H144246   0.873   2.131   0.767 -0.4582  0.6017  0.6437
 7585TIP3    H244247   0.824   2.029   0.868  0.2218 -2.1403 -1.6585
 7586TIP3   OH244248   0.449   6.221   5.211 -0.1938 -0.3283  0.1624
 7586TIP3    H144249   0.364   6.260   5.228 -0.5741 -1.4207  0.8369
 7586TIP3    H244250   0.439   6.129   5.232  1.4723 -0.2812  1.4196
 7587TIP3   OH244251   3.457   1.649   2.031  0.2851  0.8463 -0.8738
 7587TIP3    H144252   3.491   1.734   2.059 -0.6882  1.3722 -1.2453
 7587TIP3    H244253   3.514   1.625   1.957 -0.5015  2.0155 -1.8972
 7588TIP3   OH244254   1.620   2.578  17.113  0.5343 -0.1138 -0.0806
 7588TIP3    H144255   1.580   2.665  17.111  2.1189  0.6398 -0.0862
 7588TIP3    H244256   1.648   2.566  17.204  0.3210 -0.6310 -0.0771
 7589TIP3   OH244257   3.059   4.734   4.816 -0.4243 -0.5478  0.3374
 7589TIP3    H144258   3.150   4.744   4.785 -0.7012 -2.4972 -1.3744
 7589TIP3    H244259   3.026   4.823   4.823  0.9904  0.1522 -1.1014
 7590TIP3   OH244260   6.299   1.218  12.840 -0.4677 -0.3468  0.0636
 7590TIP3    H144261   6.269   1.146  12.895 -1.0372  0.3961  0.7524
 7590TIP3    H244262   6.335   1.282  12.901 -0.1353  0.0371 -0.5215
 7591TIP3   OH244263   0.175   4.566  12.905 -0.5841 -0.1637 -0.3547
 7591TIP3    H144264   0.112   4.508  12.863 -0.7121 -0.1994 -0.1102
 7591TIP3    H244265   0.243   4.578  12.839  0.4272 -2.1242  0.2639
 7592TIP3   OH244266   0.311   3.331   0.438  0.2833 -0.0927 -0.4581
 7592TIP3    H144267   0.332   3.358   0.348  1.1234  0.3903 -0.1282
 7592TIP3    H244268   0.269   3.408   0.477 -0.2036 -0.3469 -0.4683
 7593TIP3   OH244269   6.698   2.265  13.565 -0.4856 -0.0019 -0.2781
 7593TIP3    H144270   6.685   2.344  13.618  2.6448 -0.5114  1.4722
 7593TIP3    H244271   6.620   2.213  13.582 -1.1022  1.3008  1.1813
 7594TIP3   OH244272   0.266   3.172   6.008  0.2530 -0.2971 -0.3105
 7594TIP3    H144273   0.253   3.203   5.919 -1.4718 -0.5611 -0.1916
 7594TIP3    H244274   0.228   3.240   6.063  1.1022 -0.2444  0.2239
 7595TIP3   OH244275   6.148   5.674   5.598 -0.1635  0.2455 -0.3024
 7595TIP3    H144276   6.071   5.629   5.632 -1.4409  1.8492 -0.9132
 7595TIP3    H244277   6.145   5.661   5.503  1.3965 -1.2302 -0.1963
 7596TIP3   OH244278   5.890   4.033  15.760  0.2458 -0.2323  0.5020
 7596TIP3    H144279   5.984   4.049  15.765  0.4839 -1.7933  2.2560
 7596TIP3    H244280   5.854   4.077  15.837  0.0762 -2.3751  1.7479
 7597TIP3   OH244281   2.457   0.020  10.389 -0.0982 -0.4003  0.5379
 7597TIP3    H144282   2.481   0.062  10.472  0.8277  1.2840 -0.5155
 7597TIP3    H244283   2.508   0.067  10.323 -2.0377 -0.5725 -1.1825
 7598TIP3   OH244284   2.398   2.307   2.989 -0.3827  0.4554  0.0533
 7598TIP3    H144285   2.317   2.347   3.018 -0.0918  0.9989  0.1370
 7598TIP3    H244286   2.439   2.275   3.069 -1.3353 -1.4315 -0.1610
 7599TIP3   OH244287   6.258   4.221  13.805 -0.3064 -0.0901 -0.8011
 7599TIP3    H144288   6.291   4.304  13.770 -0.9023  0.4661 -0.0535
 7599TIP3    H244289   6.300   4.213  13.890  0.1682 -0.8348 -1.0946
 7600TIP3   OH244290   3.952   5.469   2.078 -0.4189 -0.2606  0.0651
 7600TIP3    H144291   4.007   5.390   2.078  0.4376  0.2108  2.9035
 7600TIP3    H244292   3.862   5.435   2.083 -0.2286 -1.0305 -1.3175
 7601TIP3   OH244293   1.843   3.391   0.519 -0.2632 -0.1961 -0.3693
 7601TIP3    H144294   1.833   3.486   0.521 -2.2865 -0.3640  0.6379
 7601TIP3    H244295   1.753   3.358   0.520  0.3873 -2.1241  0.9676
 7602TIP3   OH244296   2.001   2.277   4.764  0.5855  0.0788  0.0155
 7602TIP3    H144297   2.031   2.192   4.796 -0.0502 -0.9210 -1.8334
 7602TIP3    H244298   2.066   2.303   4.699 -0.3731 -0.1451 -1.0772
 7603TIP3   OH244299   3.310   6.365   5.054 -0.2497 -0.1988  0.5475
 7603TIP3    H144300   3.225   6.408   5.065 -0.4731  0.1663 -2.0280
 7603TIP3    H244301   3.296   6.275   5.083 -1.4572 -0.0893  0.3429
 7604TIP3   OH244302   5.481   2.617  14.115 -0.3252 -0.3783 -0.0049
 7604TIP3    H144303   5.403   2.643  14.165  0.6705 -1.9544  2.5416
 7604TIP3    H244304   5.531   2.699  14.105  0.0338 -0.1553  2.8144
 7605TIP3   OH244305   5.506   2.189   2.795  0.0231 -0.0051  0.1093
 7605TIP3    H144306   5.520   2.171   2.702  2.4969 -0.5729  0.5189
 7605TIP3    H244307   5.486   2.103   2.833 -1.1184  0.2457  0.1212
 7606TIP3   OH244308   0.359   6.690  14.700 -0.3741  0.3066  0.0003
 7606TIP3    H144309   0.281   6.727  14.740 -0.2615 -0.6590  1.1649
 7606TIP3    H244310   0.381   6.615  14.755  1.8601  1.0329  0.1851
 7607TIP3   OH244311   1.452   6.651   2.248  0.1276 -0.1247 -0.2595
 7607TIP3    H144312   1.438   6.699   2.166 -0.3872  1.5638  0.7792
 7607TIP3    H244313   1.540   6.614   2.240  1.2670  2.4180 -0.4485
 7608TIP3   OH244314   1.798   0.745  16.229  0.1155 -0.0058  0.2790
 7608TIP3    H144315   1.749   0.745  16.147  0.5116  1.4386  0.0207
 7608TIP3    H244316   1.756   0.677  16.282 -0.2614 -0.8349 -1.0352
 7609TIP3   OH244317   0.190   1.853   2.575  0.3276  0.0360 -0.3372
 7609TIP3    H144318   0.117   1.915   2.581  0.3176 -0.0748  1.1112
 7609TIP3    H244319   0.148   1.768   2.561  0.1980  0.0502 -0.0497
 7610TIP3   OH244320   3.633   3.406   0.392  0.1119  0.2876  0.6840
 7610TIP3    H144321   3.711   3.460   0.403  2.1664 -2.1769 -0.7601
 7610TIP3    H244322   3.582   3.450   0.324  2.5924 -0.3265 -1.7558
 7611TIP3   OH244323   1.903   5.020  12.686 -0.0915  0.0317 -0.1114
 7611TIP3    H144324   1.904   5.049  12.777 -2.8972 -1.0853  0.3836
 7611TIP3    H244325   1.874   5.097  12.637  0.1029  0.2602  0.1307
 7612TIP3   OH244326   6.124   3.206  10.998 -0.2139 -0.2682  0.4753
 7612TIP3    H144327   6.121   3.186  10.904 -1.1878  0.4443  0.3412
 7612TIP3    H244328   6.217   3.213  11.018 -0.0018  0.0995 -0.5561
 7613TIP3   OH244329   4.671   1.807   5.216 -0.1476 -0.4835 -0.2685
 7613TIP3    H144330   4.700   1.874   5.155  0.9195 -1.7783 -1.2089
 7613TIP3    H244331   4.584   1.837   5.243  0.9145  2.1290  0.6318
 7614TIP3   OH244332   2.532   3.136   5.469 -0.5362  0.1862 -0.4029
 7614TIP3    H144333   2.454   3.180   5.503 -0.8199 -1.7186  1.6412
 7614TIP3    H244334   2.601   3.202   5.475 -1.4657  1.1447  0.1439
 7615TIP3   OH244335   5.789   3.388   3.922 -0.3628 -0.1557  0.2253
 7615TIP3    H144336   5.868   3.437   3.942 -1.7587  1.6607  1.5905
 7615TIP3    H244337   5.778   3.328   3.995 -2.4747  2.6435  2.4543
 7616TIP3   OH244338   2.043   3.717   2.114 -0.1029  0.8025  0.5220
 7616TIP3    H144339   2.108   3.649   2.132 -1.8804 -0.6069  1.9439
 7616TIP3    H244340   2.084   3.772   2.047  1.2188 -1.9302 -1.0743
 7617TIP3   OH244341   4.685   5.076   3.477 -0.1053  0.1259 -0.1862
 7617TIP3    H144342   4.627   5.004   3.504  1.2734 -0.4973  1.3147
 7617TIP3    H244343   4.672   5.084   3.383 -3.0059  0.3904  0.1693
 7618TIP3   OH244344   5.730   6.765  16.074  0.4095  0.1018  0.7083
 7618TIP3    H144345   5.687   6.709  16.009 -0.1187  0.3313  0.8602
 7618TIP3    H244346   5.780   6.703  16.128  0.3384 -0.1550  0.4868
 7619TIP3   OH244347   2.527   0.495  16.835 -0.2305 -0.1325  0.0666
 7619TIP3    H144348   2.446   0.457  16.802  0.9084 -1.3010 -1.5428
 7619TIP3    H244349   2.595   0.459  16.779  1.1939  2.6350 -0.1584
 7620TIP3   OH244350   2.101   2.449   3.718 -0.1011 -0.5866 -0.2901
 7620TIP3    H144351   2.121   2.477   3.629 -2.4045  0.5869 -0.5119
 7620TIP3    H244352   2.127   2.522   3.773  0.7223 -1.0514 -0.0505
 7621TIP3   OH244353   3.051   0.333  14.856 -0.7339 -0.3975 -0.0259
 7621TIP3    H144354   3.052   0.238  14.854  0.6111 -0.5423  2.6411
 7621TIP3    H244355   2.959   0.355  14.870 -0.8170 -1.4757  1.4408
 7622TIP3   OH244356   2.389   4.876  17.201  0.4935 -0.5372 -0.2288
 7622TIP3    H144357   2.474   4.857  17.160  2.1896  1.7716  1.8888
 7622TIP3    H244358   2.392   4.829  17.284 -0.9249 -1.4620 -0.6662
 7623TIP3   OH244359   3.883   5.402  15.270  0.1701  0.0343 -0.4344
 7623TIP3    H144360   3.873   5.497  15.277  0.7254  0.0527  0.3464
 7623TIP3    H244361   3.973   5.390  15.238 -0.0665 -0.2165 -1.0029
 7624TIP3   OH244362   2.004   2.381   1.211  0.4581  0.3519  0.0011
 7624TIP3    H144363   1.911   2.358   1.206  0.5383 -0.3274  1.1496
 7624TIP3    H244364   2.046   2.326   1.145  0.1437  0.0888  0.0166
 7625TIP3   OH244365   2.080   2.169  16.729  0.0878  0.1440 -0.4904
 7625TIP3    H144366   2.015   2.239  16.735 -0.8099 -0.6498 -0.6169
 7625TIP3    H244367   2.043   2.107  16.666 -1.3045 -2.6233  2.7072
 7626TIP3   OH244368   5.585   2.747  15.271 -0.0338  0.4269 -0.7475
 7626TIP3    H144369   5.578   2.659  15.234  1.3635 -0.7431  1.5420
 7626TIP3    H244370   5.516   2.797  15.227 -1.3601 -1.9898 -1.6057
 7627TIP3   OH244371   5.116   5.027   4.224  0.0660  0.1898 -0.3490
 7627TIP3    H144372   5.026   5.031   4.191 -0.1848  1.0188  0.3743
 7627TIP3    H244373   5.106   5.009   4.317  0.5756  1.5886  0.0031
 7628TIP3   OH244374   0.198   3.767   2.947  0.5733 -0.5605  0.1368
 7628TIP3    H144375   0.231   3.850   2.913  0.5486 -0.4126  0.4732
 7628TIP3    H244376   0.136   3.791   3.015  1.3397 -0.8503  0.9709
 7629TIP3   OH244377   5.906   1.765  12.647  0.5735  0.1576 -0.5385
 7629TIP3    H144378   5.908   1.860  12.636 -1.6102  0.3717  0.3995
 7629TIP3    H244379   5.859   1.733  12.570  1.2965 -0.1865 -0.8469
 7630TIP3   OH244380   4.229   2.278   3.853  0.1011 -0.3973 -0.2036
 7630TIP3    H144381   4.227   2.208   3.919  1.4870 -1.5741 -1.3380
 7630TIP3    H244382   4.322   2.297   3.841 -0.1118 -0.2366 -1.8244
 7631TIP3   OH244383   2.470   0.859  16.640  0.0292 -0.1143 -0.3434
 7631TIP3    H144384   2.481   0.888  16.550  0.7176  0.4266 -0.0980
 7631TIP3    H244385   2.559   0.854  16.675 -0.3135  2.3308  1.1094
 7632TIP3   OH244386   1.705   0.322   4.888 -0.2863  0.0496  0.1120
 7632TIP3    H144387   1.676   0.274   4.810 -0.3816  2.3807 -1.3943
 7632TIP3    H244388   1.673   0.411   4.875  1.2602  0.9619  1.9503
 7633TIP3   OH244389   1.193   6.428   6.346  0.1065  0.0828 -0.1341
 7633TIP3    H144390   1.227   6.491   6.410 -4.1702  0.9865  1.6727
 7633TIP3    H244391   1.177   6.349   6.397 -0.3044 -0.3225 -0.8821
 7634TIP3   OH244392   2.825   6.400  17.239  0.1463  0.1286 -0.2426
 7634TIP3    H144393   2.761   6.432  17.177 -0.5170  0.5100  0.6128
 7634TIP3    H244394   2.886   6.473  17.251 -0.2791  0.4038  0.2769
 7635TIP3   OH244395   3.490   3.081   2.768 -0.3904  0.5495  0.1434
 7635TIP3    H144396   3.542   3.014   2.812  0.7999  1.5556  0.3464
 7635TIP3    H244397   3.545   3.160   2.773 -1.9360  1.6490  0.3287
 7636TIP3   OH244398   6.003   3.628   1.106 -0.4512 -0.1841 -0.2531
 7636TIP3    H144399   6.013   3.712   1.149 -1.2951 -0.8203  1.2488
 7636TIP3    H244400   5.912   3.626   1.077 -0.6290 -0.8541  0.3380
 7637TIP3   OH244401   5.201   0.052  13.724  0.2726  0.1333 -0.5873
 7637TIP3    H144402   5.262   0.090  13.660 -0.3296  0.1102 -1.1826
 7637TIP3    H244403   5.129   0.114  13.729 -0.7719 -0.9522 -1.6462
 7638TIP3   OH244404   4.475   4.105   2.945  0.3267 -0.0198  0.2204
 7638TIP3    H144405   4.439   4.021   2.972  0.3879  0.1933  0.9759
 7638TIP3    H244406   4.437   4.168   3.006 -0.8065  0.7162 -1.1823
 7639TIP3   OH244407   1.585   4.276   0.146  0.0195  0.6313 -0.2915
 7639TIP3    H144408   1.561   4.350   0.203 -0.8670 -0.9264  1.4629
 7639TIP3    H244409   1.656   4.232   0.193 -0.4595 -0.4719 -0.5777
 7640TIP3   OH244410   5.637   4.404   3.064 -0.0189 -0.0224 -0.1487
 7640TIP3    H144411   5.544   4.384   3.073  0.1396 -2.0405 -2.0553
 7640TIP3    H244412   5.658   4.378   2.974  2.8493 -1.6886  0.8786
 7641TIP3   OH244413   0.996   1.908  16.929  0.1032 -0.1312 -0.0951
 7641TIP3    H144414   1.037   1.922  17.014  0.2582 -0.6565 -0.0835
 7641TIP3    H244415   0.906   1.884  16.949  0.9668 -3.6585  0.0996
 7642TIP3   OH244416   1.305   3.065   0.146  0.1896 -0.5569  0.4878
 7642TIP3    H144417   1.236   2.999   0.146  0.5598 -0.9934  2.0558
 7642TIP3    H244418   1.334   3.070   0.237 -1.3271  3.3600  0.9752
 7643TIP3   OH244419   2.898   3.321  16.522  0.2623  0.3224  0.0937
 7643TIP3    H144420   2.909   3.402  16.472 -0.7177 -0.0625 -0.8033
 7643TIP3    H244421   2.900   3.348  16.613 -1.0781  1.5318 -0.1964
 7644TIP3   OH244422   4.407   6.782   2.818  0.2046 -0.3314  0.6447
 7644TIP3    H144423   4.466   6.819   2.884 -1.2077 -0.4093  2.0130
 7644TIP3    H244424   4.340   6.737   2.869 -1.0598 -0.2067 -0.8478
 7645TIP3   OH244425   1.543   4.851  12.498  0.4404 -0.0434  1.0507
 7645TIP3    H144426   1.560   4.834  12.405 -1.0195 -1.0594  0.9289
 7645TIP3    H244427   1.538   4.946  12.504  1.0782  0.0620  0.2025
 7646TIP3   OH244428   6.156   5.885  11.759  0.0350 -0.5821  0.1851
 7646TIP3    H144429   6.081   5.906  11.704  1.0992  0.7066 -0.8475
 7646TIP3    H244430   6.156   5.953  11.827  1.4590  0.8043 -1.1015
 7647TIP3   OH244431   4.902   2.415   3.169 -0.4878 -0.1028 -0.0530
 7647TIP3    H144432   4.907   2.348   3.101 -1.5437 -0.0166 -0.2478
 7647TIP3    H244433   4.899   2.367   3.251 -3.7085 -0.5366 -0.2630
 7648TIP3   OH244434   3.492   0.653   1.558  0.2694 -0.2374  0.1253
 7648TIP3    H144435   3.575   0.699   1.574  1.0816 -1.6620  0.1961
 7648TIP3    H244436   3.428   0.702   1.611  1.0167  0.9660 -0.0245
 7649TIP3   OH244437   4.143   1.639   1.960 -0.0748 -0.5014 -0.0577
 7649TIP3    H144438   4.074   1.640   1.894  0.5649 -1.3746 -0.7724
 7649TIP3    H244439   4.215   1.688   1.920 -0.2135  0.2605  0.6105
 7650TIP3   OH244440   1.457   4.695   1.369 -0.1964  0.1118 -0.2450
 7650TIP3    H144441   1.508   4.629   1.321  0.9862 -0.5278  1.7478
 7650TIP3    H244442   1.393   4.644   1.420 -1.1024  0.7265 -0.7497
 7651TIP3   OH244443   0.319   5.003  15.285  0.1933  0.0198 -0.2122
 7651TIP3    H144444   0.293   4.978  15.373  2.5031  1.3135  0.9321
 7651TIP3    H244445   0.415   4.997  15.286  0.6839  4.5284 -1.0687
 7652TIP3   OH244446   1.936   6.711  14.414 -0.1516  0.1640  0.0472
 7652TIP3    H144447   1.980   6.664  14.484 -1.2351  0.9005  1.2786
 7652TIP3    H244448   1.973   6.800  14.419  0.0274  0.1275 -0.5668
 7653TIP3   OH244449   2.777   4.898   4.971 -0.4893  0.0815 -0.1246
 7653TIP3    H144450   2.695   4.890   4.924  0.1101 -0.7381 -1.0769
 7653TIP3    H244451   2.834   4.949   4.913 -0.4342  0.9547  0.6810
 7654TIP3   OH244452   0.889   3.488  14.612 -0.0845  1.1395 -0.4417
 7654TIP3    H144453   0.961   3.490  14.549  0.1403 -0.7084 -0.3011
 7654TIP3    H244454   0.822   3.435  14.569 -0.0544  0.1234  0.7223
 7655TIP3   OH244455   2.500   0.513   2.701 -0.1322  0.2550  0.6033
 7655TIP3    H144456   2.543   0.580   2.754 -0.3765  1.1162 -0.2521
 7655TIP3    H244457   2.411   0.545   2.689  0.3927  1.0696 -1.8353
 7656TIP3   OH244458   5.892   5.697   4.375 -0.1396  0.2479  0.0297
 7656TIP3    H144459   5.964   5.665   4.430 -0.3620  0.4642  0.4475
 7656TIP3    H244460   5.813   5.676   4.424 -0.3844 -0.2803 -0.5801
 7657TIP3   OH244461   5.871   5.419  11.432 -0.3802  0.3939 -0.3856
 7657TIP3    H144462   5.925   5.390  11.505 -0.7791 -0.2007 -0.3165
 7657TIP3    H244463   5.841   5.337  11.391  0.8682  0.6847 -2.0014
 7658TIP3   OH244464   4.932   1.038   1.502  0.2487  0.1128  0.0522
 7658TIP3    H144465   4.919   0.961   1.447 -0.1381  0.1059  0.1483
 7658TIP3    H244466   5.022   1.032   1.532  0.1208 -0.4790  0.3232
 7659TIP3   OH244467   5.491   2.714   2.481  0.1715  0.4848  0.6869
 7659TIP3    H144468   5.418   2.775   2.470 -0.0772  0.3448  1.4761
 7659TIP3    H244469   5.484   2.685   2.572 -0.6346 -1.8840 -0.0638
 7660TIP3   OH244470   1.277   4.885  15.018  0.2068  0.5698  0.2614
 7660TIP3    H144471   1.202   4.908  14.963  0.1533  0.7664  0.4149
 7660TIP3    H244472   1.352   4.925  14.975  0.2343  0.2985  0.0600
 7661TIP3   OH244473   3.208   3.867  11.817  0.5576 -0.2040 -0.2175
 7661TIP3    H144474   3.217   3.849  11.910 -3.0710  2.1524  0.7968
 7661TIP3    H244475   3.137   3.809  11.788 -0.2674  1.0399 -0.7760
 7662TIP3   OH244476   3.343   5.437   4.747 -0.3147  0.1308 -0.3624
 7662TIP3    H144477   3.382   5.445   4.660  0.3437  1.1087  0.0154
 7662TIP3    H244478   3.412   5.399   4.801 -0.4469  0.3064 -0.0693
 7663TIP3   OH244479   2.636   4.648   3.072 -0.3142 -0.2805  0.1616
 7663TIP3    H144480   2.715   4.628   3.022 -0.5219  0.6862 -0.5853
 7663TIP3    H244481   2.587   4.708   3.016 -1.8486 -1.2852  0.3678
 7664TIP3   OH244482   3.759   1.174   2.770  0.8280  0.5625 -0.1383
 7664TIP3    H144483   3.842   1.213   2.797  0.5662  0.4977  0.7802
 7664TIP3    H244484   3.719   1.241   2.714  1.9247  0.1947 -1.4258
 7665TIP3   OH244485   2.587   4.236  16.692  0.8253 -0.2976 -0.4810
 7665TIP3    H144486   2.539   4.164  16.731 -0.9907 -0.6577 -3.1157
 7665TIP3    H244487   2.560   4.313  16.742 -0.4388 -0.8907 -0.2254
 7666TIP3   OH244488   4.581   6.615   2.704 -0.2173 -0.3682 -0.0296
 7666TIP3    H144489   4.527   6.686   2.738  0.4813 -0.4119  1.2218
 7666TIP3    H244490   4.518   6.550   2.673 -0.8769  0.9622 -1.6267
 7667TIP3   OH244491   4.840   4.055  13.369  0.1805 -0.3289 -0.3251
 7667TIP3    H144492   4.911   4.118  13.380  0.1316 -0.5462  1.4862
 7667TIP3    H244493   4.788   4.062  13.449 -0.0147 -2.4276 -0.2079
 7668TIP3   OH244494   3.605   2.279  17.304  0.0535  0.3359 -0.2375
 7668TIP3    H144495   3.564   2.279  17.391 -0.0555 -0.9379 -0.2680
 7668TIP3    H244496   3.678   2.341  17.312 -1.4667  2.1796 -0.0107
 7669TIP3   OH244497   6.298   6.244  13.498  0.1669 -0.1775 -0.5093
 7669TIP3    H144498   6.297   6.336  13.523  0.7830 -0.5605  1.0454
 7669TIP3    H244499   6.312   6.197  13.580 -2.1896 -1.7973 -0.9282
 7670TIP3   OH244500   6.558   3.372  16.870 -0.0433 -0.6852  0.3743
 7670TIP3    H144501   6.591   3.432  16.803  0.5421  0.3089  1.5122
 7670TIP3    H244502   6.542   3.290  16.823  0.8317 -0.1727 -0.8781
 7671TIP3   OH244503   0.595   1.501   3.955 -0.6231  0.2259  0.2478
 7671TIP3    H144504   0.620   1.428   4.011  1.1066 -0.8610 -1.7921
 7671TIP3    H244505   0.530   1.465   3.895  0.9002  0.0369 -1.3565
 7672TIP3   OH244506   5.437   5.116  11.497 -0.0970  0.1057 -0.6763
 7672TIP3    H144507   5.450   5.195  11.550  1.5627 -0.9816  0.6408
 7672TIP3    H244508   5.342   5.107  11.491 -0.3312  1.9666 -0.5478
 7673TIP3   OH244509   6.148   4.490  15.172  0.4090 -0.1280 -0.2087
 7673TIP3    H144510   6.096   4.520  15.246  0.1984 -0.2498 -0.3067
 7673TIP3    H244511   6.106   4.409  15.144  0.0527  0.2904 -0.9160
 7674TIP3   OH244512   4.431   3.665   4.086 -0.1752  0.9309 -0.1439
 7674TIP3    H144513   4.412   3.601   4.154 -1.4453  0.9472 -0.4524
 7674TIP3    H244514   4.520   3.696   4.105  0.7774 -1.4463 -0.4123
 7675TIP3   OH244515   6.490   1.712  16.883  0.5292 -0.3005 -0.0912
 7675TIP3    H144516   6.420   1.710  16.948  0.4510 -1.1897 -0.1879
 7675TIP3    H244517   6.545   1.786  16.909 -1.4257  1.6071 -1.0736
 7676TIP3   OH244518   6.231   3.001  16.414 -0.1324  0.0127 -0.0160
 7676TIP3    H144519   6.198   2.956  16.337 -0.9068 -0.1219  0.3786
 7676TIP3    H244520   6.171   3.075  16.426  1.9841  2.1438 -1.5624
 7677TIP3   OH244521   5.285   1.011  15.451 -0.4083  0.0516 -0.0213
 7677TIP3    H144522   5.252   1.092  15.413 -0.1211  0.5101  0.6959
 7677TIP3    H244523   5.316   0.960  15.376  0.7340  1.2054 -0.3705
 7678TIP3   OH244524   3.515   5.154  13.936  0.5793 -0.4588  0.3266
 7678TIP3    H144525   3.578   5.222  13.959 -1.8896  2.1759 -0.0974
 7678TIP3    H244526   3.470   5.188  13.859 -2.2244 -1.5519  1.3378
 7679TIP3   OH244527   3.136   6.697  12.409  0.0272  0.2314 -0.4647
 7679TIP3    H144528   3.168   6.732  12.326 -0.2082  0.9797 -0.2418
 7679TIP3    H244529   3.082   6.766  12.446  1.0730  0.3794  0.8830
 7680TIP3   OH244530   6.090   2.102  13.794  0.1858 -0.2580 -0.3598
 7680TIP3    H144531   6.137   2.166  13.848 -1.6282 -0.2060  1.2649
 7680TIP3    H244532   6.012   2.149  13.763  0.2469 -0.8742 -1.5016
 7681TIP3   OH244533   0.941   3.509   5.305  0.2721 -0.1048 -0.0005
 7681TIP3    H144534   0.927   3.539   5.395 -1.0640 -3.3681  1.0540
 7681TIP3    H244535   0.993   3.429   5.315 -0.8184 -1.1331 -2.0075
 7682TIP3   OH244536   0.825   1.814   0.043 -0.3479  0.8323  0.3596
 7682TIP3    H144537   0.918   1.833   0.050 -0.4039  1.1260  0.3125
 7682TIP3    H244538   0.794   1.812   0.134  0.1288 -1.4642  0.5355
 7683TIP3   OH244539   5.771   6.625   0.904 -0.7764 -0.1695  0.3168
 7683TIP3    H144540   5.786   6.712   0.941  0.9285  0.0448 -0.8000
 7683TIP3    H244541   5.805   6.565   0.970 -1.8187 -0.0247  1.0232
 7684TIP3   OH244542   0.983   3.327  12.675 -0.2626 -0.0488  0.1936
 7684TIP3    H144543   0.954   3.243  12.710 -1.3238  0.2836  0.1602
 7684TIP3    H244544   1.042   3.362  12.741 -1.9216  0.3873  1.5174
 7685TIP3   OH244545   1.980   3.385   5.070  0.0274  0.3292  0.5288
 7685TIP3    H144546   2.061   3.344   5.041  0.5956  1.2009  0.8616
 7685TIP3    H244547   1.980   3.373   5.165 -1.1903 -1.3608  0.3763
 7686TIP3   OH244548   1.500   6.048   2.278  0.0023 -0.6893 -0.6434
 7686TIP3    H144549   1.540   5.962   2.262 -1.1951 -1.0119 -2.0442
 7686TIP3    H244550   1.407   6.035   2.262 -0.8915 -0.1025  3.1430
 7687TIP3   OH244551   3.100   2.741   5.944 -0.8076  0.0989 -0.2928
 7687TIP3    H144552   3.138   2.774   6.025  0.3213  0.0958 -0.8103
 7687TIP3    H244553   3.142   2.792   5.875 -2.4346  0.7573 -0.8496
 7688TIP3   OH244554   2.351   3.587  17.285  0.4088  0.8439  0.6217
 7688TIP3    H144555   2.332   3.538  17.205  0.4572 -1.2099  1.7974
 7688TIP3    H244556   2.269   3.586  17.334  0.1916  2.6416  0.3773
 7689TIP3   OH244557   3.067   1.607  15.702 -0.2773 -0.7837 -0.2910
 7689TIP3    H144558   3.066   1.678  15.638  0.3848  0.1505  0.7011
 7689TIP3    H244559   3.006   1.634  15.770  1.1218 -0.3748  0.8655
 7690TIP3   OH244560   6.743   2.942  14.063  0.1526 -0.0139  0.0704
 7690TIP3    H144561   6.813   2.919  14.002  0.5235 -0.5969  0.6892
 7690TIP3    H244562   6.749   2.875  14.131 -2.0119 -1.0216 -0.6363
 7691TIP3   OH244563   5.555   4.737  13.444  0.3402  0.1896 -0.0032
 7691TIP3    H144564   5.523   4.647  13.441  1.0302 -0.0388 -1.7081
 7691TIP3    H244565   5.487   4.789  13.401  1.0910  0.0573 -1.4223
 7692TIP3   OH244566   0.945   5.253   1.849  0.3884  0.6143  0.1262
 7692TIP3    H144567   0.961   5.299   1.767 -0.5915  2.2110  0.7720
 7692TIP3    H244568   0.863   5.291   1.881 -0.2544 -1.3235  0.9222
 7693TIP3   OH244569   5.153   4.646   3.533  0.2422 -0.1367  0.2327
 7693TIP3    H144570   5.060   4.642   3.512  0.2044 -1.4006  0.5817
 7693TIP3    H244571   5.175   4.739   3.525  0.0461 -0.2712 -4.5840
 7694TIP3   OH244572   0.160   3.241  13.655 -0.1076 -0.7706 -0.6971
 7694TIP3    H144573   0.070   3.260  13.628 -0.4022  0.7453  1.0916
 7694TIP3    H244574   0.211   3.245  13.574 -1.3126  0.7843 -1.4363
 7695TIP3   OH244575   4.243   2.909  13.402 -0.2181 -0.4508  0.2414
 7695TIP3    H144576   4.258   2.989  13.452 -2.2414  0.7276 -0.8646
 7695TIP3    H244577   4.151   2.888  13.419  0.1522 -2.2733  0.1137
 7696TIP3   OH244578   5.842   2.869  14.556  0.1713 -0.4892 -0.6379
 7696TIP3    H144579   5.920   2.919  14.530 -0.0008  0.4193  0.4907
 7696TIP3    H244580   5.874   2.806  14.620 -0.0404  0.0033 -0.0407
 7697TIP3   OH244581   0.977   2.437  15.493 -0.3812 -0.0715 -0.2440
 7697TIP3    H144582   1.055   2.393  15.528  1.3716  0.1351 -3.5055
 7697TIP3    H244583   0.923   2.366  15.459 -0.1085 -0.0490 -0.7354
 7698TIP3   OH244584   5.354   5.110   3.682 -0.7401  0.2309  0.5795
 7698TIP3    H144585   5.311   5.132   3.764 -0.0091 -0.6165  1.2176
 7698TIP3    H244586   5.411   5.185   3.663  0.1535 -0.1679  1.6091
 7699TIP3   OH244587   6.261   1.235  17.050 -0.2602  0.6319 -0.3923
 7699TIP3    H144588   6.350   1.205  17.067  0.0472  2.1283  0.8607
 7699TIP3    H244589   6.270   1.303  16.984 -0.5011  0.6823 -0.3781
 7700TIP3   OH244590   4.134   3.381   1.398  0.2618  0.1374  0.3844
 7700TIP3    H144591   4.082   3.302   1.411 -0.4312  0.7042  1.1261
 7700TIP3    H244592   4.077   3.452   1.425  1.5995  0.7397  1.7255
 7701TIP3   OH244593   0.321   3.612   6.166 -0.2409 -0.1502  0.3022
 7701TIP3    H144594   0.327   3.655   6.251  0.0503  1.1679 -0.3631
 7701TIP3    H244595   0.325   3.683   6.103  0.5980 -1.1734 -0.8509
 7702TIP3   OH244596   0.086   2.944  14.363 -0.7854  0.7129 -0.0637
 7702TIP3    H144597   0.016   3.009  14.361 -1.1911  0.2871 -0.0091
 7702TIP3    H244598   0.050   2.869  14.317 -0.5754  0.2784  0.4652
 7703TIP3   OH244599   0.518   0.076  13.826  0.0599 -0.3702 -0.2832
 7703TIP3    H144600   0.596   0.080  13.882  0.1755  1.5800 -0.5182
 7703TIP3    H244601   0.517  -0.014  13.792  2.2257 -0.4276 -0.3080
 7704TIP3   OH244602   5.987   1.294  14.728  0.0079 -0.3706  0.2331
 7704TIP3    H144603   5.989   1.388  14.706 -0.4724  0.1604  2.2456
 7704TIP3    H244604   5.913   1.286  14.789 -0.0240 -2.0962  0.0058
 7705TIP3   OH244605   6.047   5.053   2.223 -0.0387  1.2624 -0.4561
 7705TIP3    H144606   5.961   5.061   2.265  0.6414 -0.2611  1.3841
 7705TIP3    H244607   6.029   5.062   2.130 -2.3626  0.0501 -0.1996
 7706TIP3   OH244608   3.446   5.046  11.887  0.1874  0.0870  0.2407
 7706TIP3    H144609   3.495   5.081  11.812  2.0260  0.0140  1.3576
 7706TIP3    H244610   3.394   4.974  11.850  0.6257  0.4207 -1.0725
 7707TIP3   OH244611   1.306   6.354  14.655 -0.4338  0.0198  0.0800
 7707TIP3    H144612   1.288   6.428  14.596 -1.0592 -1.1928 -1.3316
 7707TIP3    H244613   1.299   6.277  14.599 -0.8589 -1.1960  1.7345
 7708TIP3   OH244614   4.214   2.741  11.400  0.5601  0.4811 -0.0941
 7708TIP3    H144615   4.254   2.707  11.320  1.5915  1.9621 -0.2510
 7708TIP3    H244616   4.180   2.663  11.445  2.3753 -0.7092 -0.6463
 7709TIP3   OH244617   3.189   6.535  15.783 -0.2099  0.1759  0.2111
 7709TIP3    H144618   3.177   6.444  15.756  0.0358  0.3907 -0.6660
 7709TIP3    H244619   3.283   6.550  15.775  0.2342 -0.3339  3.2019
 7710TIP3   OH244620   0.300   4.052  10.640  1.0430  0.4289  0.5770
 7710TIP3    H144621   0.223   4.078  10.690  1.7425  0.7024  1.5593
 7710TIP3    H244622   0.302   3.957  10.646  0.8350  0.4276  0.6345
 7711TIP3   OH244623   0.163   5.220  14.421 -0.3088 -0.8307  0.0422
 7711TIP3    H144624   0.239   5.206  14.478  1.1247 -0.1246 -1.6125
 7711TIP3    H244625   0.161   5.144  14.364  0.1501 -0.0952 -0.9773
 7712TIP3   OH244626   6.729   1.210  10.404  0.4421  0.1516  0.6564
 7712TIP3    H144627   6.704   1.253  10.485 -0.0832  0.6316  0.2533
 7712TIP3    H244628   6.664   1.141  10.392 -0.2572  0.8826  0.0231
 7713TIP3   OH244629   0.745   1.649   4.205 -0.1152  0.0010 -0.4559
 7713TIP3    H144630   0.764   1.578   4.145 -2.2038 -0.5664 -0.5174
 7713TIP3    H244631   0.785   1.726   4.164 -0.9169 -0.4895 -2.2612
 7714TIP3   OH244632   2.267   0.188   5.158 -0.7332 -0.2163 -0.1577
 7714TIP3    H144633   2.237   0.252   5.094  0.0830 -0.2145 -0.5524
 7714TIP3    H244634   2.305   0.118   5.106  0.3248 -0.0257  0.3292
 7715TIP3   OH244635   3.744   0.234  17.052 -0.4585  0.1066  0.6447
 7715TIP3    H144636   3.684   0.265  16.984 -0.2060 -0.0251  0.3596
 7715TIP3    H244637   3.704   0.263  17.134  0.2537  2.0365  0.3556
 7716TIP3   OH244638   5.871   4.193  13.988 -0.1794 -0.2516 -0.2083
 7716TIP3    H144639   5.896   4.277  13.948 -1.3080  0.6462  0.8754
 7716TIP3    H244640   5.886   4.128  13.919  0.1076  0.9290 -1.3003
 7717TIP3   OH244641   2.296   2.176   5.589 -0.1768  0.2761  0.3557
 7717TIP3    H144642   2.344   2.106   5.633 -1.2163  0.5575  2.0278
 7717TIP3    H244643   2.356   2.251   5.590  0.4445 -0.2074 -0.2519
 7718TIP3   OH244644   4.428   0.417  11.460 -0.3804 -0.5934  0.8232
 7718TIP3    H144645   4.333   0.413  11.462 -0.4841  0.7606 -0.2496
 7718TIP3    H244646   4.456   0.349  11.521 -2.0128 -1.9175  0.1844
 7719TIP3   OH244647   3.798   5.967  13.054  0.2249  0.1067  0.1777
 7719TIP3    H144648   3.775   5.983  13.146  1.7662 -1.1049  0.8320
 7719TIP3    H244649   3.851   5.887  13.056 -1.7577 -1.4077 -2.0931
 7720TIP3   OH244650   1.835   6.772   0.174 -0.3839 -1.1277 -0.0113
 7720TIP3    H144651   1.814   6.697   0.118  1.1641 -1.1744 -0.5846
 7720TIP3    H244652   1.753   6.792   0.219 -1.3244 -1.9657 -1.2695
 7721TIP3   OH244653   6.532   6.557  15.117 -0.1598  0.1935 -0.0081
 7721TIP3    H144654   6.574   6.634  15.155  0.4987 -1.0834  2.0237
 7721TIP3    H244655   6.551   6.563  15.024  1.5623  1.4926  0.3654
 7722TIP3   OH244656   4.843   4.201   4.854  0.0481  0.2881 -0.5938
 7722TIP3    H144657   4.803   4.121   4.885 -0.0403 -0.2264 -1.9502
 7722TIP3    H244658   4.925   4.208   4.902  0.2235 -0.8119 -0.7216
 7723TIP3   OH244659   3.185   1.425  15.351  0.2255 -0.0056  0.2103
 7723TIP3    H144660   3.235   1.409  15.431  0.4219  0.5615  0.2067
 7723TIP3    H244661   3.232   1.496  15.307  0.0425 -0.2198 -0.3436
 7724TIP3   OH244662   0.860   6.651   0.895 -0.3095 -0.4642 -0.4384
 7724TIP3    H144663   0.787   6.606   0.937  0.3276 -0.7584  0.3969
 7724TIP3    H244664   0.837   6.744   0.899 -1.0692 -0.6198 -1.0549
 7725TIP3   OH244665   6.324   0.219   6.423 -0.1875 -0.2707  0.2089
 7725TIP3    H144666   6.344   0.126   6.420  1.0443 -0.1614  2.5325
 7725TIP3    H244667   6.409   0.263   6.428 -0.7427  0.7156  2.5117
 7726TIP3   OH244668   0.838   0.665   2.254  0.5256 -0.0219  0.5869
 7726TIP3    H144669   0.789   0.693   2.177 -1.2444 -1.8579  0.9601
 7726TIP3    H244670   0.929   0.668   2.227  0.5506  4.9843  0.3292
 7727TIP3   OH244671   4.278   2.992   1.777 -1.1880 -0.3016 -0.1764
 7727TIP3    H144672   4.285   2.897   1.763  1.8194 -0.4771  1.5660
 7727TIP3    H244673   4.248   3.000   1.868 -0.5541  0.3461 -0.0107
 7728TIP3   OH244674   4.802   0.833  11.937 -0.0867 -0.2983  0.2442
 7728TIP3    H144675   4.807   0.860  12.029 -2.5479  0.3288  0.2772
 7728TIP3    H244676   4.746   0.899  11.896  1.3095 -0.3229 -1.8343
 7729TIP3   OH244677   4.691   5.708   0.133  0.2730 -0.1239  0.4606
 7729TIP3    H144678   4.612   5.656   0.150  0.2273 -0.3226 -0.3459
 7729TIP3    H244679   4.758   5.670   0.190  0.1420 -0.8338  0.1487
 7730TIP3   OH244680   6.557   4.434  13.760  0.0737 -0.6345  0.1132
 7730TIP3    H144681   6.616   4.383  13.815  2.9962  2.4922  0.1969
 7730TIP3    H244682   6.589   4.421  13.670 -0.2680 -0.3605 -0.0546
 7731TIP3   OH244683   3.672   5.410  16.706  0.2804  0.2948 -0.4141
 7731TIP3    H144684   3.713   5.496  16.704  0.3588  0.2842  0.4776
 7731TIP3    H244685   3.649   5.396  16.798  1.4084 -1.1657 -0.3068
 7732TIP3   OH244686   6.036   5.256  15.250 -0.4705 -0.1128 -0.0308
 7732TIP3    H144687   6.051   5.182  15.191  0.8691  0.2674 -0.2095
 7732TIP3    H244688   6.123   5.295  15.262 -0.8029  0.1671  1.7490
 7733TIP3   OH244689   5.387   2.763   3.207  0.4331 -0.0357 -0.0463
 7733TIP3    H144690   5.328   2.689   3.217 -2.2882  2.0096  0.1083
 7733TIP3    H244691   5.449   2.754   3.279 -0.3003 -1.7048  0.4303
 7734TIP3   OH244692   3.860   4.843  13.467  0.8143  0.1612 -0.4867
 7734TIP3    H144693   3.871   4.770  13.527 -1.7091 -0.9091 -1.2127
 7734TIP3    H244694   3.817   4.911  13.518  0.9745  0.2217 -0.4324
 7735TIP3   OH244695   5.249   1.886  13.305 -0.1751  0.2999  0.0990
 7735TIP3    H144696   5.315   1.852  13.366  0.0535 -0.4249 -0.5470
 7735TIP3    H244697   5.168   1.890  13.357 -1.0593 -4.2971 -0.5268
 7736TIP3   OH244698   0.240   5.638   6.790 -0.0044  0.3027  0.4731
 7736TIP3    H144699   0.173   5.707   6.796 -0.1343  0.2673 -0.3631
 7736TIP3    H244700   0.231   5.605   6.700  0.7135 -0.1350  0.5586
 7737TIP3   OH244701   2.819   5.522   2.806  0.0013 -0.3825 -0.7880
 7737TIP3    H144702   2.734   5.567   2.803 -0.5441 -1.3929 -0.8991
 7737TIP3    H244703   2.862   5.548   2.725  0.0257  0.5452 -0.4942
 7738TIP3   OH244704   0.784   2.529   2.569  0.0938  0.1130  0.3712
 7738TIP3    H144705   0.876   2.553   2.581  0.3340 -0.0958 -0.8881
 7738TIP3    H244706   0.756   2.497   2.654  0.8134  1.3809  1.1215
 7739TIP3   OH244707   0.472   2.574   6.408  0.1270 -0.3872 -0.5014
 7739TIP3    H144708   0.466   2.479   6.401 -0.3152 -0.2971 -1.6884
 7739TIP3    H244709   0.542   2.598   6.347  3.2608 -0.2416  2.8418
 7740TIP3   OH244710   5.598   1.311   1.789  0.4968 -0.0362 -0.2266
 7740TIP3    H144711   5.567   1.383   1.734 -1.4324  0.0970  0.9279
 7740TIP3    H244712   5.670   1.272   1.740 -1.1939 -0.0227 -2.9468
 7741TIP3   OH244713   3.401   3.326  11.761 -0.2476 -0.0350 -0.6853
 7741TIP3    H144714   3.327   3.382  11.783 -1.3730 -2.2370  1.7119
 7741TIP3    H244715   3.478   3.376  11.785 -1.1171  1.1299 -0.2470
 7742TIP3   OH244716   6.136   2.912  16.722  0.3734  0.2023 -0.3174
 7742TIP3    H144717   6.168   2.929  16.633 -0.3280  0.6309 -0.4950
 7742TIP3    H244718   6.150   2.818  16.734  1.4713  0.3290 -0.4656
 7743TIP3   OH244719   4.944   0.697  11.779  0.1359  0.1619  0.0415
 7743TIP3    H144720   4.923   0.739  11.696 -1.5059  0.0142  0.3469
 7743TIP3    H244721   4.905   0.754  11.845  2.8595  1.2013  0.9084
 7744TIP3   OH244722   6.749   0.772   2.246 -0.5793  0.4332  0.0172
 7744TIP3    H144723   6.829   0.733   2.210 -1.5492 -2.1844  0.4876
 7744TIP3    H244724   6.710   0.820   2.173 -0.5686 -1.5878 -1.3834
 7745TIP3   OH244725   0.053   3.489   4.691  0.3581 -0.2749 -0.0298
 7745TIP3    H144726   0.058   3.437   4.771  1.0459 -1.6115 -0.8871
 7745TIP3    H244727  -0.024   3.544   4.702  0.9688  0.2639  1.9351
 7746TIP3   OH244728   6.544   1.707  10.930  0.1102 -0.2306  0.4584
 7746TIP3    H144729   6.620   1.693  10.874  0.1195 -0.9905  0.6499
 7746TIP3    H244730   6.471   1.717  10.870  0.1250 -1.0140  0.3002
 7747TIP3   OH244731   2.790   3.732   3.706  0.1430 -0.0648  0.1355
 7747TIP3    H144732   2.873   3.693   3.731 -0.2240 -0.0223  1.4755
 7747TIP3    H244733   2.766   3.788   3.779  0.4769  2.4871 -1.5627
 7748TIP3   OH244734   4.880   2.345  16.501  0.1066  0.2013 -0.1770
 7748TIP3    H144735   4.968   2.343  16.465  0.4306  1.2432  0.5065
 7748TIP3    H244736   4.855   2.437  16.498 -1.0491 -0.1074 -0.5509
 7749TIP3   OH244737   0.921   4.341   6.026  0.1308  0.2079 -0.2209
 7749TIP3    H144738   0.966   4.316   5.945 -0.3587  0.7782 -0.6798
 7749TIP3    H244739   0.962   4.287   6.094  1.5903  0.7998 -0.6007
 7750TIP3   OH244740   6.577   4.562  15.322 -0.0343 -0.4150 -0.0196
 7750TIP3    H144741   6.659   4.605  15.300 -0.5146  0.1161 -0.8668
 7750TIP3    H244742   6.554   4.596  15.408  0.2950 -0.0481 -0.0744
 7751TIP3   OH244743   2.827   4.825  15.140  0.6446 -0.3093 -0.1668
 7751TIP3    H144744   2.809   4.829  15.234  0.3868 -1.1777 -0.1693
 7751TIP3    H244745   2.892   4.893  15.125 -0.4098  0.8554  0.3780
 7752TIP3   OH244746   6.583   0.379   1.092 -0.8242 -0.2464 -0.2440
 7752TIP3    H144747   6.566   0.323   1.168  1.0821 -0.1640  0.2905
 7752TIP3    H244748   6.675   0.363   1.071 -0.8543  1.0340 -1.4674
 7753TIP3   OH244749   5.123   6.812  11.835  0.6508  0.0514  0.2416
 7753TIP3    H144750   5.171   6.869  11.894 -0.2481  0.5091  0.5530
 7753TIP3    H244751   5.084   6.745  11.892 -1.4505  1.3451  0.4168
 7754TIP3   OH244752   4.832   5.202  11.564  0.2043  0.5760  0.0177
 7754TIP3    H144753   4.755   5.168  11.518  0.2228  0.6440 -0.0627
 7754TIP3    H244754   4.834   5.295  11.542  0.3043  0.5763  0.0294
 7755TIP3   OH244755   1.309   1.722  14.623  0.1041  0.7701 -0.4604
 7755TIP3    H144756   1.362   1.642  14.627  0.4840  1.0232 -0.4160
 7755TIP3    H244757   1.335   1.773  14.699  0.7445  1.4769 -1.1324
 7756TIP3   OH244758   0.121   1.636   3.038 -0.2274 -0.1575 -0.3747
 7756TIP3    H144759   0.035   1.597   3.019  0.6156 -2.1507 -0.3202
 7756TIP3    H244760   0.177   1.607   2.967  0.6090  0.4829  0.0036
 7757TIP3   OH244761   0.303   0.358   2.297  0.1005  0.1883  0.2716
 7757TIP3    H144762   0.251   0.395   2.368 -0.4387  1.3935 -0.7073
 7757TIP3    H244763   0.346   0.433   2.257 -0.1618 -0.3687 -1.1067
 7758TIP3   OH244764   2.928   0.539   4.963 -0.4719  0.1148 -0.2005
 7758TIP3    H144765   2.899   0.456   5.000 -0.3642 -0.8944 -2.2089
 7758TIP3    H244766   2.860   0.602   4.988  0.8054  0.1516  3.6828
 7759TIP3   OH244767   4.895   0.497  16.349  0.2763 -0.9950 -0.1042
 7759TIP3    H144768   4.915   0.407  16.374  0.9344 -0.5300  1.1367
 7759TIP3    H244769   4.945   0.551  16.411 -0.8568  0.2258 -0.2013
 7760TIP3   OH244770   0.181   2.793  16.992  0.0050 -0.2221  0.1269
 7760TIP3    H144771   0.214   2.882  17.006  0.5963 -0.6516  1.6558
 7760TIP3    H244772   0.212   2.744  17.068 -1.8371 -1.3282  0.2098
 7761TIP3   OH244773   6.341   3.575   3.686 -0.5299 -0.1660  0.1921
 7761TIP3    H144774   6.335   3.482   3.666 -0.5876 -0.1632  0.1982
 7761TIP3    H244775   6.251   3.602   3.704 -0.2402 -0.7172  2.8514
 7762TIP3   OH244776   2.610   0.556  15.112  0.2830 -0.0044 -0.1795
 7762TIP3    H144777   2.704   0.555  15.097  0.0083  0.9029 -2.3314
 7762TIP3    H244778   2.582   0.466  15.094  0.5600  0.0923 -1.1835
 7763TIP3   OH244779   2.890   4.447   1.105 -0.6797 -0.1748 -0.0115
 7763TIP3    H144780   2.900   4.352   1.109 -1.1168 -0.2074  0.4376
 7763TIP3    H244781   2.802   4.464   1.140 -0.3931  0.4376  0.4317
 7764TIP3   OH244782   0.307   1.120  12.789  0.5558 -0.1817 -0.2473
 7764TIP3    H144783   0.402   1.112  12.785  0.6475  0.1775  0.9070
 7764TIP3    H244784   0.277   1.040  12.832  0.2435 -0.7016 -1.3953
 7765TIP3   OH244785   1.473   1.191   0.102 -0.2144  0.2311 -0.2928
 7765TIP3    H144786   1.485   1.282   0.073  1.5612  0.2184  0.3047
 7765TIP3    H244787   1.491   1.138   0.025 -2.2703  0.3691 -0.9277
 7766TIP3   OH244788   1.122   5.336   0.097  0.2512  0.2333  0.3422
 7766TIP3    H144789   1.110   5.323   0.191 -0.0190  0.8417  0.3975
 7766TIP3    H244790   1.186   5.408   0.091  0.0689  0.3736  0.0664
 7767TIP3   OH244791   4.104   0.043   4.629 -1.1236 -0.0615 -0.3363
 7767TIP3    H144792   4.063   0.123   4.662 -2.5115 -0.4496 -1.0178
 7767TIP3    H244793   4.155   0.010   4.702 -0.2068  1.6445 -0.1611
 7768TIP3   OH244794   6.085   4.965  11.371 -0.4499 -0.0366 -0.6196
 7768TIP3    H144795   6.074   5.041  11.313  3.2901  2.2939  1.3472
 7768TIP3    H244796   6.054   4.995  11.456  1.7492 -0.3653  0.3488
 7769TIP3   OH244797   6.372   4.756   2.027 -0.3872  0.0464 -0.3185
 7769TIP3    H144798   6.281   4.776   2.004 -0.2718  0.1303 -0.7088
 7769TIP3    H244799   6.380   4.661   2.012 -1.1648 -0.5078  2.3173
 7770TIP3   OH244800   1.483   1.685   0.022  0.6319 -0.1228  0.0106
 7770TIP3    H144801   1.511   1.614  -0.036  1.6116  0.2583 -0.0020
 7770TIP3    H244802   1.521   1.663   0.107 -0.6422 -0.5813  0.4805
 7771TIP3   OH244803   4.260   3.964  12.975 -0.4323 -0.6165 -0.1837
 7771TIP3    H144804   4.313   4.018  12.916 -1.8684 -0.6914 -1.6070
 7771TIP3    H244805   4.285   3.874  12.954  0.3837 -0.5990  0.6514
 7772TIP3   OH244806   3.464   4.488   3.913  1.0879  1.1771 -0.6875
 7772TIP3    H144807   3.439   4.574   3.881  1.9265  0.9628 -1.9734
 7772TIP3    H244808   3.412   4.476   3.993 -0.1914  2.2110 -1.3318
 7773TIP3   OH244809   0.543   0.705   5.768 -0.2085 -0.4765 -0.2324
 7773TIP3    H144810   0.599   0.629   5.749  0.8244 -0.2876  1.7985
 7773TIP3    H244811   0.488   0.677   5.841 -0.9020  0.2443 -0.4635
 7774TIP3   OH244812   2.915   3.884   6.260 -0.3975  0.3025  0.1366
 7774TIP3    H144813   2.883   3.794   6.258  1.7013 -0.5371 -2.2895
 7774TIP3    H244814   2.998   3.879   6.308 -0.8659  1.2151  1.0763
 7775TIP3   OH244815   4.373   2.373  11.196 -0.3273 -0.2255  0.3105
 7775TIP3    H144816   4.444   2.399  11.137  0.4085 -1.5730  0.5650
 7775TIP3    H244817   4.301   2.432  11.173  0.3655  0.1643 -1.0161
 7776TIP3   OH244818   2.307   5.291  16.818 -0.2835 -0.1461 -0.6753
 7776TIP3    H144819   2.396   5.307  16.849 -0.7848 -0.8047  1.2666
 7776TIP3    H244820   2.310   5.203  16.780 -0.7267 -1.5658  2.3304
 7777TIP3   OH244821   2.525   6.403   1.792 -0.3169  0.0042 -0.2068
 7777TIP3    H144822   2.594   6.338   1.779 -1.2138 -1.0393  0.0454
 7777TIP3    H244823   2.547   6.474   1.733  1.5129  0.1537  0.5930
 7778TIP3   OH244824   4.953   2.977   2.580  0.2157  0.1912  0.1756
 7778TIP3    H144825   4.862   2.959   2.603  0.1671  0.7435  0.4609
 7778TIP3    H244826   4.962   2.949   2.489  0.1127 -1.0550  0.5306
 7779TIP3   OH244827   3.875   0.731   2.511  0.2921 -0.0945 -0.2569
 7779TIP3    H144828   3.967   0.706   2.522  0.9145  2.1021  0.1016
 7779TIP3    H244829   3.856   0.716   2.418  0.8142 -1.1258 -0.2071
 7780TIP3   OH244830   2.868   2.181   2.065 -0.1434  0.4676  0.2282
 7780TIP3    H144831   2.955   2.222   2.062 -1.1909  2.8720  0.6196
 7780TIP3    H244832   2.848   2.162   1.973 -0.0433  1.8459 -0.1001
 7781TIP3   OH244833   2.536   2.104  11.553  0.6713 -0.1358  0.0387
 7781TIP3    H144834   2.600   2.076  11.618  0.6397 -0.5546 -0.1129
 7781TIP3    H244835   2.574   2.184  11.515 -0.9132  2.2777  3.0814
 7782TIP3   OH244836   6.121   1.749   1.483 -0.4852 -0.1419  0.5090
 7782TIP3    H144837   6.042   1.763   1.431  0.5038  1.4853 -0.6471
 7782TIP3    H244838   6.193   1.767   1.423  0.7285  0.2681  2.0283
 7783TIP3   OH244839   3.292   5.430  13.973 -0.6301 -0.3717  0.3267
 7783TIP3    H144840   3.278   5.340  14.002 -1.6509 -0.3196  0.0465
 7783TIP3    H244841   3.300   5.423  13.877  1.6896 -0.4277  0.4643
 7784TIP3   OH244842   2.684   5.375   0.508 -0.3835  0.1196 -0.1247
 7784TIP3    H144843   2.683   5.313   0.580 -0.6366  0.0612 -0.1772
 7784TIP3    H244844   2.651   5.325   0.433 -0.7367  0.3574 -0.1320
 7785TIP3   OH244845   1.794   6.410  12.081  0.0649 -0.1016 -0.2635
 7785TIP3    H144846   1.759   6.474  12.142 -1.0568 -1.0120  0.0836
 7785TIP3    H244847   1.852   6.355  12.133 -1.3239 -1.2265  0.1536
 7786TIP3   OH244848   2.109   4.737  15.670  0.2196  0.4518  0.3132
 7786TIP3    H144849   2.136   4.811  15.724  2.6075  0.7540 -1.1188
 7786TIP3    H244850   2.072   4.776  15.592  0.5526  0.1354 -0.0103
 7787TIP3   OH244851   1.389   6.498  16.794 -0.4357  0.7052 -0.1600
 7787TIP3    H144852   1.344   6.523  16.874 -0.9567  1.7789 -0.7773
 7787TIP3    H244853   1.410   6.581  16.750 -0.9176  0.1280 -1.5470
 7788TIP3   OH244854   0.306   1.769   0.041  0.0487  0.2459 -0.0850
 7788TIP3    H144855   0.234   1.824   0.008  1.7361  2.1087 -0.9155
 7788TIP3    H244856   0.356   1.827   0.098  1.5298 -0.6229 -0.4448
 7789TIP3   OH244857   2.418   2.617   5.877 -0.4311  0.0020 -0.3654
 7789TIP3    H144858   2.355   2.550   5.850 -1.7175  0.1023  2.0994
 7789TIP3    H244859   2.368   2.699   5.873 -0.3012  0.1716  0.9540
 7790TIP3   OH244860   0.086   6.545   4.083  0.1631 -0.4758  0.0953
 7790TIP3    H144861  -0.006   6.566   4.064  0.4174 -1.8263 -3.2114
 7790TIP3    H244862   0.096   6.455   4.054  2.3139 -0.7449  1.4742
 7791TIP3   OH244863   5.055   4.336   5.618  0.1641 -0.2198 -0.1153
 7791TIP3    H144864   5.097   4.278   5.682 -0.6170 -0.4990  0.1579
 7791TIP3    H244865   4.983   4.377   5.667  0.3965  0.5960 -0.4501
 7792TIP3   OH244866   4.310   5.522   2.893 -0.0953 -0.0024  0.4974
 7792TIP3    H144867   4.224   5.539   2.932 -0.3707 -2.5231  1.2082
 7792TIP3    H244868   4.368   5.508   2.969  0.4570 -0.3471  0.0215
 7793TIP3   OH244869   5.826   0.904  12.781  0.2823  0.3113 -0.0049
 7793TIP3    H144870   5.898   0.848  12.811  0.0005  0.3497  0.7441
 7793TIP3    H244871   5.755   0.887  12.842 -0.5526 -0.1348 -1.0631
 7794TIP3   OH244872   1.636   4.955   1.167 -0.0458 -0.1060  0.3413
 7794TIP3    H144873   1.720   4.919   1.196 -0.8248 -2.1359  0.2368
 7794TIP3    H244874   1.659   5.028   1.110  1.6475 -0.6921  0.2288
 7795TIP3   OH244875   5.380   4.374   6.070  0.2178  0.2524  0.1576
 7795TIP3    H144876   5.436   4.406   6.141 -0.2199  0.6400  0.3320
 7795TIP3    H244877   5.345   4.291   6.104  1.3399 -0.4342 -0.2906
 7796TIP3   OH244878   0.753   2.084  15.961  0.4241  0.4064  0.1803
 7796TIP3    H144879   0.761   2.007  16.018  1.7619 -0.2817 -0.8511
 7796TIP3    H244880   0.765   2.159  16.019  2.2016 -0.2825  0.7949
 7797TIP3   OH244881   1.847   1.743  14.486 -0.2184 -0.2936  0.3373
 7797TIP3    H144882   1.866   1.706  14.572 -1.0608 -0.0459  0.6366
 7797TIP3    H244883   1.752   1.743  14.480 -0.1811 -2.4827 -1.5557
 7798TIP3   OH244884   5.088   4.546  11.239 -0.5132 -0.0128 -0.0269
 7798TIP3    H144885   5.049   4.502  11.163  0.9060 -0.7192 -0.3790
 7798TIP3    H244886   5.112   4.475  11.298 -1.3743  0.5209  0.9840
 7799TIP3   OH244887   2.808   3.456   6.492  0.5181  0.1146  0.4015
 7799TIP3    H144888   2.896   3.470   6.458  0.3710  1.2773  0.4615
 7799TIP3    H244889   2.757   3.427   6.417  0.6418  0.7676  0.0612
 7800TIP3   OH244890   1.371   0.536  13.848  0.2774  0.1915  0.7014
 7800TIP3    H144891   1.277   0.516  13.845  0.3413 -0.0179 -0.8585
 7800TIP3    H244892   1.385   0.573  13.935 -0.9368 -1.2496  1.5598
 7801TIP3   OH244893   0.372   3.702  13.565 -0.9608  0.1391  0.3246
 7801TIP3    H144894   0.465   3.702  13.542 -1.6849 -1.5077 -3.2498
 7801TIP3    H244895   0.354   3.792  13.593  1.8946  0.1610  2.5156
 7802TIP3   OH244896   6.192   6.298   3.444  0.4090  0.1275  0.1536
 7802TIP3    H144897   6.159   6.211   3.419  0.6278 -0.3038  1.2990
 7802TIP3    H244898   6.145   6.318   3.526 -1.6211  2.2671 -1.4033
 7803TIP3   OH244899   6.700   2.712   1.070 -0.1078 -0.2495 -0.2769
 7803TIP3    H144900   6.747   2.739   1.149  0.8945 -1.2864 -0.4843
 7803TIP3    H244901   6.612   2.748   1.081  0.2337  0.2773  0.9455
 7804TIP3   OH244902   5.209   2.909  12.867  0.2401 -0.2431 -0.2568
 7804TIP3    H144903   5.122   2.870  12.869  0.4036 -0.6026 -0.0884
 7804TIP3    H244904   5.269   2.834  12.870  0.5585 -0.0667 -1.7097
 7805TIP3   OH244905   0.046   3.442  15.743  0.1851 -0.7228 -0.3620
 7805TIP3    H144906   0.038   3.377  15.673  3.5241 -1.2692 -0.4378
 7805TIP3    H244907   0.076   3.391  15.819 -0.7877  0.2443  0.7040
 7806TIP3   OH244908   2.396   3.529  16.606 -0.3519  0.1281 -0.7167
 7806TIP3    H144909   2.480   3.486  16.625 -0.6896 -1.7841 -2.9543
 7806TIP3    H244910   2.372   3.495  16.519 -3.9085 -0.1479  0.2381
 7807TIP3   OH244911   0.685   5.297  13.880 -0.0800  0.3794  0.2203
 7807TIP3    H144912   0.639   5.342  13.809 -0.1818 -0.2286 -0.1113
 7807TIP3    H244913   0.648   5.209  13.880 -0.5735  0.5654  1.4840
 7808TIP3   OH244914   4.885   5.570  12.284  0.2452  0.4511  0.3111
 7808TIP3    H144915   4.979   5.564  12.302  0.1753 -1.9754  0.1323
 7808TIP3    H244916   4.880   5.596  12.192  0.6700  2.2482  0.7481
 7809TIP3   OH244917   5.127   1.561  16.122  0.4353 -0.2866  0.1064
 7809TIP3    H144918   5.169   1.647  16.117 -0.1267 -0.0545 -1.2669
 7809TIP3    H244919   5.160   1.515  16.045  0.6610 -1.2858  0.7859
 7810TIP3   OH244920   2.578   5.397  16.319 -0.4524  0.8493 -0.5615
 7810TIP3    H144921   2.534   5.402  16.234  1.1678  2.6170 -1.3722
 7810TIP3    H244922   2.649   5.334  16.305 -0.0842  1.2648 -0.5872
 7811TIP3   OH244923   2.187   3.622   4.562 -0.0087 -0.2548 -0.0956
 7811TIP3    H144924   2.182   3.526   4.563 -2.8942 -0.3167 -2.5719
 7811TIP3    H244925   2.240   3.642   4.485 -0.4434  0.0621 -0.3221
 7812TIP3   OH244926   1.601   4.157  13.367 -0.3750  0.1007 -0.7197
 7812TIP3    H144927   1.592   4.173  13.273 -0.7068  0.6255 -0.6002
 7812TIP3    H244928   1.679   4.206  13.393  0.2596 -0.7905 -0.8895
 7813TIP3   OH244929   5.640   0.613  16.189  0.3032  0.5705  0.3793
 7813TIP3    H144930   5.592   0.530  16.187 -0.5324  1.0397  0.0862
 7813TIP3    H244931   5.581   0.675  16.146  1.9684  0.7829 -1.7879
 7814TIP3   OH244932   1.943   3.293   1.416  0.5696 -0.0075  0.3914
 7814TIP3    H144933   1.859   3.318   1.377  0.0850  1.0662  2.0490
 7814TIP3    H244934   1.950   3.199   1.399 -0.9119 -0.0912  0.1445
 7815TIP3   OH244935   1.494   2.305   6.210 -0.3638 -0.0740  0.1613
 7815TIP3    H144936   1.428   2.286   6.277  2.7083  0.9227  3.8122
 7815TIP3    H244937   1.534   2.219   6.191 -0.2759 -0.1754  0.7814
 7816TIP3   OH244938   4.816   0.711  16.123 -0.0782  0.1636 -0.0761
 7816TIP3    H144939   4.853   0.641  16.177  0.0118  1.3236  1.4430
 7816TIP3    H244940   4.742   0.670  16.078  1.5310 -1.5612 -1.2718
 7817TIP3   OH244941   5.917   6.155   4.645 -0.4288 -0.7896 -0.1813
 7817TIP3    H144942   5.955   6.205   4.572 -2.0997 -0.2208 -0.7288
 7817TIP3    H244943   5.917   6.216   4.718 -0.6668 -0.6506 -0.2967
 7818TIP3   OH244944   0.903   4.379  12.418  0.0102  0.1816 -0.3277
 7818TIP3    H144945   0.905   4.366  12.513  1.7117  0.7352 -0.2539
 7818TIP3    H244946   0.931   4.470  12.406 -0.6023  0.2503 -1.3469
 7819TIP3   OH244947   1.665   5.644  16.944 -0.2666 -0.2260  0.0570
 7819TIP3    H144948   1.752   5.660  16.908  0.2673 -0.6610  1.1068
 7819TIP3    H244949   1.606   5.658  16.871  0.5803  1.2528 -0.3950
 7820TIP3   OH244950   1.959   4.621   2.571  0.1221  0.0085 -0.0853
 7820TIP3    H144951   2.045   4.581   2.587 -1.0792 -3.8837 -1.9721
 7820TIP3    H244952   1.969   4.664   2.486  0.1660 -0.7047 -0.4512
 7821TIP3   OH244953   0.124   5.904  14.551 -0.4971 -0.3192  0.1976
 7821TIP3    H144954   0.117   5.838  14.482 -0.1508 -0.3670  0.2058
 7821TIP3    H244955   0.185   5.866  14.615 -1.1551 -0.4680  0.7532
 7822TIP3   OH244956   3.078   4.282  11.985  0.1104 -0.1710 -0.0543
 7822TIP3    H144957   3.087   4.277  11.890 -0.5715 -1.1550 -0.0855
 7822TIP3    H244958   2.983   4.275  12.001  0.3861 -3.3970  0.8179
 7823TIP3   OH244959   6.381   4.207   1.265  0.3502 -0.5670 -0.7880
 7823TIP3    H144960   6.469   4.190   1.300  1.0849  3.7815  0.0426
 7823TIP3    H244961   6.323   4.198   1.340  1.1094  2.7859  0.3612
 7824TIP3   OH244962   3.981   1.778  11.739 -0.2706  0.0514  0.3069
 7824TIP3    H144963   4.026   1.847  11.788  2.6414 -1.2207 -0.3602
 7824TIP3    H244964   3.907   1.753  11.794  0.0829  1.9319  1.7302
 7825TIP3   OH244965   4.670   5.239   0.051 -0.2652  0.2461 -0.1880
 7825TIP3    H144966   4.739   5.188   0.008 -1.3557 -0.4964 -1.1204
 7825TIP3    H244967   4.714   5.282   0.124  1.1291 -0.3983 -0.6095
 7826TIP3   OH244968   3.819   3.403   2.162 -0.0906  0.3275 -0.2075
 7826TIP3    H144969   3.910   3.431   2.165 -0.4771  1.6012  0.3378
 7826TIP3    H244970   3.792   3.419   2.071 -0.1436  1.1846 -0.0405
 7827TIP3   OH244971   5.697   3.675   5.476  0.2455  0.8030 -0.3446
 7827TIP3    H144972   5.716   3.731   5.551  0.4846  1.3347 -0.7847
 7827TIP3    H244973   5.773   3.618   5.468  0.7535  1.5330 -0.8696
 7828TIP3   OH244974   3.540   2.939  10.927  0.1430 -0.2288 -0.0273
 7828TIP3    H144975   3.586   2.950  10.844 -1.2317 -2.5543 -1.2220
 7828TIP3    H244976   3.451   2.913  10.902 -0.4058 -0.6924  2.1754
 7829TIP3   OH244977   3.955   3.403  12.198 -0.0615 -0.3032  0.2504
 7829TIP3    H144978   4.044   3.436  12.189 -0.3104  0.2421 -0.2914
 7829TIP3    H244979   3.916   3.458  12.266  0.1272 -0.7947  0.7633
 7830TIP3   OH244980   1.202   5.736   3.795 -0.6110  0.0402 -0.2053
 7830TIP3    H144981   1.145   5.763   3.867  0.7511  2.4398  0.0838
 7830TIP3    H244982   1.249   5.661   3.829  0.1003  1.2006  1.5147
 7831TIP3   OH244983   3.718   3.448   1.898  0.2074 -0.1378  0.0399
 7831TIP3    H144984   3.704   3.378   1.834  1.4143 -0.3643 -0.0040
 7831TIP3    H244985   3.797   3.492   1.868  0.9664 -0.4225  1.5173
 7832TIP3   OH244986   4.866   2.685   2.877 -0.6685 -0.4295 -0.0711
 7832TIP3    H144987   4.852   2.779   2.890 -1.4668 -0.4551 -0.6892
 7832TIP3    H244988   4.892   2.677   2.785 -0.2117 -0.7783  0.0838
 7833TIP3   OH244989   1.588   5.032   2.817  0.3518 -0.0808  0.0717
 7833TIP3    H144990   1.634   5.061   2.896 -2.4438 -1.3313  2.3490
 7833TIP3    H244991   1.551   4.947   2.841 -0.3081 -0.6865 -2.7561
 7834TIP3   OH244992   1.880   5.187  14.469 -0.1131 -0.2468 -0.4438
 7834TIP3    H144993   1.872   5.277  14.438  1.7726  0.0818 -0.1442
 7834TIP3    H244994   1.974   5.177  14.486 -0.5506 -1.6599  1.3680
 7835TIP3   OH244995   4.594   0.620  11.528 -0.3014  0.8220 -0.8982
 7835TIP3    H144996   4.558   0.535  11.501 -1.5121  0.9407  0.2380
 7835TIP3    H244997   4.685   0.617  11.500 -0.7859 -0.1128 -2.5224
 7836TIP3   OH244998   4.518   1.747   1.163 -0.5208 -0.2430  0.8512
 7836TIP3    H144999   4.519   1.651   1.172  1.3606 -0.1882  1.6278
 7836TIP3    H245000   4.513   1.779   1.253 -0.6253  0.3926  0.6250
 7837TIP3   OH245001   5.861   4.359  15.033 -0.4769  0.3531  0.1981
 7837TIP3    H145002   5.885   4.417  14.961  0.4410 -1.2222 -0.7972
 7837TIP3    H245003   5.832   4.419  15.103  0.9353  2.0304 -0.5890
 7838TIP3   OH245004   2.069   6.490   5.302 -0.0529 -0.6374 -0.2992
 7838TIP3    H145005   2.120   6.431   5.357  0.0611 -0.1270  0.1563
 7838TIP3    H245006   1.978   6.467   5.319 -0.1029  0.4951  1.2885
 7839TIP3   OH245007   3.745   3.345   1.489  0.2531  0.6521 -0.0263
 7839TIP3    H145008   3.692   3.414   1.531  1.3589  0.4876  1.7632
 7839TIP3    H245009   3.778   3.293   1.563 -0.4786 -1.7814 -1.3114
 7840TIP3   OH245010   2.019   1.301   0.032  0.1391 -0.3141  0.1964
 7840TIP3    H145011   2.082   1.345   0.090  0.6787 -0.0516 -0.5712
 7840TIP3    H245012   2.073   1.266  -0.039 -0.5289 -0.5189 -0.2164
 7841TIP3   OH245013   0.021   2.046  13.636 -0.1774 -0.1729  0.3214
 7841TIP3    H145014   0.028   2.034  13.731  0.0571  0.4222  0.3856
 7841TIP3    H245015  -0.026   2.129  13.626 -0.0737 -0.1609 -0.0830
 7842TIP3   OH245016   5.545   4.459  10.874  0.3736 -0.8594  0.5230
 7842TIP3    H145017   5.577   4.457  10.784 -0.0402 -0.9531  0.3729
 7842TIP3    H245018   5.593   4.389  10.918  0.2443 -1.1184  0.2560
 7843TIP3   OH245019   4.073   5.642   4.995 -0.1611  0.8121 -0.0741
 7843TIP3    H145020   4.076   5.641   4.899 -0.9691  0.6572 -0.1003
 7843TIP3    H245021   4.164   5.660   5.021  0.0248  1.0773 -0.8695
 7844TIP3   OH245022   3.263   5.056  16.578  0.2132 -0.0549 -0.0366
 7844TIP3    H145023   3.316   5.084  16.504 -0.7444  0.1648 -0.6556
 7844TIP3    H245024   3.316   5.078  16.655  0.4370  1.4579 -0.5813
 7845TIP3   OH245025   3.916   0.951   2.754  0.4957 -0.2529  0.0973
 7845TIP3    H145026   3.846   1.017   2.757 -0.0563 -0.7843 -0.5178
 7845TIP3    H245027   3.871   0.869   2.770  1.5445 -0.2946  3.4563
 7846TIP3   OH245028   0.831   5.218  12.171 -0.5445 -0.1821  0.0494
 7846TIP3    H145029   0.853   5.310  12.154  0.4793 -0.2375  1.0484
 7846TIP3    H245030   0.895   5.168  12.120  0.0012 -0.3361  0.8721
 7847TIP3   OH245031   6.181   4.553  12.812  0.2460 -0.3659 -1.0727
 7847TIP3    H145032   6.135   4.497  12.875  1.9784  0.0070  0.6207
 7847TIP3    H245033   6.232   4.612  12.866 -0.5021  2.0484 -2.8235
 7848TIP3   OH245034   5.364   6.215  14.289  0.0337  0.0983 -0.2736
 7848TIP3    H145035   5.358   6.127  14.250 -0.0603 -0.1967  0.4015
 7848TIP3    H245036   5.456   6.226  14.310  0.4435  1.0095 -2.2644
 7849TIP3   OH245037   4.770   0.966   5.755 -0.2927 -0.0983  0.4506
 7849TIP3    H145038   4.781   0.916   5.674 -1.1591 -0.5976  0.6281
 7849TIP3    H245039   4.844   0.941   5.810  0.1600  0.0519 -0.0796
 7850TIP3   OH245040   2.132   0.882  16.570  0.0256  0.5426  0.4574
 7850TIP3    H145041   2.045   0.899  16.533 -0.5353 -0.4115  1.2924
 7850TIP3    H245042   2.155   0.964  16.615 -1.2827  0.2191  1.8101
 7851TIP3   OH245043   4.692   1.761   0.654  0.0238  0.1294 -0.0998
 7851TIP3    H145044   4.699   1.855   0.634 -1.9607  0.6321  1.2210
 7851TIP3    H245045   4.701   1.756   0.749  0.1616 -1.0429 -0.1646
 7852TIP3   OH245046   2.081   3.965   5.649 -0.3945 -0.1843 -0.2181
 7852TIP3    H145047   2.067   3.876   5.682 -1.0118  0.1132  0.3729
 7852TIP3    H245048   2.039   4.020   5.715 -0.3955  0.5183 -0.8038
 7853TIP3   OH245049   1.281   3.674  15.654 -0.2614 -0.4325  0.2005
 7853TIP3    H145050   1.277   3.729  15.576 -0.7452 -1.0588 -0.2203
 7853TIP3    H245051   1.201   3.621  15.651 -0.1459 -0.6689  0.9688
 7854TIP3   OH245052   6.134   4.613  13.492  0.5127 -0.6787  0.0776
 7854TIP3    H145053   6.045   4.646  13.484  1.1108  0.6416 -1.4754
 7854TIP3    H245054   6.180   4.680  13.541  0.5804 -1.5843  1.3102
 7855TIP3   OH245055   0.056   3.485   3.820  0.6064  0.7073 -0.3986
 7855TIP3    H145056   0.148   3.461   3.825  0.4813  0.3455  0.3624
 7855TIP3    H245057   0.010   3.414   3.865  0.0688  1.4818  0.3160
 7856TIP3   OH245058   6.155   2.055   1.440 -0.2402  0.3530  0.0509
 7856TIP3    H145059   6.128   1.990   1.375 -0.4078  2.1751 -1.7959
 7856TIP3    H245060   6.101   2.036   1.517  0.3713 -2.2341 -0.0554
 7857TIP3   OH245061   0.585   4.757   5.739  0.2255 -0.5651 -0.0124
 7857TIP3    H145062   0.504   4.807   5.745 -0.6260 -2.0454  1.4879
 7857TIP3    H245063   0.623   4.783   5.655 -2.2483 -0.5246 -1.1914
 7858TIP3   OH245064   1.134   6.677  16.486 -0.5316 -0.0650  0.3706
 7858TIP3    H145065   1.227   6.667  16.463  0.5442  2.9797  2.6768
 7858TIP3    H245066   1.116   6.602  16.543  1.5230  0.7640  2.3075
 7859TIP3   OH245067   5.255   2.964   1.762  0.2128  0.1712  0.2412
 7859TIP3    H145068   5.275   2.881   1.718 -1.2118 -0.0673  0.0072
 7859TIP3    H245069   5.241   2.940   1.853 -0.2223  0.1585  0.1691
 7860TIP3   OH245070   4.435   5.589   1.380 -0.1352  0.2383  0.1813
 7860TIP3    H145071   4.512   5.564   1.330 -0.1512  2.4301 -1.0668
 7860TIP3    H245072   4.469   5.638   1.455 -0.2520  1.3220 -0.4392
 7861TIP3   OH245073   1.705   2.438  11.724  0.2960 -0.3356 -0.0831
 7861TIP3    H145074   1.726   2.527  11.751  0.7762  0.3456 -2.4796
 7861TIP3    H245075   1.786   2.388  11.738 -0.5106 -0.9617  3.0840
 7862TIP3   OH245076   1.461   6.244   0.602 -0.1593  0.0576 -0.6412
 7862TIP3    H145077   1.392   6.293   0.558 -0.2042  1.6659  1.0713
 7862TIP3    H245078   1.421   6.211   0.682  1.3555  2.6199  1.3671
 7863TIP3   OH245079   0.082   6.085  14.060  0.2636  0.1938  0.1459
 7863TIP3    H145080   0.039   6.168  14.041 -0.7130 -0.5442 -1.0411
 7863TIP3    H245081   0.010   6.025  14.080  1.0414  0.0552  3.0160
 7864TIP3   OH245082   4.557   4.993  11.994 -0.1583 -0.1206 -0.7267
 7864TIP3    H145083   4.600   4.986  11.909 -0.9283  0.0474 -1.1366
 7864TIP3    H245084   4.628   5.006  12.056  0.4050 -0.1810 -1.3514
 7865TIP3   OH245085   2.531   3.537   0.522  0.3142 -0.0767 -0.1387
 7865TIP3    H145086   2.441   3.511   0.503  1.0866 -2.1272 -1.2809
 7865TIP3    H245087   2.557   3.591   0.447  0.8222 -1.6067 -1.0944
 7866TIP3   OH245088   6.234   2.109   3.832 -0.0088 -0.4358 -0.6566
 7866TIP3    H145089   6.141   2.131   3.826  0.2223  0.3169 -1.6156
 7866TIP3    H245090   6.276   2.190   3.861  0.1420 -1.2902  1.7118
 7867TIP3   OH245091   0.810   4.531  11.768 -0.1423 -0.1089 -0.3006
 7867TIP3    H145092   0.866   4.596  11.809  0.8322 -1.7584  1.1479
 7867TIP3    H245093   0.840   4.526  11.678  1.5345 -0.3819  0.2479
 7868TIP3   OH245094   4.376   1.692  16.166  0.0291 -0.4050 -0.0658
 7868TIP3    H145095   4.312   1.621  16.157 -2.7991  2.0445 -0.9452
 7868TIP3    H245096   4.380   1.708  16.260 -0.8750 -0.4279 -0.0167
 7869TIP3   OH245097   3.345   4.289   3.479  0.5627 -0.1978 -0.3486
 7869TIP3    H145098   3.409   4.334   3.426  1.6264  0.3182  1.2988
 7869TIP3    H245099   3.381   4.201   3.493  0.0452 -0.5043 -0.8693
 7870TIP3   OH245100   3.161   2.628  12.274  0.0201 -0.3226 -0.4485
 7870TIP3    H145101   3.101   2.701  12.259  0.6824  0.0514 -1.3422
 7870TIP3    H245102   3.144   2.602  12.365 -2.5651 -1.2318 -1.0877
 7871TIP3   OH245103   1.319   4.146   4.741  0.1714  0.4260  0.1844
 7871TIP3    H145104   1.246   4.109   4.790  0.2117  0.6474  0.4130
 7871TIP3    H245105   1.345   4.224   4.790  0.5539  0.3563  0.1022
 7872TIP3   OH245106   4.115   4.083  11.182 -0.0061  0.3554  0.2519
 7872TIP3    H145107   4.108   4.093  11.277 -4.4332 -0.8874  0.2771
 7872TIP3    H245108   4.107   4.173  11.149  2.0275  0.8563  0.9668
 7873TIP3   OH245109   5.609   3.056   4.992 -0.1125 -0.4837 -0.1386
 7873TIP3    H145110   5.568   3.037   4.907  0.5455  0.1999 -0.6128
 7873TIP3    H245111   5.584   3.146   5.012  0.6601 -0.2591 -0.1491
 7874TIP3   OH245112   4.682   0.599   0.678  0.1121 -0.1094 -0.6984
 7874TIP3    H145113   4.728   0.515   0.681 -0.9921 -0.7458 -1.0002
 7874TIP3    H245114   4.601   0.584   0.728  0.0476  0.8687 -0.4909
 7875TIP3   OH245115   0.352   1.536   5.624 -0.3895 -0.3000  0.6750
 7875TIP3    H145116   0.278   1.478   5.640 -1.3295  0.5291 -0.5139
 7875TIP3    H245117   0.359   1.542   5.529 -0.2055  1.3535  0.7545
 7876TIP3   OH245118   1.212   5.867  14.514  0.5569 -0.5826  0.0901
 7876TIP3    H145119   1.168   5.784  14.492  0.6362 -0.5925 -0.0319
 7876TIP3    H245120   1.249   5.852  14.601 -0.8294 -0.1218  0.7952
 7877TIP3   OH245121   5.731   2.569   0.270  0.5230  0.5483 -0.7229
 7877TIP3    H145122   5.706   2.637   0.332 -0.5608  0.8752 -1.4884
 7877TIP3    H245123   5.729   2.488   0.320  2.0643  1.0817  0.2594
 7878TIP3   OH245124   1.573   6.446  14.752  0.4570  0.5906 -0.7300
 7878TIP3    H145125   1.578   6.504  14.676 -1.2958  0.6393 -0.8576
 7878TIP3    H245126   1.494   6.394  14.737  0.6788 -0.1678  0.5463
 7879TIP3   OH245127   4.636   3.781  11.232 -0.5694  0.7253 -0.1473
 7879TIP3    H145128   4.695   3.815  11.299 -1.2532  1.5247  0.0806
 7879TIP3    H245129   4.570   3.732  11.281 -0.0831 -0.1913 -0.4023
 7880TIP3   OH245130   2.616   5.396   3.346  0.7172 -0.1581  0.1714
 7880TIP3    H145131   2.533   5.412   3.391 -0.6123  1.8525 -2.6756
 7880TIP3    H245132   2.660   5.481   3.346 -0.3644  0.6248 -3.9342
 7881TIP3   OH245133   1.079   6.678   5.473  0.3216 -0.2338 -0.0329
 7881TIP3    H145134   0.989   6.683   5.440  0.2758  0.7705  0.2232
 7881TIP3    H245135   1.121   6.614   5.415 -0.5707 -0.7875 -0.1032
 7882TIP3   OH245136   4.588   3.923  12.335  0.0104  0.8230  0.1492
 7882TIP3    H145137   4.678   3.890  12.340  0.1926  1.2928 -0.0279
 7882TIP3    H245138   4.534   3.850  12.368  0.2859 -0.1719 -1.4883
 7883TIP3   OH245139   6.144   3.276   5.571 -0.1391 -0.4688 -0.0918
 7883TIP3    H145140   6.161   3.228   5.490 -0.2353  0.3571 -0.6015
 7883TIP3    H245141   6.138   3.367   5.545 -1.6370 -0.3383  0.6233
 7884TIP3   OH245142   2.020   4.608  13.393  0.0624 -0.1748  0.0127
 7884TIP3    H145143   1.926   4.591  13.381 -0.1374  1.0317 -0.2899
 7884TIP3    H245144   2.046   4.654  13.313  0.5683  0.7866  0.7150
 7885TIP3   OH245145   1.377   0.701  11.619 -0.0250 -0.1293  0.9352
 7885TIP3    H145146   1.454   0.754  11.598  0.5469 -1.9784 -2.2815
 7885TIP3    H245147   1.305   0.765  11.623  0.6478  1.0909 -2.5581
 7886TIP3   OH245148   4.558   5.394  12.483 -0.4101  0.2171  0.1518
 7886TIP3    H145149   4.551   5.310  12.436 -0.9119  0.9265 -1.0956
 7886TIP3    H245150   4.532   5.373  12.573 -0.1900 -1.0388 -0.0541
 7887TIP3   OH245151   1.158   1.859  14.953  0.3316  0.0653  0.4722
 7887TIP3    H145152   1.104   1.847  14.874  0.5394  0.0938  0.3261
 7887TIP3    H245153   1.150   1.952  14.974 -2.0930 -0.4046  2.1835
 7888TIP3   OH245154   2.268   0.226   0.723  0.0288 -0.0714 -0.3955
 7888TIP3    H145155   2.246   0.152   0.666 -2.3854  2.4507 -3.0720
 7888TIP3    H245156   2.322   0.283   0.668  0.0897  1.1358  0.8605
 7889TIP3   OH245157   2.776   5.084  15.628 -1.0928  0.2091 -0.4803
 7889TIP3    H145158   2.781   5.071  15.533  0.9411  0.7400 -0.4905
 7889TIP3    H245159   2.704   5.027  15.656 -1.9237  0.2503 -2.3605
 7890TIP3   OH245160   0.079   2.132   3.482  0.0231 -0.7060 -0.4456
 7890TIP3    H145161  -0.014   2.111   3.475 -0.2782  0.8297 -1.6578
 7890TIP3    H245162   0.100   2.177   3.400  1.7497 -0.6943 -0.0416
 7891TIP3   OH245163   5.159   5.280  12.105 -0.2692 -0.3999  0.3852
 7891TIP3    H145164   5.107   5.328  12.041  1.9029  1.0128 -0.3953
 7891TIP3    H245165   5.125   5.190  12.101 -3.0339  0.5571  0.4039
 7892TIP3   OH245166   0.314   1.395  17.023  0.3440 -0.4973 -0.4240
 7892TIP3    H145167   0.240   1.381  16.964  0.6218 -0.1228 -0.8620
 7892TIP3    H245168   0.316   1.490  17.038  0.6442 -0.5226 -0.2930
 7893TIP3   OH245169   0.955   0.978   5.539  0.4383 -0.0529  0.0719
 7893TIP3    H145170   0.905   1.026   5.473 -2.1859 -0.7103  1.4362
 7893TIP3    H245171   0.987   0.900   5.494  0.9916  0.7864 -1.0483
 7894TIP3   OH245172   3.584   2.034  15.545 -0.2416  0.3850  0.3480
 7894TIP3    H145173   3.604   2.033  15.451 -0.4947 -0.6870  0.2863
 7894TIP3    H245174   3.488   2.025  15.548 -0.1021 -1.4747  0.7018
 7895TIP3   OH245175   5.026   4.551  13.854 -0.0723 -0.1935 -0.4053
 7895TIP3    H145176   4.978   4.618  13.806 -1.2667 -0.7799 -0.0570
 7895TIP3    H245177   4.970   4.474  13.852  0.1734 -0.4693  1.2756
 7896TIP3   OH245178   1.059   0.238  12.833 -0.2859  0.0890 -0.4540
 7896TIP3    H145179   1.055   0.254  12.739 -0.1161 -1.0028 -0.6659
 7896TIP3    H245180   1.065   0.143  12.840  1.6850  0.2374  0.5724
 7897TIP3   OH245181   0.931   5.764  16.914 -0.2326 -0.1535 -0.1748
 7897TIP3    H145182   0.972   5.679  16.899 -1.8623 -1.1291  0.6416
 7897TIP3    H245183   0.861   5.768  16.849  0.2921  0.9271 -0.7044
 7898TIP3   OH245184   4.935   1.102  11.378 -0.0390  0.3076  0.4980
 7898TIP3    H145185   5.007   1.039  11.372  0.7273  1.0585  1.6298
 7898TIP3    H245186   4.900   1.106  11.289 -0.5494 -2.2179  0.5101
 7899TIP3   OH245187   5.682   0.812   1.433  0.2425 -0.0821 -0.2203
 7899TIP3    H145188   5.775   0.804   1.411 -0.2236  0.4817 -2.6282
 7899TIP3    H245189   5.638   0.748   1.377 -1.0223  1.3523 -0.9403
 7900TIP3   OH245190   5.473   0.195   1.255 -0.1945  0.6019 -0.0013
 7900TIP3    H145191   5.555   0.192   1.305 -1.2974 -0.6884  1.8155
 7900TIP3    H245192   5.477   0.118   1.198  0.1032  0.8737 -0.3554
 7901TIP3   OH245193   1.519   1.300   3.607  0.0913 -0.1832 -0.5935
 7901TIP3    H145194   1.446   1.362   3.601  1.9792  2.5479  1.8376
 7901TIP3    H245195   1.519   1.272   3.698  0.6881 -2.0417 -1.1260
 7902TIP3   OH245196   4.411   6.707  16.827  0.7392  0.0250  0.1048
 7902TIP3    H145197   4.427   6.775  16.892 -1.6323  1.3577 -0.5844
 7902TIP3    H245198   4.466   6.634  16.854  2.6222  1.8528  1.4401
 7903TIP3   OH245199   4.873   5.977   3.296 -0.0201  0.6771  0.0339
 7903TIP3    H145200   4.885   5.976   3.201  0.6146 -1.6602  0.0881
 7903TIP3    H245201   4.900   5.890   3.324 -0.5485  1.2096  2.3331
 7904TIP3   OH245202   5.561   0.173   4.931 -0.0516  0.1971 -0.5365
 7904TIP3    H145203   5.483   0.227   4.940 -0.8857 -1.2713  1.6200
 7904TIP3    H245204   5.530   0.092   4.891  0.3721 -0.3776  0.2904
 7905TIP3   OH245205   3.765   0.698  13.112 -0.2336  0.0446  0.4188
 7905TIP3    H145206   3.743   0.789  13.133 -2.6287 -0.1198 -0.9830
 7905TIP3    H245207   3.835   0.704  13.047  0.6061  0.8014  1.3581
 7906TIP3   OH245208   6.034   5.321  11.640 -0.4739 -0.5993  0.5173
 7906TIP3    H145209   6.077   5.245  11.602 -0.7447 -0.5580  0.1209
 7906TIP3    H245210   6.100   5.390  11.635 -0.8639 -0.2979 -0.9131
 7907TIP3   OH245211   6.203   3.370   6.555  0.7681 -0.0506  0.4969
 7907TIP3    H145212   6.170   3.439   6.612 -1.3178 -0.5201 -0.0424
 7907TIP3    H245213   6.274   3.410   6.506  0.8150  1.1416  1.4964
 7908TIP3   OH245214   3.601   2.584   2.592 -0.4088  0.2111  0.0972
 7908TIP3    H145215   3.660   2.509   2.582  0.4012  0.2532  3.3974
 7908TIP3    H245216   3.646   2.657   2.550  0.9510 -0.2114  0.7698
 7909TIP3   OH245217   3.784   6.153   0.455 -0.1470 -0.5573 -0.6913
 7909TIP3    H145218   3.775   6.215   0.383  2.8575  1.7082  0.6217
 7909TIP3    H245219   3.726   6.185   0.524  0.0914 -0.2191 -0.6468
 7910TIP3   OH245220   4.955   0.603   2.929 -0.0753 -0.7242  0.2914
 7910TIP3    H145221   4.862   0.619   2.945  0.4609  1.3145  1.7513
 7910TIP3    H245222   4.975   0.527   2.985 -1.3054 -2.8443 -1.9332
 7911TIP3   OH245223   1.127   1.340   6.075 -0.4857 -0.3867 -0.0906
 7911TIP3    H145224   1.165   1.398   6.142  1.3613  0.5421 -1.8485
 7911TIP3    H245225   1.129   1.253   6.116 -0.1142  0.2582  1.3532
 7912TIP3   OH245226   1.931   2.184   4.319 -0.0099 -0.1509 -0.0525
 7912TIP3    H145227   1.869   2.186   4.246  0.1624 -0.1907 -0.2001
 7912TIP3    H245228   1.876   2.193   4.397 -0.4045 -2.1930 -0.0483
 7913TIP3   OH245229   3.203   5.758  12.101 -0.3726  0.7413 -0.3518
 7913TIP3    H145230   3.236   5.826  12.043  0.1022  0.0545 -0.9108
 7913TIP3    H245231   3.205   5.797  12.189  1.3955  0.9121 -0.4417
 7914TIP3   OH245232   5.048   0.451   0.712  0.0709  0.6651 -0.0494
 7914TIP3    H145233   4.971   0.395   0.715  0.6483 -0.2410 -1.4766
 7914TIP3    H245234   5.047   0.490   0.625 -0.1498  2.7035  0.7917
 7915TIP3   OH245235   4.454   3.456   0.096 -0.1959 -0.3235 -0.6000
 7915TIP3    H145236   4.400   3.431   0.172  0.0812 -0.8122 -0.5594
 7915TIP3    H245237   4.535   3.488   0.134 -0.1640 -0.3082 -0.6814
 7916TIP3   OH245238   6.039   5.998  16.065  0.8256 -0.2673 -0.1919
 7916TIP3    H145239   6.063   6.058  15.995  1.1323 -0.9958 -0.7289
 7916TIP3    H245240   5.960   5.954  16.033  1.0218 -0.6725 -0.1310
 7917TIP3   OH245241   3.640   4.858   6.224 -0.1645 -0.1663 -0.0749
 7917TIP3    H145242   3.710   4.918   6.248 -1.7021  1.3646  0.7796
 7917TIP3    H245243   3.647   4.786   6.287  1.6670 -0.9453 -1.0833
 7918TIP3   OH245244   2.046   2.328   3.016  0.0541 -0.3342 -0.5289
 7918TIP3    H145245   2.082   2.310   3.104  2.1696  0.9785 -1.0409
 7918TIP3    H245246   1.963   2.372   3.033 -1.5063 -3.4301  0.7361
 7919TIP3   OH245247   6.456   5.667   3.084 -0.3319  0.1235 -0.6052
 7919TIP3    H145248   6.492   5.580   3.098  0.4530  0.2236 -1.8351
 7919TIP3    H245249   6.488   5.692   2.997 -0.3251  1.7416 -0.1605
 7920TIP3   OH245250   5.667   4.240  11.048  0.1613  0.3972  0.0350
 7920TIP3    H145251   5.613   4.264  11.123 -1.1103 -1.5560 -0.2156
 7920TIP3    H245252   5.757   4.247  11.081 -0.3522  0.0756  1.5939
 7921TIP3   OH245253   0.285   0.234  14.804  0.2349  0.0058 -0.3975
 7921TIP3    H145254   0.307   0.151  14.845  1.5318  0.5538  0.0709
 7921TIP3    H245255   0.350   0.296  14.838 -0.3811  1.0953 -1.1303
 7922TIP3   OH245256   6.354   4.855  11.453  0.0050  0.2681  0.2721
 7922TIP3    H145257   6.266   4.882  11.426  0.5278  0.3964 -1.4768
 7922TIP3    H245258   6.407   4.867  11.374  1.2354 -1.4481  0.7748
 7923TIP3   OH245259   6.810   2.433   1.511 -0.1607  0.1937  0.0388
 7923TIP3    H145260   6.739   2.495   1.496  1.2653  1.6666 -0.8922
 7923TIP3    H245261   6.769   2.347   1.498 -2.1337  0.8805  1.1872
 7924TIP3   OH245262   6.081   1.502   0.091 -0.1810  0.9378 -0.3098
 7924TIP3    H145263   6.022   1.557   0.039  1.1702  0.4203 -2.5337
 7924TIP3    H245264   6.134   1.456   0.026  0.1083 -1.5101  1.4927
 7925TIP3   OH245265   1.229   6.100   1.902 -0.0730 -0.1876 -0.5788
 7925TIP3    H145266   1.182   6.172   1.861  0.6939  0.6157 -0.0731
 7925TIP3    H245267   1.237   6.125   1.994 -1.1591 -1.6394 -0.0464
 7926TIP3   OH245268   2.308   5.185  12.031 -0.2058 -0.2617 -0.6236
 7926TIP3    H145269   2.387   5.238  12.039  0.2542 -0.9533 -0.5267
 7926TIP3    H245270   2.332   5.114  11.973  0.1726 -2.1343  1.6607
 7927TIP3   OH245271   3.449   3.357   2.005 -0.0965 -0.1196 -0.1068
 7927TIP3    H145272   3.378   3.379   1.944  0.9286  0.6489 -1.0752
 7927TIP3    H245273   3.502   3.437   2.009  0.8650 -0.7608  0.3741
 7928TIP3   OH245274   4.168   5.588   6.187 -0.0612 -0.0015 -0.0825
 7928TIP3    H145275   4.111   5.542   6.125 -0.5941 -0.4739  0.7513
 7928TIP3    H245276   4.177   5.676   6.150 -0.1643 -0.3512 -0.9663
 7929TIP3   OH245277   5.609   3.397   2.167  0.0387 -0.4872 -0.7597
 7929TIP3    H145278   5.599   3.374   2.259 -0.8920  0.0642 -0.7154
 7929TIP3    H245279   5.696   3.437   2.162 -0.7624  1.4990  0.3216
 7930TIP3   OH245280   4.047   0.264   1.280  0.2204  0.4446  0.4107
 7930TIP3    H145281   4.044   0.354   1.249  0.0760  0.5144  0.6272
 7930TIP3    H245282   4.045   0.211   1.201  0.0083  0.6268  0.2938
 7931TIP3   OH245283   0.829   1.568   6.387 -0.4975 -0.7098  0.3910
 7931TIP3    H145284   0.851   1.532   6.301  1.0747  1.5648 -0.2518
 7931TIP3    H245285   0.913   1.597   6.423 -0.7735 -3.3314  3.6429
 7932TIP3   OH245286   6.692   2.178   1.467  0.2444 -0.0527  0.0943
 7932TIP3    H145287   6.648   2.175   1.382 -0.9539  0.3649  0.6781
 7932TIP3    H245288   6.621   2.179   1.531  1.1188  0.1553  1.0936
 7933TIP3   OH245289   2.233   0.485  16.022  0.6144 -0.8472 -0.2548
 7933TIP3    H145290   2.216   0.419  16.090 -0.6285  0.2780  0.5721
 7933TIP3    H245291   2.197   0.447  15.942  0.0680 -1.2486  0.1744
 7934TIP3   OH245292   6.023   1.931  15.924 -0.0066 -0.4200 -0.0774
 7934TIP3    H145293   5.978   1.855  15.961  0.0922 -0.0096  0.9359
 7934TIP3    H245294   6.083   1.959  15.994  0.9386 -0.2352 -0.9470
 7935TIP3   OH245295   4.191   1.962   5.914 -0.1038  0.2483 -0.0550
 7935TIP3    H145296   4.132   1.888   5.925  0.4073  0.0272  1.2875
 7935TIP3    H245297   4.133   2.038   5.907 -0.5842 -0.1088  0.0063
 7936TIP3   OH245298   4.295   4.373  11.871 -0.2177  0.2986 -0.4614
 7936TIP3    H145299   4.307   4.379  11.776 -1.4683  1.9980 -0.5509
 7936TIP3    H245300   4.351   4.300  11.897 -0.2275 -0.5510 -2.5663
 7937TIP3   OH245301   1.771   2.806   2.098 -0.3109  0.0550 -0.0202
 7937TIP3    H145302   1.738   2.874   2.039  0.4893  0.9336  0.5187
 7937TIP3    H245303   1.857   2.783   2.061  0.0126  0.3191  0.5538
 7938TIP3   OH245304   2.974   2.529   5.863  0.0770  0.2897 -0.5882
 7938TIP3    H145305   2.900   2.514   5.921  0.7815 -0.3293  0.1678
 7938TIP3    H245306   3.028   2.594   5.908  0.6761 -0.2636 -0.4919
 7939TIP3   OH245307   1.851   3.869  11.166  0.0030 -0.0025 -0.2443
 7939TIP3    H145308   1.841   3.964  11.174  2.9505  0.5106 -1.3559
 7939TIP3    H245309   1.763   3.837  11.146 -1.5459  2.1355  2.4630
 7940TIP3   OH245310   0.560   4.423   2.497 -0.1254 -0.2919  0.7412
 7940TIP3    H145311   0.514   4.339   2.489  0.1444 -0.3590 -0.1737
 7940TIP3    H245312   0.500   4.487   2.457  1.5349 -0.7380 -2.8630
 7941TIP3   OH245313   2.642   3.949  11.017  0.5892  0.5371  0.5445
 7941TIP3    H145314   2.551   3.937  11.043 -0.0183 -1.1920 -2.0596
 7941TIP3    H245315   2.687   3.971  11.099 -1.5980 -1.5693  2.4739
 7942TIP3   OH245316   5.138   5.710  15.202 -0.3349  0.0310 -0.2833
 7942TIP3    H145317   5.175   5.685  15.118  0.1574  0.4979 -0.2122
 7942TIP3    H245318   5.051   5.744  15.181 -0.8527 -1.3426 -0.4178
 7943TIP3   OH245319   3.449   0.725   5.098  0.4219  0.0420  0.8547
 7943TIP3    H145320   3.367   0.719   5.148 -1.9050  1.1741 -2.4736
 7943TIP3    H245321   3.465   0.636   5.067 -0.4412  0.0624  0.3148
 7944TIP3   OH245322   6.783   5.882   1.757  0.0770  0.1719 -0.2563
 7944TIP3    H145323   6.715   5.816   1.771 -0.2318  0.2164 -1.4055
 7944TIP3    H245324   6.864   5.832   1.749  0.1432  0.0932  0.7977
 7945TIP3   OH245325   5.972   1.881  10.392  0.2920 -0.4311  0.2647
 7945TIP3    H145326   5.918   1.819  10.342  1.2017 -0.3329 -0.8930
 7945TIP3    H245327   5.940   1.967  10.365  0.7648 -0.3793 -0.1612
 7946TIP3   OH245328   2.021   2.332  13.366 -0.3070  0.5755 -0.1619
 7946TIP3    H145329   1.960   2.279  13.315  0.2268 -0.9691  0.7665
 7946TIP3    H245330   1.971   2.357  13.444 -0.2257  0.5520 -0.1020
 7947TIP3   OH245331   5.581   5.204   5.722  0.0227 -0.2259 -0.2509
 7947TIP3    H145332   5.572   5.273   5.655 -0.5848  0.5220  0.5792
 7947TIP3    H245333   5.516   5.226   5.788 -0.2177 -1.6565  0.0078
 7948TIP3   OH245334   1.444   3.218  13.088 -0.2926 -0.5859  0.6319
 7948TIP3    H145335   1.375   3.229  13.154 -0.3095 -0.0575  0.5295
 7948TIP3    H245336   1.443   3.300  13.038 -1.5273 -1.6470 -1.2210
 7949TIP3   OH245337   3.903   1.686   0.000 -0.0969  0.1163  0.4422
 7949TIP3    H145338   3.850   1.665  -0.077  2.0494 -1.8741 -0.6261
 7949TIP3    H245339   3.921   1.601   0.040 -0.8405  1.0617  3.0079
 7950TIP3   OH245340   4.848   6.330   4.667  0.3612  0.0978  0.0303
 7950TIP3    H145341   4.879   6.246   4.701 -2.7278 -1.3596 -0.3722
 7950TIP3    H245342   4.818   6.310   4.578 -1.7545  1.2134  0.4251
 7951TIP3   OH245343   1.017   6.488  14.497 -0.1226  0.5102 -0.0785
 7951TIP3    H145344   1.016   6.461  14.405  0.9015  0.9362 -0.2303
 7951TIP3    H245345   0.945   6.439  14.538 -0.2512 -0.0766 -0.9921
 7952TIP3   OH245346   4.103   4.510   2.951 -0.2176 -0.1627 -0.7708
 7952TIP3    H145347   4.040   4.582   2.945 -0.5952 -0.3876  0.2719
 7952TIP3    H245348   4.082   4.467   3.033  1.1368 -0.4112 -0.5286
 7953TIP3   OH245349   3.448   6.520  12.503 -0.5874 -0.0836 -0.5780
 7953TIP3    H145350   3.533   6.562  12.513 -0.0785 -0.8724 -1.4341
 7953TIP3    H245351   3.386   6.592  12.497 -0.0003  0.5007  0.1480
 7954TIP3   OH245352   4.694   2.521   1.516 -0.3202 -0.4109 -0.3494
 7954TIP3    H145353   4.737   2.605   1.499  0.0502 -0.7580 -1.1736
 7954TIP3    H245354   4.601   2.541   1.508 -0.2102 -0.2515 -1.4445
 7955TIP3   OH245355   1.891   1.906  13.036 -0.3484  0.1522  0.3712
 7955TIP3    H145356   1.898   1.858  12.953  1.5532 -0.6044  0.9115
 7955TIP3    H245357   1.841   1.984  13.015  0.5993  0.2719 -1.6592
 7956TIP3   OH245358   1.044   6.196  16.354 -0.8449  0.2993 -0.0357
 7956TIP3    H145359   1.008   6.148  16.279  1.5080 -1.3158 -0.2330
 7956TIP3    H245360   0.968   6.216  16.408 -2.2329 -1.5460 -1.1741
 7957TIP3   OH245361   6.228   1.446   6.620 -0.1043  0.2743 -0.1515
 7957TIP3    H145362   6.215   1.351   6.614  1.6964 -0.0898  0.8986
 7957TIP3    H245363   6.262   1.460   6.708 -0.0430  1.8742 -0.3955
 7958TIP3   OH245364   4.961   5.182  16.353 -0.1445  0.4464 -0.3839
 7958TIP3    H145365   5.014   5.250  16.395 -0.2562 -0.8234  2.0280
 7958TIP3    H245366   5.014   5.152  16.280  1.6165  0.5861  0.7651
 7959TIP3   OH245367   4.622   2.037  16.522 -0.7079 -0.3690  0.2362
 7959TIP3    H145368   4.601   1.976  16.451 -0.7528  0.9385 -0.9193
 7959TIP3    H245369   4.718   2.042  16.521 -0.7183 -0.1572  0.0781
 7960TIP3   OH245370   6.591   5.753   1.500 -0.5619 -0.1157 -0.7752
 7960TIP3    H145371   6.512   5.806   1.493 -0.6920  0.2001  1.9015
 7960TIP3    H245372   6.663   5.816   1.487 -0.7384  0.0120 -1.1310
 7961TIP3   OH245373   3.956   1.600   0.853  0.3675  0.4613 -0.3732
 7961TIP3    H145374   4.033   1.566   0.899  0.4709  1.4849  0.2329
 7961TIP3    H245375   3.993   1.647   0.778  0.3358  0.9255 -0.0996
 7962TIP3   OH245376   3.714   5.617   4.484  0.0179 -0.0511 -0.1023
 7962TIP3    H145377   3.786   5.673   4.455  2.0588 -2.5804 -0.2715
 7962TIP3    H245378   3.744   5.579   4.566 -1.4751 -0.5812  0.2348
 7963TIP3   OH245379   2.139   4.777  13.570 -0.3459 -0.1013 -0.5023
 7963TIP3    H145380   2.136   4.713  13.498 -0.1269  0.8420 -1.3716
 7963TIP3    H245381   2.047   4.792  13.592 -0.3827 -1.0747  0.0423
 7964TIP3   OH245382   4.137   1.819  16.894 -0.4702  0.3579  0.4597
 7964TIP3    H145383   4.093   1.903  16.901  1.5629  1.4651  0.8358
 7964TIP3    H245384   4.169   1.801  16.983  0.9917  0.3153 -0.0389
 7965TIP3   OH245385   4.769   2.569  15.867 -0.2158 -0.1420  0.1400
 7965TIP3    H145386   4.738   2.530  15.949 -1.4237  2.9682  1.3289
 7965TIP3    H245387   4.818   2.647  15.895  1.6682 -0.4064 -2.0652
 7966TIP3   OH245388   1.955   0.852  16.809 -0.0781 -0.3533 -0.3925
 7966TIP3    H145389   1.909   0.817  16.732  1.0035 -1.1316 -0.7169
 7966TIP3    H245390   1.934   0.791  16.879 -2.2286  1.1311  0.3555
 7967TIP3   OH245391   3.215   2.467  14.489 -0.2272  0.3615  0.7921
 7967TIP3    H145392   3.177   2.453  14.402  0.2976 -0.8126  0.7227
 7967TIP3    H245393   3.290   2.524  14.474  0.3398 -0.4798  0.3303
 7968TIP3   OH245394   0.546   4.379   1.192 -0.3143  0.5881 -0.3343
 7968TIP3    H145395   0.596   4.456   1.166 -0.8703  1.5284  1.2500
 7968TIP3    H245396   0.604   4.332   1.253 -0.4502  0.4257 -0.3300
 7969TIP3   OH245397   3.966   0.303   0.190  0.3274  0.6407  0.3644
 7969TIP3    H145398   3.979   0.314   0.284 -0.0282  2.5608  0.2262
 7969TIP3    H245399   4.013   0.376   0.150  0.3567 -0.0626 -0.9491
 7970TIP3   OH245400   2.785   0.250   1.300 -0.0257  0.6648 -0.2367
 7970TIP3    H145401   2.833   0.168   1.288 -0.6146  0.3849 -0.7172
 7970TIP3    H245402   2.717   0.249   1.233 -1.0394  0.8078  0.7472
 7971TIP3   OH245403   1.970   0.590  15.984  0.1355 -0.5369 -0.3953
 7971TIP3    H145404   1.907   0.572  16.054 -1.1510 -0.0947 -1.4162
 7971TIP3    H245405   2.054   0.598  16.030 -0.2024 -2.9419  0.8032
 7972TIP3   OH245406   3.876   1.794   0.436  0.4505 -0.0859  0.3652
 7972TIP3    H145407   3.785   1.813   0.413  0.4104 -0.3036  0.3354
 7972TIP3    H245408   3.870   1.746   0.518  0.6054  0.8762  0.9501
 7973TIP3   OH245409   2.289   6.686  14.022 -0.0321  0.2718  0.2618
 7973TIP3    H145410   2.305   6.779  14.037  0.8091  0.2189 -0.2205
 7973TIP3    H245411   2.194   6.678  14.019 -0.1026  1.2172 -0.2893
 7974TIP3   OH245412   4.776   4.909  14.099  0.0047  0.1952 -0.6233
 7974TIP3    H145413   4.776   4.981  14.161  0.7154  0.0656 -0.4654
 7974TIP3    H245414   4.866   4.878  14.098 -0.0272  0.0961 -1.6010
 7975TIP3   OH245415   0.913   1.723   1.381 -0.2352 -0.3739  0.0976
 7975TIP3    H145416   0.924   1.763   1.295 -1.3176  2.5094  1.1859
 7975TIP3    H245417   1.002   1.704   1.410  0.2928  0.6193 -0.7978
 7976TIP3   OH245418   5.191   6.715   3.853 -1.0787  0.1416 -0.3786
 7976TIP3    H145419   5.160   6.659   3.925  2.0570 -0.6200  0.5584
 7976TIP3    H245420   5.153   6.676   3.774 -2.6009 -0.5114  0.6215
 7977TIP3   OH245421   1.611   4.476  12.826  0.2986 -0.0897  0.1363
 7977TIP3    H145422   1.600   4.548  12.889 -1.0835 -0.6578  0.5696
 7977TIP3    H245423   1.592   4.515  12.741 -2.4129 -0.3388  0.5559
 7978TIP3   OH245424   4.742   6.719  16.116  0.3932  0.9158  0.9415
 7978TIP3    H145425   4.724   6.805  16.079  1.2882  0.3423 -0.9406
 7978TIP3    H245426   4.829   6.697  16.084 -0.5826 -1.5081 -0.2960
 7979TIP3   OH245427   4.229   5.246   1.924 -0.1034 -0.6711 -0.0943
 7979TIP3    H145428   4.220   5.181   1.994 -1.4530 -1.7440 -1.1865
 7979TIP3    H245429   4.290   5.311   1.958  0.8787 -2.2356  1.2658
 7980TIP3   OH245430   1.463   5.951   4.288  0.2379 -0.5444  0.4217
 7980TIP3    H145431   1.475   5.902   4.369 -0.6270 -3.2005 -0.9521
 7980TIP3    H245432   1.499   5.895   4.220 -3.1063 -0.5595 -1.5734
 7981TIP3   OH245433   5.732   5.130   2.759 -0.0630 -0.0628  0.3608
 7981TIP3    H145434   5.798   5.063   2.778 -0.6483 -0.5221  0.8094
 7981TIP3    H245435   5.667   5.120   2.828 -0.4397  0.6080  0.1142
 7982TIP3   OH245436   3.618   4.733   2.721 -0.4611 -0.2464  0.3303
 7982TIP3    H145437   3.591   4.683   2.644 -4.6504  0.9962  0.7368
 7982TIP3    H245438   3.552   4.713   2.787 -0.2950  3.0101  1.6963
 7983TIP3   OH245439   5.844   0.439  13.386 -0.4194  0.2504  0.5340
 7983TIP3    H145440   5.841   0.523  13.433 -1.4890  0.3838  0.2577
 7983TIP3    H245441   5.773   0.446  13.322  0.8393 -0.0286 -0.9366
 7984TIP3   OH245442   4.230   1.184   4.171  0.2613  0.3338  0.7544
 7984TIP3    H145443   4.285   1.175   4.250  0.7258 -1.6035  0.2452
 7984TIP3    H245444   4.273   1.130   4.105 -2.0525 -0.9669  0.2079
 7985TIP3   OH245445   1.297   5.657  14.978 -0.6698 -0.1202 -0.0611
 7985TIP3    H145446   1.310   5.730  14.917 -1.2143 -0.1221 -0.1851
 7985TIP3    H245447   1.289   5.699  15.063  0.9232 -0.1734  0.1383
 7986TIP3   OH245448   2.450   4.187  15.221 -0.2538 -0.3572  0.2026
 7986TIP3    H145449   2.382   4.166  15.158 -1.2022  1.6871  0.4585
 7986TIP3    H245450   2.521   4.125  15.202 -0.8153 -0.3206 -2.3297
 7987TIP3   OH245451   3.077   3.938  10.727 -0.1170 -0.2387  0.1856
 7987TIP3    H145452   3.063   3.893  10.644 -0.2234  1.6179 -0.8566
 7987TIP3    H245453   2.988   3.959  10.757 -0.0693 -0.7279  0.6973
 7988TIP3   OH245454   4.454   4.830   2.789  0.0457 -0.2520 -0.1305
 7988TIP3    H145455   4.403   4.758   2.753 -1.3545  0.9238 -0.5964
 7988TIP3    H245456   4.394   4.875   2.848  1.0938  0.1705  0.6530
 7989TIP3   OH245457   0.341   2.107  14.606  0.0228 -0.6905  0.0886
 7989TIP3    H145458   0.302   2.155  14.533 -0.7247 -0.7070  0.4626
 7989TIP3    H245459   0.354   2.018  14.573 -1.0506 -0.9048  0.2134
 7990TIP3   OH245460   4.094   6.605   5.729  0.3070  0.5402 -0.2712
 7990TIP3    H145461   4.185   6.611   5.700  0.2055  0.1364 -0.6935
 7990TIP3    H245462   4.066   6.695   5.739  0.3893  0.6977 -1.3119
 7991TIP3   OH245463   1.785   1.383  11.167  0.4602 -0.2258 -0.2941
 7991TIP3    H145464   1.728   1.311  11.138  0.6928 -0.4336 -0.2380
 7991TIP3    H245465   1.745   1.461  11.129 -0.2313 -0.2934  0.2865
 7992TIP3   OH245466   4.217   1.734   4.273 -0.2269 -0.1030 -0.0960
 7992TIP3    H145467   4.202   1.653   4.224  0.7012  0.1510 -0.8246
 7992TIP3    H245468   4.267   1.790   4.213  1.2773  0.0810  1.2611
 7993TIP3   OH245469   4.352   2.057  14.333  0.4912 -0.0883 -0.0861
 7993TIP3    H145470   4.351   2.044  14.428  1.2199  0.6079  0.0271
 7993TIP3    H245471   4.268   2.023  14.303 -0.4746  1.2239  1.0222
 7994TIP3   OH245472   3.377   3.951  12.915  0.5647  0.8983 -0.5767
 7994TIP3    H145473   3.468   3.921  12.913  0.0234 -0.8552 -0.7135
 7994TIP3    H245474   3.380   4.038  12.876  1.7567 -0.4077 -3.7588
 7995TIP3   OH245475   2.438   1.087  13.720 -0.5807  0.1327  0.1534
 7995TIP3    H145476   2.437   0.996  13.750  0.1879  0.3335  0.8187
 7995TIP3    H245477   2.528   1.101  13.689 -0.8120  0.5395 -0.3520
 7996TIP3   OH245478   2.786   2.407  14.832  0.0889 -0.6855  0.3234
 7996TIP3    H145479   2.692   2.403  14.846 -0.1697 -0.6648 -1.3090
 7996TIP3    H245480   2.809   2.322  14.795  0.3864 -0.0597 -1.0031
 7997TIP3   OH245481   0.469   5.067  14.539 -0.1500  0.0442  0.4380
 7997TIP3    H145482   0.454   5.101  14.451 -0.8650 -1.8098 -0.1972
 7997TIP3    H245483   0.562   5.042  14.540  0.2380  1.4053  0.7301
 7998TIP3   OH245484   6.669   3.727   1.456  0.3116 -0.0606 -0.3563
 7998TIP3    H145485   6.743   3.770   1.413  0.0757 -0.3396 -1.0735
 7998TIP3    H245486   6.637   3.790   1.520  0.2934  0.6149 -1.0223
 7999TIP3   OH245487   5.073   3.520   0.170 -0.4199 -0.2091  0.1600
 7999TIP3    H145488   5.056   3.611   0.147  0.9714  0.5180  1.8212
 7999TIP3    H245489   5.127   3.486   0.099 -2.2975 -0.2797 -1.2992
 8000TIP3   OH245490   0.926   2.650   0.105  0.4289  0.3534 -0.0668
 8000TIP3    H145491   0.969   2.649   0.191  0.7388  1.9852 -0.1790
 8000TIP3    H245492   0.846   2.700   0.119  0.0090 -0.1690 -0.5408
 8001TIP3   OH245493   6.281   2.127  11.371  0.2603  0.0811  0.0097
 8001TIP3    H145494   6.320   2.170  11.295  0.8316  0.4306  0.4866
 8001TIP3    H245495   6.212   2.072  11.335  1.5901 -1.0275 -0.9289
 8002TIP3   OH245496   6.716   2.362   5.556 -0.1000  0.4824 -0.7643
 8002TIP3    H145497   6.633   2.397   5.523 -0.7593  0.9323  1.1937
 8002TIP3    H245498   6.740   2.421   5.627 -0.0886 -1.7264  1.2037
 8003TIP3   OH245499   0.888   3.475  16.911  0.6600  0.9934 -0.2433
 8003TIP3    H145500   0.909   3.492  16.820 -0.0798  1.1860 -0.3800
 8003TIP3    H245501   0.793   3.471  16.914  0.7070 -1.8037  0.0111
 8004TIP3   OH245502   6.362   5.692   2.041  0.3058  0.3086 -0.0746
 8004TIP3    H145503   6.312   5.638   2.102  2.0186 -1.2225  0.0551
 8004TIP3    H245504   6.368   5.640   1.961 -1.6678  2.1660 -1.5852
 8005TIP3   OH245505   6.593   0.229   0.248 -0.3261 -0.5742 -0.8865
 8005TIP3    H145506   6.625   0.153   0.296  0.5101 -0.4346 -1.2134
 8005TIP3    H245507   6.519   0.195   0.197 -0.3907 -1.0101 -0.5071
 8006TIP3   OH245508   5.319   4.340  12.071 -0.0197  0.0890  0.7868
 8006TIP3    H145509   5.370   4.420  12.086 -0.4791  0.8884 -1.4354
 8006TIP3    H245510   5.376   4.285  12.018  0.7781 -1.6942  3.3251
 8007TIP3   OH245511   0.073   1.476  12.931 -1.0272  0.4172 -0.3503
 8007TIP3    H145512   0.117   1.410  12.877  0.7733  2.2471 -1.3132
 8007TIP3    H245513   0.029   1.533  12.868 -2.1471  0.4206  0.4146
 8008TIP3   OH245514   4.571   1.534   4.654  0.3464 -0.1417  0.4874
 8008TIP3    H145515   4.531   1.576   4.729 -0.5224  1.0716 -0.6150
 8008TIP3    H245516   4.638   1.595   4.625 -0.9629  0.6029 -1.1561
 8009TIP3   OH245517   4.330   4.567   1.015 -0.0345 -0.0716 -0.7265
 8009TIP3    H145518   4.340   4.535   0.925 -0.2457 -0.4963 -0.6053
 8009TIP3    H245519   4.236   4.584   1.024  0.0593  0.4525 -0.7446
 8010TIP3   OH245520   2.210   4.559  14.279 -0.1957 -0.4256 -0.6072
 8010TIP3    H145521   2.166   4.640  14.254 -0.9327 -0.6878 -0.1690
 8010TIP3    H245522   2.198   4.552  14.374  1.0246 -0.3674 -0.4260
 8011TIP3   OH245523   5.005   6.402   2.869 -0.0066 -0.5693  0.7629
 8011TIP3    H145524   5.073   6.433   2.809 -0.3695 -0.7696  0.2408
 8011TIP3    H245525   5.017   6.455   2.948  0.8821 -0.7419  0.7562
 8012TIP3   OH245526   5.225   6.159  15.782 -0.7925  0.5899  0.5363
 8012TIP3    H145527   5.130   6.166  15.791 -1.0294 -0.7790 -0.5161
 8012TIP3    H245528   5.259   6.184  15.868 -1.8862  4.0252  0.1180
 8013TIP3   OH245529   5.288   3.284   5.164 -0.1063  0.6149 -0.9298
 8013TIP3    H145530   5.350   3.227   5.208 -2.4301 -1.2925  0.1118
 8013TIP3    H245531   5.319   3.373   5.183  2.4198 -0.2161 -0.7767
 8014TIP3   OH245532   6.093   4.070  12.648  0.4488 -0.0506  0.3072
 8014TIP3    H145533   6.121   4.067  12.740  0.7837 -2.4881  0.2130
 8014TIP3    H245534   6.133   3.992  12.609 -2.1768 -0.8052 -1.1366
 8015TIP3   OH245535   0.529   0.331   3.781 -0.2227 -0.5734  0.3166
 8015TIP3    H145536   0.544   0.250   3.829  1.5999  0.7544  2.1839
 8015TIP3    H245537   0.617   0.365   3.764 -0.9352  0.8114 -0.8220
 8016TIP3   OH245538   5.389   4.656  10.977  0.4492 -0.0616  0.1370
 8016TIP3    H145539   5.446   4.593  10.934  1.6092  1.5791 -0.8658
 8016TIP3    H245540   5.301   4.630  10.951  0.9167 -1.0463 -0.5440
 8017TIP3   OH245541   2.658   1.401  14.559 -0.2923  0.1360 -0.5653
 8017TIP3    H145542   2.684   1.368  14.473  0.4742 -2.2348  0.4965
 8017TIP3    H245543   2.719   1.473  14.576  1.1946 -0.9656 -0.9936
 8018TIP3   OH245544   6.280   2.369  13.209 -0.2980  0.1686  0.4232
 8018TIP3    H145545   6.260   2.452  13.166  0.8725  0.5991  0.6548
 8018TIP3    H245546   6.319   2.395  13.293 -0.9658 -0.6330  0.9945
 8019TIP3   OH245547   2.435   6.233   5.274  0.0468 -0.0186  0.2260
 8019TIP3    H145548   2.444   6.291   5.198 -1.7318  2.2613  1.6038
 8019TIP3    H245549   2.469   6.149   5.245 -0.2007  0.8667 -2.9484
 8020TIP3   OH245550   1.086   4.412   6.320  0.0243 -0.0433 -0.1814
 8020TIP3    H145551   1.158   4.368   6.365 -1.4168 -1.0181  1.2424
 8020TIP3    H245552   1.035   4.341   6.282 -1.5548  0.4574  0.9375
 8021TIP3   OH245553   0.066   4.902   0.125 -0.3619  1.1394 -0.0348
 8021TIP3    H145554  -0.022   4.897   0.088  0.2808 -0.3763 -1.4568
 8021TIP3    H245555   0.095   4.991   0.105 -0.8423  1.0302 -1.3461
 8022TIP3   OH245556   2.168   3.251  14.805 -0.6156  0.0663  0.4224
 8022TIP3    H145557   2.162   3.259  14.710 -1.8217  0.6945  0.5389
 8022TIP3    H245558   2.182   3.341  14.836 -1.3378  0.0168  0.9075
 8023TIP3   OH245559   4.515   3.242   4.112 -0.2794  0.4441  0.3648
 8023TIP3    H145560   4.598   3.230   4.159 -0.4103  0.3614  0.5743
 8023TIP3    H245561   4.529   3.196   4.029  0.4313  1.7094 -0.2574
 8024TIP3   OH245562   0.109   3.293  17.150  0.2957  0.2034  0.1672
 8024TIP3    H145563   0.105   3.204  17.115  0.7557 -0.0398  0.7151
 8024TIP3    H245564   0.197   3.323  17.128  0.2343  0.4251  0.2238
 8025TIP3   OH245565   6.430   0.254   6.039 -0.2976 -0.4707 -0.1806
 8025TIP3    H145566   6.443   0.315   5.967 -0.2212  0.8405  0.9200
 8025TIP3    H245567   6.342   0.273   6.072  0.6658  0.8537  1.7827
 8026TIP3   OH245568   5.670   0.329  14.128  0.3028  0.1769 -0.1514
 8026TIP3    H145569   5.747   0.326  14.072  0.3529 -1.1550 -0.0453
 8026TIP3    H245570   5.696   0.382  14.203 -0.1389  3.0721 -1.8672
 8027TIP3   OH245571   2.990   4.386  12.760 -0.0628 -0.0819  0.3426
 8027TIP3    H145572   3.049   4.332  12.708 -1.8277 -1.3865 -0.4422
 8027TIP3    H245573   3.036   4.400  12.843  2.9762  2.3154 -1.5254
 8028TIP3   OH245574   1.113   2.053   0.016  0.0708  0.1640 -0.2411
 8028TIP3    H145575   1.156   2.049  -0.070  0.4006 -0.0507 -0.0664
 8028TIP3    H245576   1.091   1.961   0.036 -0.9762  0.3253 -0.5797
 8029TIP3   OH245577   5.637   6.163  16.564  0.0614  0.0581 -0.0248
 8029TIP3    H145578   5.694   6.101  16.519 -0.6125 -1.6613  1.3668
 8029TIP3    H245579   5.558   6.112  16.586 -1.4742  2.0003 -0.7439
 8030TIP3   OH245580   4.249   5.796   4.126 -0.4804 -0.2572  0.0176
 8030TIP3    H145581   4.243   5.747   4.207 -1.8283  0.1015  0.1578
 8030TIP3    H245582   4.208   5.880   4.145  1.1901  0.6859 -0.4058
 8031TIP3   OH245583   1.225   0.413   1.114 -0.3895 -0.2554 -0.6076
 8031TIP3    H145584   1.198   0.463   1.191  0.1471  0.4146 -0.8393
 8031TIP3    H245585   1.321   0.419   1.113 -0.3634 -0.6386 -1.0748
 8032TIP3   OH245586   5.704   6.789   4.340 -0.0994 -0.7516 -0.8432
 8032TIP3    H145587   5.740   6.700   4.336 -1.5077 -1.3845 -0.5066
 8032TIP3    H245588   5.721   6.817   4.430 -0.9193 -1.2852 -0.5045
 8033TIP3   OH245589   1.187   0.689  16.089 -0.8511 -0.2882 -0.0724
 8033TIP3    H145590   1.246   0.635  16.141 -0.0700  1.4151  0.8741
 8033TIP3    H245591   1.112   0.705  16.146 -0.6019  0.4747  0.0491
 8034TIP3   OH245592   4.221   1.941   1.393  0.5115 -0.5608 -0.3478
 8034TIP3    H145593   4.153   1.913   1.331 -0.8814 -0.3226  0.9866
 8034TIP3    H245594   4.186   2.022   1.431  1.6966 -0.2711  0.1597
 8035TIP3   OH245595   3.201   4.802  10.896  0.0473 -0.3348 -0.7827
 8035TIP3    H145596   3.182   4.710  10.880  0.7199 -0.9404  1.5261
 8035TIP3    H245597   3.193   4.812  10.990 -1.4202  2.3374 -1.0940
 8036TIP3   OH245598   1.201   3.839   4.040 -0.1821 -0.0266  0.2765
 8036TIP3    H145599   1.258   3.763   4.022 -0.0338  0.4537 -1.4901
 8036TIP3    H245600   1.241   3.881   4.116  1.2565 -0.2736 -0.3059
 8037TIP3   OH245601   2.989   2.041  17.153 -0.1750 -0.0835  0.3518
 8037TIP3    H145602   2.911   2.096  17.147  0.7206  1.0686 -1.7486
 8037TIP3    H245603   2.987   2.007  17.243 -2.0205  1.4914  0.9904
 8038TIP3   OH245604   5.726   2.329   0.420 -0.1379  0.6175 -0.1960
 8038TIP3    H145605   5.698   2.242   0.392  3.2897 -0.9595  0.6531
 8038TIP3    H245606   5.688   2.340   0.508  2.8515 -2.1833  1.6781
 8039TIP3   OH245607   1.814   0.845  15.117 -1.1435  0.7684 -0.2040
 8039TIP3    H145608   1.813   0.917  15.054  2.1428  1.5166  0.3851
 8039TIP3    H245609   1.770   0.880  15.195 -2.2550  1.0150 -0.9238
 8040TIP3   OH245610   4.742   0.013  13.550  0.0592 -0.2173  0.1418
 8040TIP3    H145611   4.717   0.104  13.560 -2.8933 -1.0495  1.4103
 8040TIP3    H245612   4.743  -0.003  13.456  2.7145  1.5480 -0.2250
 8041TIP3   OH245613   2.777   6.255  13.962 -0.5318  0.0914  0.3488
 8041TIP3    H145614   2.871   6.244  13.980  0.0442  0.7351 -1.8924
 8041TIP3    H245615   2.737   6.265  14.048  1.3834 -0.7231  1.3995
 8042TIP3   OH245616   0.553   1.259   5.671  0.0588 -0.2689 -1.3741
 8042TIP3    H145617   0.495   1.255   5.595 -1.7630 -1.3532 -0.0098
 8042TIP3    H245618   0.564   1.167   5.697 -0.8293  0.1811  0.7053
 8043TIP3   OH245619   3.637   2.792  12.787  0.1646 -0.5732 -0.6177
 8043TIP3    H145620   3.634   2.887  12.799 -1.1742 -0.5542 -0.9596
 8043TIP3    H245621   3.717   2.765  12.833  0.3579  0.6619 -0.1783
 8044TIP3   OH245622   6.142   2.942   1.371 -0.0076 -0.4758 -0.3419
 8044TIP3    H145623   6.139   3.015   1.309  0.1601 -1.1964 -1.2310
 8044TIP3    H245624   6.074   2.962   1.436  1.4065  1.4729  0.6176
 8045TIP3   OH245625   2.555   0.425  11.961  0.1127 -0.4571  0.1311
 8045TIP3    H145626   2.537   0.472  12.043 -0.4465 -1.8126  0.8201
 8045TIP3    H245627   2.484   0.450  11.902 -0.2974 -0.5796  0.5654
 8046TIP3   OH245628   2.491   3.506   2.034  0.1503  0.3599 -1.0483
 8046TIP3    H145629   2.555   3.454   2.082  0.4086 -0.1665 -1.9610
 8046TIP3    H245630   2.513   3.596   2.056 -0.3680  0.1105  0.6346
 8047TIP3   OH245631   4.504   4.860  10.533  0.8540 -0.0476  0.0795
 8047TIP3    H145632   4.531   4.768  10.543 -1.0703 -0.6471  0.2525
 8047TIP3    H245633   4.434   4.856  10.468 -0.1209  1.1194  1.0272
 8048TIP3   OH245634   4.184   1.219   4.629  0.1268  0.0112  0.2906
 8048TIP3    H145635   4.242   1.284   4.590 -0.0279  0.4776  0.8184
 8048TIP3    H245636   4.196   1.140   4.575  0.5440  0.3812 -0.1690
 8049TIP3   OH245637   3.260   2.499   3.519 -0.0963 -0.3046 -0.3217
 8049TIP3    H145638   3.252   2.486   3.424  1.4708  0.3767 -0.5751
 8049TIP3    H245639   3.169   2.500   3.550 -0.6508 -0.4194 -1.8304
 8050TIP3   OH245640   3.464   6.566  11.713 -0.1788  0.2526  0.5419
 8050TIP3    H145641   3.552   6.581  11.678  0.5493 -2.1854  1.0990
 8050TIP3    H245642   3.452   6.635  11.779  0.7297  1.4321 -0.4768
 8051TIP3   OH245643   5.403   0.284   3.173  0.8065  0.1468 -0.6400
 8051TIP3    H145644   5.314   0.268   3.203  1.6498 -0.3131  1.8168
 8051TIP3    H245645   5.428   0.203   3.127  0.1766  0.0534 -0.8245
 8052TIP3   OH245646   6.392   0.488  14.644  0.0610 -0.0845  0.3103
 8052TIP3    H145647   6.472   0.486  14.696 -0.3115  3.4821  1.2951
 8052TIP3    H245648   6.322   0.476  14.708 -0.3325 -3.8588 -0.6254
 8053TIP3   OH245649   3.745   6.196   3.763  0.1784  0.1221  0.3138
 8053TIP3    H145650   3.658   6.162   3.742  0.0400  0.6120  0.0962
 8053TIP3    H245651   3.731   6.288   3.784  0.8190  0.5216 -0.9247
 8054TIP3   OH245652   0.087   2.263  13.089 -0.2481 -0.7739 -0.4275
 8054TIP3    H145653   0.176   2.234  13.110 -0.2085 -0.5284 -0.2387
 8054TIP3    H245654   0.041   2.262  13.173 -0.3778 -0.7481 -0.4975
 8055TIP3   OH245655   4.125   4.681   5.865 -0.8649  0.7222 -0.1268
 8055TIP3    H145656   4.130   4.770   5.832  2.5887  0.7505  0.1134
 8055TIP3    H245657   4.127   4.691   5.960  0.1432  0.4233 -0.1032
 8056TIP3   OH245658   1.837   5.775   0.442  0.1754 -0.4882  0.0979
 8056TIP3    H145659   1.925   5.809   0.456 -0.0982  0.1615  0.2744
 8056TIP3    H245660   1.832   5.761   0.347  0.4150 -0.3857  0.0686
 8057TIP3   OH245661   5.461   1.752  12.029 -0.3058  0.3511  0.3998
 8057TIP3    H145662   5.431   1.836  12.064  1.5164  1.0025  0.4956
 8057TIP3    H245663   5.478   1.768  11.936 -2.5741 -0.6774 -0.2568
 8058TIP3   OH245664   0.553   4.136   1.465 -0.2388 -0.4173 -0.3797
 8058TIP3    H145665   0.547   4.219   1.513 -0.1577 -0.1018 -0.9147
 8058TIP3    H245666   0.626   4.148   1.404  1.2633 -1.6570  1.0482
 8059TIP3   OH245667   4.729   0.128  15.996  0.2334  0.3925  0.2590
 8059TIP3    H145668   4.823   0.140  15.982  0.1889  0.6314  0.1573
 8059TIP3    H245669   4.692   0.128  15.908 -0.2146  3.2448  0.3491
 8060TIP3   OH245670   1.204   1.019   4.847  0.0355  0.4614  0.1622
 8060TIP3    H145671   1.266   0.953   4.814  0.1188 -0.1753  1.5165
 8060TIP3    H245672   1.186   1.075   4.772  0.4210 -0.7614 -0.8750
 8061TIP3   OH245673   4.661   5.224   4.740  0.0016 -0.5278  0.6638
 8061TIP3    H145674   4.624   5.204   4.654 -0.1301  0.0806  0.5744
 8061TIP3    H245675   4.754   5.205   4.731  0.6389  2.5822 -0.6342
 8062TIP3   OH245676   1.757   1.148  12.783 -0.3973  0.1044  0.1577
 8062TIP3    H145677   1.851   1.165  12.793 -0.6842  3.0115 -1.1844
 8062TIP3    H245678   1.751   1.054  12.769  1.9776 -0.6833  3.3031
 8063TIP3   OH245679   3.917   4.760   0.421  0.9152  0.3324  0.0038
 8063TIP3    H145680   3.924   4.722   0.334 -0.0210 -0.8993  0.4369
 8063TIP3    H245681   3.822   4.770   0.435  1.0734  1.0775  0.6541
 8064TIP3   OH245682   1.738   4.553   3.211  0.2392  0.3083  0.1532
 8064TIP3    H145683   1.803   4.517   3.150  0.6715  1.0159  0.1870
 8064TIP3    H245684   1.654   4.535   3.169  0.5047  0.2562 -0.3732
 8065TIP3   OH245685   2.890   1.788  15.183 -0.3816 -0.1929  0.0613
 8065TIP3    H145686   2.914   1.736  15.260 -1.2335 -0.6648  0.0146
 8065TIP3    H245687   2.821   1.846  15.215  0.2240  0.5995 -0.0088
 8066TIP3   OH245688   2.218   3.290   4.945 -0.4034 -0.9148  0.0626
 8066TIP3    H145689   2.266   3.373   4.939 -1.7385 -0.1194 -0.2114
 8066TIP3    H245690   2.266   3.238   5.009  1.3301 -0.5447 -0.8855
 8067TIP3   OH245691   5.269   1.785   3.916 -0.0825  0.7157 -0.1072
 8067TIP3    H145692   5.329   1.749   3.981 -1.1062  0.7707  0.8996
 8067TIP3    H245693   5.306   1.870   3.893  0.7663  0.3072 -0.2867
 8068TIP3   OH245694   4.141   2.543  12.882 -0.2195  0.2638  0.1139
 8068TIP3    H145695   4.231   2.569  12.897  0.0695  0.1276 -1.2278
 8068TIP3    H245696   4.111   2.600  12.811 -0.7126 -0.6388 -0.4225
 8069TIP3   OH245697   5.978   5.280  15.636 -0.2597 -0.3867 -0.4063
 8069TIP3    H145698   5.970   5.203  15.580  1.6660  0.1816 -1.5790
 8069TIP3    H245699   6.034   5.251  15.708 -0.8541 -0.5104  0.0048
 8070TIP3   OH245700   3.760   3.507   5.695  0.1997 -0.0941 -0.4255
 8070TIP3    H145701   3.688   3.556   5.735 -0.0360 -1.0004  0.2815
 8070TIP3    H245702   3.772   3.430   5.751  1.1822 -0.3779 -0.9893
 8071TIP3   OH245703   4.509   2.278   3.857 -0.1089 -0.0828  0.0456
 8071TIP3    H145704   4.531   2.199   3.907  0.6964  0.7771  1.0675
 8071TIP3    H245705   4.518   2.350   3.919 -2.9318  0.6637 -0.2411
 8072TIP3   OH245706   4.603   0.499   5.681  0.4921  0.1547  0.4328
 8072TIP3    H145707   4.687   0.541   5.696  0.3685  0.9609 -0.9462
 8072TIP3    H245708   4.549   0.567   5.640 -0.3211 -0.8040 -0.1428
 8073TIP3   OH245709   5.408   3.576   3.797  0.0873  0.1046  0.5343
 8073TIP3    H145710   5.472   3.522   3.750 -0.9917 -1.5076  0.8144
 8073TIP3    H245711   5.416   3.663   3.758 -0.2455 -0.9803 -2.1811
 8074TIP3   OH245712   6.525   2.956   6.379 -0.5133  0.2718 -0.3052
 8074TIP3    H145713   6.491   2.931   6.293 -0.2733  0.8994 -0.5962
 8074TIP3    H245714   6.459   3.017   6.413 -0.6862 -0.1026  0.0231
 8075TIP3   OH245715   5.625   4.923   5.459 -0.7749 -0.0939  0.0064
 8075TIP3    H145716   5.673   4.973   5.524 -0.5537  0.5136 -0.6119
 8075TIP3    H245717   5.544   4.896   5.503 -0.1393 -0.6342  0.8673
 8076TIP3   OH245718   2.689   2.478   0.846  0.2346 -0.2190 -0.2453
 8076TIP3    H145719   2.597   2.455   0.832  0.4935 -1.1929 -0.4513
 8076TIP3    H245720   2.700   2.562   0.802 -0.8209  0.4598  0.7454
 8077TIP3   OH245721   4.188   5.058   5.315  0.0124  0.5533  0.2533
 8077TIP3    H145722   4.270   5.029   5.354  0.1376  2.0311  1.1740
 8077TIP3    H245723   4.194   5.032   5.223  0.2578 -1.8748  0.8845
 8078TIP3   OH245724   0.696   0.859   2.397 -0.2106 -0.6187  0.0297
 8078TIP3    H145725   0.762   0.800   2.359 -0.5905 -0.8825 -0.2361
 8078TIP3    H245726   0.746   0.919   2.451  0.1894 -1.1904  0.3097
 8079TIP3   OH245727   1.997   3.950   2.595  0.0250 -0.7180  0.0693
 8079TIP3    H145728   1.968   3.973   2.506 -0.0497  1.1357  0.5296
 8079TIP3    H245729   1.947   4.008   2.652  3.1875  1.3247  1.0296
 8080TIP3   OH245730   3.218   3.897   2.773 -0.1783  0.1796  0.0585
 8080TIP3    H145731   3.136   3.848   2.771 -0.1265  0.0873  0.2006
 8080TIP3    H245732   3.281   3.837   2.812  0.0839  0.0543 -0.5459
 8081TIP3   OH245733   4.214   5.884   4.553  0.1729 -0.3052  0.1603
 8081TIP3    H145734   4.153   5.958   4.563  0.6339  0.4526 -2.0710
 8081TIP3    H245735   4.300   5.925   4.559  0.5616 -1.3199  2.9331
 8082TIP3   OH245736   6.352   5.872   5.514 -1.1673  0.3839  0.7105
 8082TIP3    H145737   6.282   5.812   5.539 -0.4748 -1.8456 -2.0667
 8082TIP3    H245738   6.315   5.921   5.440 -0.3809  0.3580  0.2927
 8083TIP3   OH245739   0.648   3.051   6.730  0.2214 -0.1541  0.3961
 8083TIP3    H145740   0.645   2.974   6.786 -1.4781 -0.4204  0.0083
 8083TIP3    H245741   0.587   3.113   6.771  0.6218  0.4918  0.0345
 8084TIP3   OH245742   2.144   0.185   5.427 -0.1419  0.0887  0.5655
 8084TIP3    H145743   2.156   0.148   5.339 -0.6254 -0.0362  0.5482
 8084TIP3    H245744   2.196   0.265   5.426 -1.3316  0.8980 -0.3535
 8085TIP3   OH245745   2.446   1.256  14.703  0.1693 -0.1553 -0.3881
 8085TIP3    H145746   2.490   1.188  14.652  0.9482  1.0758 -1.4264
 8085TIP3    H245747   2.476   1.339  14.664  0.3707  0.8440  1.7409
 8086TIP3   OH245748   3.689   4.425   2.041  0.5107 -0.7707  0.4712
 8086TIP3    H145749   3.656   4.340   2.069 -1.6389  0.3792  1.6615
 8086TIP3    H245750   3.778   4.429   2.077  0.0006 -1.8188  1.9316
 8087TIP3   OH245751   0.544   6.154   3.895 -0.0460 -0.4883  0.1182
 8087TIP3    H145752   0.526   6.190   3.808 -0.5718 -0.3190  0.2938
 8087TIP3    H245753   0.635   6.124   3.890  0.7054  1.6008  0.2221
 8088TIP3   OH245754   5.474   1.174   0.898  0.7898 -0.0560  0.1676
 8088TIP3    H145755   5.508   1.090   0.868  0.8022 -0.1920  0.5562
 8088TIP3    H245756   5.417   1.204   0.827  0.4911 -0.5688  0.1837
 8089TIP3   OH245757   4.518   0.922  15.918  0.0427  0.4690 -0.1407
 8089TIP3    H145758   4.520   0.925  15.822 -3.2986 -1.5779 -0.4317
 8089TIP3    H245759   4.465   0.997  15.943 -2.8087 -1.3460 -0.3427
 8090TIP3   OH245760   2.906   1.218  12.661 -0.2201  0.7093  0.3975
 8090TIP3    H145761   2.886   1.227  12.568  2.1685 -0.1300 -0.2694
 8090TIP3    H245762   2.889   1.126  12.681  0.7301  0.5243  0.3841
 8091TIP3   OH245763   0.088   1.357   5.245  0.8903 -0.5642 -0.1119
 8091TIP3    H145764   0.052   1.292   5.185 -1.3210 -0.3063  0.8210
 8091TIP3    H245765   0.126   1.425   5.188  1.5803 -1.7534 -1.1123
 8092TIP3   OH245766   3.987   2.260  10.351  0.2231  0.0317 -0.1436
 8092TIP3    H145767   3.984   2.166  10.370 -0.0414  0.4557  2.3063
 8092TIP3    H245768   4.078   2.278  10.330  1.2106 -0.2149  3.2957
 8093TIP3   OH245769   3.549   2.812   4.541  0.1536  0.1878  0.7350
 8093TIP3    H145770   3.629   2.762   4.527 -0.2036 -0.6094  1.5095
 8093TIP3    H245771   3.566   2.864   4.619  0.6329  1.5377 -0.2269
 8094TIP3   OH245772   4.752   0.706  15.711 -0.2090  0.9649  0.0475
 8094TIP3    H145773   4.837   0.750  15.707 -0.1189  0.7549 -0.4173
 8094TIP3    H245774   4.689   0.777  15.722 -0.0275  1.1744 -0.2687
 8095TIP3   OH245775   4.623   3.655  13.219 -0.0961  0.0119  0.6316
 8095TIP3    H145776   4.685   3.668  13.290  1.5882 -0.6360 -0.6440
 8095TIP3    H245777   4.599   3.744  13.192 -1.2623  0.2618  2.3749
 8096TIP3   OH245778   3.170   6.741   6.005 -0.4435 -0.2717 -0.1243
 8096TIP3    H145779   3.189   6.815   5.948 -0.9835  0.0969  0.1586
 8096TIP3    H245780   3.154   6.668   5.945  2.4894 -0.8302 -0.3921
 8097TIP3   OH245781   1.636   4.290  13.148  0.6792 -0.9122  0.6459
 8097TIP3    H145782   1.602   4.222  13.091  2.0133 -0.4915 -0.7479
 8097TIP3    H245783   1.578   4.365  13.134  1.9601 -0.2469 -1.5824
 8098TIP3   OH245784   4.099   6.332  13.362  0.4240 -0.3995  0.5615
 8098TIP3    H145785   4.035   6.375  13.305 -0.5609  0.3363  2.1439
 8098TIP3    H245786   4.076   6.239  13.357 -0.4348 -0.2032  0.7002
 8099TIP3   OH245787   6.351   2.917   3.831 -0.2719  0.4016 -0.5927
 8099TIP3    H145788   6.403   2.960   3.899  0.7405 -0.5843 -0.7055
 8099TIP3    H245789   6.328   2.987   3.770  2.1701  0.6911 -1.3097
 8100TIP3   OH245790   0.457   5.186   3.225  0.0910 -0.1778  0.4332
 8100TIP3    H145791   0.390   5.200   3.291  0.3589  1.0260  0.4775
 8100TIP3    H245792   0.411   5.145   3.152 -0.9342  1.5130  0.0679
 8101TIP3   OH245793   4.306   3.536   5.127 -0.5462 -0.1369  0.0266
 8101TIP3    H145794   4.286   3.535   5.034  0.3240  1.4535 -0.1935
 8101TIP3    H245795   4.246   3.601   5.164 -0.2044 -0.0422  0.4152
 8102TIP3   OH245796   0.847   1.024   3.249 -0.4700 -0.1033  0.4623
 8102TIP3    H145797   0.917   0.993   3.305 -1.6380 -0.9913  1.4881
 8102TIP3    H245798   0.819   1.107   3.288 -0.4391 -0.0903  0.4566
 8103TIP3   OH245799   2.845   6.066   0.822  0.1194  0.5530  0.4953
 8103TIP3    H145800   2.809   5.978   0.808 -1.3033  1.1984 -0.1729
 8103TIP3    H245801   2.901   6.058   0.898 -0.6253 -0.7768  0.9260
 8104TIP3   OH245802   0.894   2.542  14.274  0.3766  0.4021  0.3074
 8104TIP3    H145803   0.846   2.586  14.344  0.5770 -0.5121  1.0511
 8104TIP3    H245804   0.928   2.462  14.315  3.1873  1.3532  0.0416
 8105TIP3   OH245805   1.548   1.802  14.378 -0.2466  0.2354 -0.0937
 8105TIP3    H145806   1.515   1.784  14.466 -0.3794  0.6969 -0.0430
 8105TIP3    H245807   1.499   1.880  14.351  0.5592  0.7273 -0.1542
 8106TIP3   OH245808   6.524   2.151  15.506  0.0918  0.2265  0.2433
 8106TIP3    H145809   6.610   2.133  15.468  0.4440  0.3705  0.9517
 8106TIP3    H245810   6.471   2.181  15.432  1.0596  1.5472  0.0509
 8107TIP3   OH245811   4.425   1.419   1.178 -0.2959  0.2436  0.1009
 8107TIP3    H145812   4.519   1.424   1.196 -0.3546  0.3160  0.3931
 8107TIP3    H245813   4.418   1.368   1.098  0.0293  0.7142 -0.2314
 8108TIP3   OH245814   2.249   4.493   2.716 -0.0128  0.3540 -0.4942
 8108TIP3    H145815   2.335   4.479   2.757 -1.3249 -0.0511  2.3468
 8108TIP3    H245816   2.235   4.414   2.664  0.5845 -0.3956  0.4497
 8109TIP3   OH245817   1.120   3.718   2.928  0.0196 -0.1751  0.1420
 8109TIP3    H145818   1.091   3.638   2.971  0.5874 -0.5002 -0.0748
 8109TIP3    H245819   1.208   3.733   2.961 -0.5965  1.1690  1.2854
 8110TIP3   OH245820   4.048   5.156  14.293 -0.8213 -0.2745  0.5630
 8110TIP3    H145821   4.128   5.141  14.343 -2.3160 -1.5695  2.7827
 8110TIP3    H245822   4.047   5.250  14.277  1.1811 -0.2478  0.3449
 8111TIP3   OH245823   4.876   6.733   5.624  1.1009  0.5040 -0.1836
 8111TIP3    H145824   4.961   6.737   5.579  1.7291  1.3449  1.0235
 8111TIP3    H245825   4.836   6.818   5.608  0.1076 -0.1428 -1.3778
 8112TIP3   OH245826   4.106   2.617  16.815  0.4348  0.0885 -0.1731
 8112TIP3    H145827   4.064   2.703  16.812  0.9418  0.3098 -1.1432
 8112TIP3    H245828   4.121   2.594  16.723  3.5359  0.5533  0.1080
 8113TIP3   OH245829   5.493   3.137  17.005 -0.1051  0.2587 -0.1699
 8113TIP3    H145830   5.461   3.054  16.972 -1.2195  0.0995  1.1887
 8113TIP3    H245831   5.570   3.114  17.057 -0.9349 -0.0669  0.9490
 8114TIP3   OH245832   2.980   5.285  17.166  0.3879 -0.5087 -0.5033
 8114TIP3    H145833   2.981   5.274  17.071 -0.7609  0.5211 -0.6781
 8114TIP3    H245834   2.887   5.283  17.189  0.6652 -1.0604  0.6497
 8115TIP3   OH245835   1.747   0.469   2.875 -0.3914  0.0489  0.0581
 8115TIP3    H145836   1.681   0.538   2.875  0.3267  0.7581 -0.6453
 8115TIP3    H245837   1.794   0.481   2.958 -0.0190  0.6620 -0.2354
 8116TIP3   OH245838   2.674   0.618   2.458 -0.0526 -0.2745 -0.4616
 8116TIP3    H145839   2.644   0.709   2.469  1.1127  0.2077 -1.1048
 8116TIP3    H245840   2.699   0.590   2.545 -1.4264 -0.3648 -0.0686
 8117TIP3   OH245841   3.485   6.534  12.917  0.0031  0.0602 -0.5739
 8117TIP3    H145842   3.569   6.578  12.903  1.0157 -1.2998  0.9405
 8117TIP3    H245843   3.463   6.554  13.008  0.0433 -1.7716 -0.1306
 8118TIP3   OH245844   0.461   3.501  12.855  0.3753 -0.1411  0.3541
 8118TIP3    H145845   0.384   3.471  12.805  0.2991 -0.0503  0.4160
 8118TIP3    H245846   0.534   3.454  12.816  0.0921 -1.3946  1.2955
 8119TIP3   OH245847   6.263   5.254  13.404  0.1801 -0.1765  0.2473
 8119TIP3    H145848   6.357   5.253  13.388  0.0407 -2.3736 -0.8742
 8119TIP3    H245849   6.224   5.253  13.316 -0.7897 -2.5823  0.6275
 8120TIP3   OH245850   4.839   5.311  14.521  0.2714  0.5848 -0.6896
 8120TIP3    H145851   4.777   5.370  14.562  0.8125  2.3768 -2.3388
 8120TIP3    H245852   4.891   5.366  14.463  3.8797 -0.6452  1.0318
 8121TIP3   OH245853   6.564   5.993  14.838  0.5503 -0.2249 -0.0226
 8121TIP3    H145854   6.659   6.000  14.838  0.5383 -0.0011 -0.3239
 8121TIP3    H245855   6.533   6.083  14.825  0.3374 -0.5258 -1.9131
 8122TIP3   OH245856   2.908   1.534   0.887  0.1644  0.0090 -0.4836
 8122TIP3    H145857   2.963   1.490   0.822 -1.4371 -3.4910  0.2763
 8122TIP3    H245858   2.881   1.464   0.946 -2.8739  2.0370  0.7667
 8123TIP3   OH245859   4.765   0.862  14.056  0.1584  0.1539  0.1176
 8123TIP3    H145860   4.856   0.851  14.085 -0.2259  0.7256  1.6649
 8123TIP3    H245861   4.748   0.956  14.064 -0.4527  0.1150 -0.5657
 8124TIP3   OH245862   3.997   5.805  15.084 -0.5035  0.2447 -0.3636
 8124TIP3    H145863   3.951   5.742  15.029  0.0722 -1.1957  0.7058
 8124TIP3    H245864   4.068   5.754  15.124 -1.2454  1.0341  2.1543
 8125TIP3   OH245865   4.508   5.730   1.986  0.2303 -0.4991 -0.2076
 8125TIP3    H145866   4.424   5.774   1.998 -0.5787 -2.0932  0.3106
 8125TIP3    H245867   4.556   5.786   1.925 -0.9490  0.7725 -0.0204
 8126TIP3   OH245868   4.234   3.981  12.435 -0.1204  0.4628  0.1908
 8126TIP3    H145869   4.277   4.061  12.467  0.3482  0.0558  0.5832
 8126TIP3    H245870   4.221   3.927  12.513 -0.4402  0.1568 -0.0722
 8127TIP3   OH245871   5.034   2.258   1.137  0.0629 -0.2662 -0.0728
 8127TIP3    H145872   5.010   2.306   1.216  0.9736  0.0650  0.0150
 8127TIP3    H245873   5.129   2.261   1.136  0.0495  0.8067 -1.8467
 8128TIP3   OH245874   5.937   3.849   2.044 -0.1335  0.1240 -0.1534
 8128TIP3    H145875   5.948   3.820   1.953  0.2749  0.5377 -0.2461
 8128TIP3    H245876   5.985   3.785   2.096  1.3630  0.9707 -0.4151
 8129TIP3   OH245877   3.563   2.581   3.161 -0.1565 -0.0455 -0.1131
 8129TIP3    H145878   3.515   2.631   3.228  0.8085 -1.9572  2.1451
 8129TIP3    H245879   3.625   2.645   3.125 -0.5769  1.0312  0.9699
 8130TIP3   OH245880   2.121   5.332   0.892  0.0949  0.1531  0.2589
 8130TIP3    H145881   2.108   5.337   0.798  0.4246 -0.6631  0.1590
 8130TIP3    H245882   2.036   5.354   0.930  0.0074  0.6578 -0.2215
 8131TIP3   OH245883   1.514   6.094   1.842  0.8378 -0.4234  0.2827
 8131TIP3    H145884   1.445   6.033   1.817  0.8701 -0.1845 -0.4193
 8131TIP3    H245885   1.495   6.116   1.933 -0.6402  0.4403 -0.1935
 8132TIP3   OH245886   3.173   3.996   3.033 -0.2454  0.0732  0.1957
 8132TIP3    H145887   3.156   4.089   3.046 -0.4668 -0.2227  2.5201
 8132TIP3    H245888   3.173   3.984   2.938  0.3691  2.5214 -0.1676
 8133TIP3   OH245889   4.903   1.073  13.295 -0.5855 -0.0010 -0.0905
 8133TIP3    H145890   4.808   1.086  13.289 -0.7386 -0.1732  1.5141
 8133TIP3    H245891   4.913   0.996  13.351  0.4887 -1.9681 -2.7884
 8134TIP3   OH245892   6.003   2.668  11.770 -0.5295 -0.4716 -0.0748
 8134TIP3    H145893   5.941   2.600  11.799 -1.3537  0.6703  0.9583
 8134TIP3    H245894   5.993   2.738  11.835 -0.1640  0.9110 -1.4504
 8135TIP3   OH245895   4.191   2.958  13.774  0.5146 -0.1298  0.0738
 8135TIP3    H145896   4.238   2.988  13.852  0.9741 -0.2763 -0.1443
 8135TIP3    H245897   4.260   2.935  13.712  0.1615 -0.8198 -0.0692
 8136TIP3   OH245898   0.991   2.399  16.505 -0.0543  0.2978 -0.2632
 8136TIP3    H145899   1.058   2.347  16.461 -0.5068  0.8519 -1.6942
 8136TIP3    H245900   0.909   2.355  16.484 -0.5100  1.8542 -2.0462
 8137TIP3   OH245901   2.982   1.274   0.974  0.7324 -0.0003 -0.0950
 8137TIP3    H145902   3.025   1.286   1.059  1.4954  2.1854 -0.7137
 8137TIP3    H245903   3.052   1.251   0.914  0.4419 -0.0411 -0.4190
 8138TIP3   OH245904   2.695   1.066  13.633  0.0035  0.2864  0.1195
 8138TIP3    H145905   2.786   1.095  13.634  0.6609 -1.5799  2.0310
 8138TIP3    H245906   2.699   0.975  13.605 -0.9849 -0.4711  2.2070
 8139TIP3   OH245907   6.102   4.986  16.411 -0.4221 -0.5387  0.9165
 8139TIP3    H145908   6.149   5.041  16.473 -1.4496 -0.6316  1.8024
 8139TIP3    H245909   6.168   4.961  16.346  0.1946  1.2732  0.7803
 8140TIP3   OH245910   6.374   1.209  16.390  0.2705  0.0215 -0.3283
 8140TIP3    H145911   6.455   1.161  16.374 -1.6465 -2.9348 -2.2562
 8140TIP3    H245912   6.374   1.279  16.325  3.6101  3.8477  3.1994
 8141TIP3   OH245913   0.931   3.139  16.177  0.0868 -0.4939  0.3778
 8141TIP3    H145914   0.999   3.083  16.215  0.5620  0.6092  1.2134
 8141TIP3    H245915   0.971   3.226  16.174 -1.7364  0.4882  2.1905
 8142TIP3   OH245916   6.267   4.396  14.484 -0.6787  0.2699 -0.1378
 8142TIP3    H145917   6.358   4.367  14.484 -0.6100  0.3235  2.1339
 8142TIP3    H245918   6.237   4.382  14.394  0.7576 -2.2971 -0.3100
 8143TIP3   OH245919   3.311   1.059   1.370  0.2824 -0.1324 -0.1543
 8143TIP3    H145920   3.290   0.989   1.309 -0.1998 -0.5888  0.5140
 8143TIP3    H245921   3.390   1.100   1.334  1.6424 -2.1652  0.3578
 8144TIP3   OH245922   0.477   1.862  14.882 -0.3609  0.3336 -0.0757
 8144TIP3    H145923   0.396   1.835  14.926 -0.4998  0.9409  0.0557
 8144TIP3    H245924   0.526   1.909  14.949  0.2601 -0.3315 -0.0616
 8145TIP3   OH245925   4.311   2.314  15.858 -0.0200  0.5141  0.6594
 8145TIP3    H145926   4.366   2.270  15.794 -0.2256  0.6896  0.3576
 8145TIP3    H245927   4.235   2.256  15.868 -0.0625  0.5630  0.6230
 8146TIP3   OH245928   4.532   1.558   5.150  0.2664 -0.1850  0.2630
 8146TIP3    H145929   4.506   1.536   5.240  1.2183 -0.6131  0.4504
 8146TIP3    H245930   4.586   1.636   5.159  2.2450 -1.4916  0.3610
 8147TIP3   OH245931   4.198   0.756   0.423  0.2862  0.0155  0.0195
 8147TIP3    H145932   4.289   0.777   0.406 -0.1848  2.6064  0.3262
 8147TIP3    H245933   4.172   0.699   0.351  2.4476 -1.8946  0.6384
 8148TIP3   OH245934   6.560   2.709  13.823 -0.5062 -0.5678 -0.3918
 8148TIP3    H145935   6.627   2.642  13.832 -0.8957 -0.7617  1.3499
 8148TIP3    H245936   6.569   2.740  13.732  2.2564 -0.2015 -0.0836
 8149TIP3   OH245937   6.530   6.203  15.442 -0.3667 -0.8719 -0.0945
 8149TIP3    H145938   6.599   6.139  15.458  1.8134  1.1743 -0.7827
 8149TIP3    H245939   6.497   6.224  15.529 -0.0198 -1.7349  0.2623
 8150TIP3   OH245940   3.502   5.730   4.682  1.2117 -0.3496  0.3509
 8150TIP3    H145941   3.574   5.751   4.742  1.1904  1.1710 -0.1255
 8150TIP3    H245942   3.458   5.656   4.724  0.6598  1.1880  2.7012
 8151TIP3   OH245943   6.218   1.477   2.837  0.2081  0.4926  0.6156
 8151TIP3    H145944   6.290   1.522   2.881  0.7143 -0.2173  0.5371
 8151TIP3    H245945   6.239   1.384   2.848  0.2967  0.2980 -1.0321
 8152TIP3   OH245946   3.743   6.312  11.620  0.5731  0.0525 -0.2728
 8152TIP3    H145947   3.745   6.281  11.711 -1.5838 -1.4492 -0.6791
 8152TIP3    H245948   3.738   6.408  11.628  1.0248 -0.0185  1.1544
 8153TIP3   OH245949   3.381   3.706   2.898 -0.4789  0.3605  0.8059
 8153TIP3    H145950   3.359   3.614   2.887 -2.1939  1.0615 -4.5094
 8153TIP3    H245951   3.474   3.712   2.875 -0.2253 -0.0427  1.6876
 8154TIP3   OH245952   2.326   6.420   4.311  0.0578  0.1107  0.2907
 8154TIP3    H145953   2.407   6.444   4.266 -0.0548  1.1251  0.6242
 8154TIP3    H245954   2.258   6.430   4.244  0.1557 -0.4600  0.0943
 8155TIP3   OH245955   5.759   4.956   1.340 -0.2517 -0.0830  0.3981
 8155TIP3    H145956   5.753   5.013   1.263 -0.1209  1.2147  1.3064
 8155TIP3    H245957   5.812   4.882   1.311 -0.0173  0.4882 -0.6929
 8156TIP3   OH245958   1.598   1.516  16.895  0.4083  0.0975 -0.5470
 8156TIP3    H145959   1.674   1.564  16.928  0.7187  0.6168 -1.9374
 8156TIP3    H245960   1.634   1.433  16.864 -0.1130 -1.0593  1.7593
 8157TIP3   OH245961   5.681   1.176  15.144 -0.1447  0.4977 -0.3039
 8157TIP3    H145962   5.639   1.096  15.112 -0.4588  0.9790 -1.1267
 8157TIP3    H245963   5.707   1.155  15.234 -0.4226 -0.4504 -0.4296
 8158TIP3   OH245964   1.115   6.610  17.265 -0.0865  0.0026 -0.2720
 8158TIP3    H145965   1.136   6.525  17.303  0.3947  0.5579  0.7386
 8158TIP3    H245966   1.025   6.628  17.294  0.2907  0.4392  0.6737
 8159TIP3   OH245967   4.591   4.818   3.615 -0.0032  0.1612  0.1120
 8159TIP3    H145968   4.582   4.759   3.690 -1.6137  1.8848  1.3890
 8159TIP3    H245969   4.573   4.764   3.539  0.4131 -1.3814  1.0738
 8160TIP3   OH245970   0.594   5.657  14.050  0.4992  0.5506 -0.1274
 8160TIP3    H145971   0.626   5.626  13.966  0.9810  1.6371 -0.3566
 8160TIP3    H245972   0.601   5.581  14.108 -0.9328 -0.5568 -1.3172
 8161TIP3   OH245973   2.659   3.218  15.388  0.4699 -0.3748 -0.3520
 8161TIP3    H145974   2.657   3.260  15.302 -0.7500  1.2342  0.3958
 8161TIP3    H245975   2.638   3.289  15.450  0.5129 -1.6491  1.2029
 8162TIP3   OH245976   0.678   5.904  15.246  0.3939  0.4144  0.6351
 8162TIP3    H145977   0.678   5.823  15.195  0.3446  0.6910  0.1868
 8162TIP3    H245978   0.767   5.938  15.238  0.0805  1.0703 -0.2698
 8163TIP3   OH245979   2.588   2.161  15.438 -0.5941 -0.2156 -0.4797
 8163TIP3    H145980   2.539   2.219  15.380  0.7398  0.0805 -1.3627
 8163TIP3    H245981   2.587   2.076  15.393 -1.9637 -0.7427  0.4804
 8164TIP3   OH245982   3.588   2.583   1.378 -0.4514  0.0026 -0.0920
 8164TIP3    H145983   3.524   2.540   1.434  0.7341  0.2187  1.4979
 8164TIP3    H245984   3.556   2.673   1.370  0.1665  0.3995  1.5843
 8165TIP3   OH245985   6.153   5.275   0.308  0.3782  0.6485  0.3488
 8165TIP3    H145986   6.144   5.329   0.386  1.4447  2.4871 -0.7225
 8165TIP3    H245987   6.083   5.305   0.249  1.9172  2.0531 -0.8597
 8166TIP3   OH245988   2.328   5.102   5.263  0.0324  0.0053 -0.3287
 8166TIP3    H145989   2.281   5.114   5.180  0.1002 -1.0376 -0.5265
 8166TIP3    H245990   2.302   5.178   5.316 -0.0035  0.6891 -1.2992
 8167TIP3   OH245991   5.458   4.093  11.293 -0.4374 -0.0004 -0.0232
 8167TIP3    H145992   5.504   4.177  11.300  1.8007 -1.0360 -1.0835
 8167TIP3    H245993   5.393   4.107  11.225  0.7356  0.5907 -1.0678
 8168TIP3   OH245994   5.739   6.495   4.819  0.4894  0.4974 -0.4619
 8168TIP3    H145995   5.740   6.548   4.899 -0.2705  1.5280 -1.1106
 8168TIP3    H245996   5.652   6.509   4.782  0.5268 -0.6526 -1.0317
 8169TIP3   OH245997   3.612   1.886   4.242 -0.3894  0.0942  0.8763
 8169TIP3    H145998   3.682   1.846   4.191 -0.4715 -1.0447  1.6243
 8169TIP3    H245999   3.657   1.935   4.311 -0.2997  1.1015  0.1380
 8170TIP3   OH246000   1.995   0.767   3.775 -0.1386 -0.8110 -0.4116
 8170TIP3    H146001   1.928   0.814   3.825  1.0520 -0.2638  0.7226
 8170TIP3    H246002   2.038   0.834   3.723  1.0421 -0.7396  0.6187
 8171TIP3   OH246003   3.967   6.763  11.080  0.2735 -0.6182  0.3275
 8171TIP3    H146004   4.045   6.793  11.125  0.2007  0.2570 -0.0879
 8171TIP3    H246005   3.939   6.839  11.028 -2.0549 -0.1497  2.0673
 8172TIP3   OH246006   5.194   3.558   5.799 -1.0221 -0.6309  0.0585
 8172TIP3    H146007   5.164   3.568   5.890  2.1881  0.4653  1.1268
 8172TIP3    H246008   5.142   3.622   5.750 -1.2602  0.3498  1.5380
 8173TIP3   OH246009   5.452   3.049   4.130 -0.2862  0.3125 -0.4626
 8173TIP3    H146010   5.483   3.065   4.219 -1.2068  3.1328 -0.5459
 8173TIP3    H246011   5.530   3.057   4.075  0.1475 -0.6753 -0.0157
 8174TIP3   OH246012   2.704   3.971   3.593  0.4173 -0.4020 -0.2635
 8174TIP3    H146013   2.717   3.881   3.624 -0.4969 -0.6876 -0.6941
 8174TIP3    H246014   2.667   4.017   3.668 -0.8855 -0.8586 -0.5979
 8175TIP3   OH246015   2.708   1.282   0.732  0.0335  0.0760  0.2907
 8175TIP3    H146016   2.621   1.258   0.762  0.3718 -0.2635  0.9964
 8175TIP3    H246017   2.756   1.200   0.726  0.4052  0.2958  0.2016
 8176TIP3   OH246018   6.062   2.103   0.267  0.6610  0.3232 -0.2560
 8176TIP3    H146019   6.081   2.057   0.185  0.6796 -1.9599  0.9599
 8176TIP3    H246020   5.984   2.156   0.247 -0.4917 -1.6412 -1.2820
 8177TIP3   OH246021   0.792   4.796   2.084 -0.2282  0.6311 -0.5865
 8177TIP3    H146022   0.840   4.878   2.100 -1.0556  1.1278 -0.5879
 8177TIP3    H246023   0.727   4.819   2.018 -0.7442  0.0806 -0.2809
 8178TIP3   OH246024   0.320   1.744  15.084 -0.0943 -0.0277  0.1372
 8178TIP3    H146025   0.275   1.828  15.088 -1.4954 -0.5718 -2.1224
 8178TIP3    H246026   0.250   1.679  15.079  0.8295 -0.9660 -2.8056
 8179TIP3   OH246027   5.402   5.594  12.401  0.5904  0.4317 -0.3694
 8179TIP3    H146028   5.443   5.621  12.319 -0.2043  2.3559 -0.2009
 8179TIP3    H246029   5.454   5.638  12.469  0.8295 -0.5936  0.1384
 8180TIP3   OH246030   5.897   5.434   4.174 -0.0874 -0.0139  0.1841
 8180TIP3    H146031   5.846   5.502   4.131 -0.4017  0.5410  1.4104
 8180TIP3    H246032   5.874   5.441   4.267  2.3690  0.4002  0.8339
 8181TIP3   OH246033   3.560   2.283   5.012  0.0394  0.5403 -0.2548
 8181TIP3    H146034   3.476   2.287   4.965 -0.0888 -0.8390 -0.1758
 8181TIP3    H246035   3.583   2.191   5.013  0.0475  0.4731  2.3631
 8182TIP3   OH246036   6.710   1.441   5.025 -0.1079  0.5205 -0.0443
 8182TIP3    H146037   6.775   1.443   4.954  0.4420  0.1959  0.4374
 8182TIP3    H246038   6.630   1.410   4.983  0.7126 -1.6162 -0.1562
 8183TIP3   OH246039   1.474   3.438  16.220  0.0046  0.0466  0.7961
 8183TIP3    H146040   1.483   3.392  16.137 -1.0799  0.1130  0.6353
 8183TIP3    H246041   1.564   3.445  16.253  0.3568 -0.7003  0.0297
 8184TIP3   OH246042   5.131   4.723   5.058 -0.1583  0.4677 -0.1360
 8184TIP3    H146043   5.091   4.761   5.136  3.5854 -0.7726  2.6876
 8184TIP3    H246044   5.141   4.630   5.078  2.7653  0.4792 -1.1103
 8185TIP3   OH246045   4.539   2.657  14.578 -0.3112  0.3154 -0.3011
 8185TIP3    H146046   4.481   2.672  14.504  0.2345  1.6558 -0.4899
 8185TIP3    H246047   4.503   2.580  14.622 -0.5546 -0.6133 -2.0338
 8186TIP3   OH246048   3.155   5.479  11.695 -0.4974 -0.1918 -0.3130
 8186TIP3    H146049   3.097   5.522  11.757 -0.1061  0.0304 -0.0927
 8186TIP3    H246050   3.196   5.552  11.647  1.1936 -0.2338  0.9850
 8187TIP3   OH246051   0.677   4.138  16.236 -0.4124  0.0207  0.0604
 8187TIP3    H146052   0.724   4.182  16.306 -2.5055  0.5022  1.2405
 8187TIP3    H246053   0.695   4.190  16.158  0.2137  0.7290  0.6653
 8188TIP3   OH246054   1.567   1.421  10.831 -0.4033 -0.0525 -0.0315
 8188TIP3    H146055   1.573   1.489  10.898 -0.1353  0.1775 -0.2846
 8188TIP3    H246056   1.658   1.396  10.815 -0.4298  0.2186 -0.6346
 8189TIP3   OH246057   2.103   2.033  10.502  0.0838  0.0509  0.3893
 8189TIP3    H146058   2.135   2.116  10.466 -2.0719  0.3149 -1.1416
 8189TIP3    H246059   2.175   1.972  10.486  1.0373  1.2310 -0.0728
 8190TIP3   OH246060   4.531   6.780   3.674  0.0360  0.0638  0.2346
 8190TIP3    H146061   4.477   6.732   3.737 -1.5443  0.2754 -0.8849
 8190TIP3    H246062   4.517   6.872   3.696 -0.5339  0.1389 -0.3975
 8191TIP3   OH246063   3.069   6.078  15.350 -0.2665 -0.2520 -0.1356
 8191TIP3    H146064   3.025   6.014  15.294  0.1336 -0.7816  0.1425
 8191TIP3    H246065   3.019   6.078  15.431 -0.8648  0.5390 -0.4864
 8192TIP3   OH246066   3.068   3.165  14.802  0.5440 -0.2014 -0.0281
 8192TIP3    H146067   3.132   3.148  14.733  0.5734  0.4648 -0.1753
 8192TIP3    H246068   3.105   3.239  14.850  0.8855 -1.1207  1.1606
 8193TIP3   OH246069   0.555   0.142   6.890  0.6763  0.0364  0.4662
 8193TIP3    H146070   0.512   0.059   6.908  0.8417  0.1306  1.3538
 8193TIP3    H246071   0.488   0.208   6.904 -0.2612 -0.0202 -2.8636
 8194TIP3   OH246072   3.922   5.997  17.196  0.3687 -0.0851 -0.7768
 8194TIP3    H146073   3.892   6.062  17.133 -0.9196  0.4154  0.3002
 8194TIP3    H246074   3.858   5.926  17.190  0.8544 -0.5290 -0.7985
 8195TIP3   OH246075   5.088   6.275  13.016 -0.2747  0.6814  0.2452
 8195TIP3    H146076   5.059   6.255  13.106 -0.2411  0.1490  0.1369
 8195TIP3    H246077   5.180   6.299  13.025  0.8680 -3.0185 -0.0805
 8196TIP3   OH246078   0.859   3.152  13.095 -0.3743  0.4669  0.0690
 8196TIP3    H146079   0.908   3.070  13.092  0.3184  0.8587  0.2509
 8196TIP3    H246080   0.923   3.216  13.126 -1.0785  0.9482  0.5597
 8197TIP3   OH246081   4.472   6.284   0.104 -0.1185  0.1490 -0.2910
 8197TIP3    H146082   4.547   6.314   0.052  0.5014  1.8417  1.4863
 8197TIP3    H246083   4.448   6.200   0.065  1.7285  0.2952 -1.8651
 8198TIP3   OH246084   2.433   3.301   1.847  0.0917 -0.2387 -0.1375
 8198TIP3    H146085   2.513   3.250   1.859 -0.2753 -0.5420  1.2065
 8198TIP3    H246086   2.452   3.387   1.884 -0.2953 -0.4122  0.4770
 8199TIP3   OH246087   1.677   6.505   2.190 -0.2134 -0.2224 -0.3093
 8199TIP3    H146088   1.741   6.447   2.148  2.2952  1.7805  0.4795
 8199TIP3    H246089   1.689   6.489   2.283 -1.6026 -0.4924 -0.1605
 8200TIP3   OH246090   4.629   1.571  14.264  1.4586 -0.1327 -0.2664
 8200TIP3    H146091   4.584   1.613  14.191 -1.9183 -1.5726  0.8424
 8200TIP3    H246092   4.660   1.645  14.317 -1.4277  1.0739 -0.0689
 8201TIP3   OH246093   5.002   3.065   0.677 -0.3306  0.1517  0.0407
 8201TIP3    H146094   4.986   2.984   0.629  1.4123  0.6057 -1.4268
 8201TIP3    H246095   5.008   3.037   0.768 -2.4068 -0.9352 -0.1002
 8202TIP3   OH246096   2.626   2.536  15.868  0.4298  0.5651  0.0856
 8202TIP3    H146097   2.638   2.626  15.897  0.1854  0.1648  1.5144
 8202TIP3    H246098   2.551   2.539  15.809  0.4684  1.3041  0.0731
 8203TIP3   OH246099   2.679   0.489   2.221 -0.8148 -0.4455 -1.0419
 8203TIP3    H146100   2.680   0.529   2.308 -1.4172 -0.2599 -1.1149
 8203TIP3    H246101   2.767   0.504   2.187 -1.0150  0.8501 -1.0679
 8204TIP3   OH246102   2.924   6.092  13.292  0.1663  0.1429  0.2970
 8204TIP3    H146103   2.890   6.145  13.364  0.2828 -2.0158  2.0597
 8204TIP3    H246104   2.969   6.020  13.335  2.0584 -0.1631 -1.9698
 8205TIP3   OH246105   2.744   6.775  14.322 -0.1166 -0.0642  0.3882
 8205TIP3    H146106   2.666   6.732  14.358  0.0380 -0.2099  0.5543
 8205TIP3    H246107   2.818   6.727  14.360  0.0778  0.9565  1.3596
 8206TIP3   OH246108   4.183   6.300  13.023 -0.6762 -0.0125 -0.7060
 8206TIP3    H146109   4.115   6.256  13.074 -1.0930  1.1524 -0.2202
 8206TIP3    H246110   4.203   6.379  13.073 -0.6837  0.8680 -2.0508
 8207TIP3   OH246111   4.596   3.602  16.901  0.1136 -0.0680  0.0290
 8207TIP3    H146112   4.637   3.520  16.873  0.9636 -0.0133  1.0652
 8207TIP3    H246113   4.600   3.600  16.996 -2.9402 -0.3602  0.2484
 8208TIP3   OH246114   3.599   0.748  15.315  0.2886  0.5954 -0.7099
 8208TIP3    H146115   3.685   0.744  15.357  0.2681 -0.2112 -0.7117
 8208TIP3    H246116   3.564   0.659  15.325 -0.9038  1.1190  0.0462
 8209TIP3   OH246117   0.542   0.471   3.201 -0.3403  0.7894 -0.0971
 8209TIP3    H146118   0.569   0.516   3.280  1.4921 -0.3296 -0.0317
 8209TIP3    H246119   0.451   0.445   3.217 -0.4781  1.9103  0.9960
 8210TIP3   OH246120   0.595   0.240   3.501  0.4987  0.5078  0.4859
 8210TIP3    H146121   0.511   0.233   3.456 -0.0705  0.4158  1.5321
 8210TIP3    H246122   0.579   0.202   3.587  1.8946 -0.4191  0.3621
 8211TIP3   OH246123   6.589   1.042   2.876  0.4467 -0.4455  0.0422
 8211TIP3    H146124   6.668   1.093   2.890 -0.2039  0.1411  1.9016
 8211TIP3    H246125   6.620   0.960   2.837  2.1776 -0.7707  1.8942
 8212TIP3   OH246126   4.412   1.502  14.449  0.0538  0.2849  0.1275
 8212TIP3    H146127   4.490   1.545  14.414  0.9994 -0.9624  0.6616
 8212TIP3    H246128   4.346   1.513  14.380  0.6141  1.5177 -0.2485
 8213TIP3   OH246129   6.163   4.221  15.787  0.5510 -0.0927  0.3698
 8213TIP3    H146130   6.191   4.249  15.701 -1.9019  0.5763 -0.2996
 8213TIP3    H246131   6.232   4.251  15.846  1.6548  0.5858 -1.2007
 8214TIP3   OH246132   3.466   3.933  16.107 -0.1833 -0.6516  0.0230
 8214TIP3    H146133   3.521   3.937  16.185 -0.4732  1.1738  0.1871
 8214TIP3    H246134   3.519   3.972  16.038 -0.7657 -0.1272 -0.1395
 8215TIP3   OH246135   1.206   1.731   3.506 -0.6204 -0.2747  0.2616
 8215TIP3    H146136   1.140   1.759   3.570 -0.7137 -1.8648  0.9129
 8215TIP3    H246137   1.163   1.741   3.421 -1.7009 -1.1895  0.6671
 8216TIP3   OH246138   2.469   1.347   5.830  0.3964 -0.3782  0.4243
 8216TIP3    H146139   2.556   1.342   5.869  0.6917 -0.9506 -0.2908
 8216TIP3    H246140   2.474   1.291   5.753 -0.7132 -0.7068  0.5749
 8217TIP3   OH246141   0.981   2.142   4.752 -0.5258  0.5946 -0.3960
 8217TIP3    H146142   1.053   2.131   4.813 -0.1379 -0.4221 -1.0111
 8217TIP3    H246143   0.918   2.198   4.798 -0.2868 -0.2220  0.9608
 8218TIP3   OH246144   3.428   3.562  15.405  0.5576 -0.1066 -0.0748
 8218TIP3    H146145   3.433   3.639  15.461  1.0894 -0.8704  0.9701
 8218TIP3    H246146   3.381   3.592  15.327  0.9667  1.3217  0.1958
 8219TIP3   OH246147   6.572   2.469   5.301 -0.0210 -0.0862  0.3222
 8219TIP3    H146148   6.509   2.417   5.350  0.2471 -1.9714 -1.1997
 8219TIP3    H246149   6.572   2.554   5.344 -1.1564 -1.0501  2.3719
 8220TIP3   OH246150   1.647   1.804   0.543  0.2744  0.7945  0.4207
 8220TIP3    H146151   1.664   1.715   0.513 -0.1658  1.1444 -0.9340
 8220TIP3    H246152   1.688   1.808   0.630 -1.2763 -1.2701  1.3279
 8221TIP3   OH246153   4.748   3.422  13.221 -0.1641 -0.1985  0.2631
 8221TIP3    H146154   4.833   3.446  13.185  0.5725 -1.1554  1.2962
 8221TIP3    H246155   4.696   3.502  13.217  0.7011  0.3324 -0.6111
 8222TIP3   OH246156   0.248   3.017  14.727  0.6749 -0.4511 -0.5962
 8222TIP3    H146157   0.238   2.942  14.669 -0.2076 -0.8016 -0.0040
 8222TIP3    H246158   0.171   3.015  14.783  0.7020  0.8193 -0.4769
 8223TIP3   OH246159   5.261   2.449   5.141  0.5263  0.6807  0.0866
 8223TIP3    H146160   5.222   2.362   5.150 -0.4988  1.2180  1.1763
 8223TIP3    H246161   5.186   2.509   5.145  1.2640  1.6337 -0.1564
 8224TIP3   OH246162   5.787   2.722   2.737 -0.3717 -0.2677  0.4602
 8224TIP3    H146163   5.859   2.683   2.687  0.7089 -1.0936  2.5176
 8224TIP3    H246164   5.715   2.660   2.727  0.4045 -1.3494  1.3258
 8225TIP3   OH246165   2.202   3.315   0.094  0.1302  0.4548  0.5737
 8225TIP3    H146166   2.201   3.221   0.114  1.6928  0.4759  0.8275
 8225TIP3    H246167   2.109   3.340   0.094 -0.3263 -1.1191  0.3080
 8226TIP3   OH246168   3.593   0.400  13.278 -0.2505 -0.5602 -0.3949
 8226TIP3    H146169   3.582   0.311  13.243 -1.9683 -1.0079  1.1491
 8226TIP3    H246170   3.573   0.457  13.204 -0.5613 -1.4662 -1.0277
 8227TIP3   OH246171   2.602   0.206   2.073 -0.4918 -0.1473  0.4759
 8227TIP3    H146172   2.565   0.290   2.048 -0.4746  0.5352  2.6001
 8227TIP3    H246173   2.654   0.180   1.997 -2.7457  0.3474 -1.3448
 8228TIP3   OH246174   2.992   0.736   2.555 -0.5558 -0.1373 -0.0608
 8228TIP3    H146175   2.938   0.806   2.591  0.4662  0.3992  0.4616
 8228TIP3    H246176   3.031   0.693   2.631 -0.4686 -0.7129 -0.4195
 8229TIP3   OH246177   3.490   4.240   2.978  0.2794  0.4663 -0.3759
 8229TIP3    H146178   3.478   4.190   2.897  0.5142 -2.1126  1.0680
 8229TIP3    H246179   3.522   4.325   2.949 -1.0034  0.1510 -3.0560
 8230TIP3   OH246180   4.475   1.141  16.366 -0.0782  0.2132  0.3465
 8230TIP3    H146181   4.532   1.138  16.288  1.2390  0.2794  1.2768
 8230TIP3    H246182   4.535   1.156  16.439 -1.4742  1.8460  1.2117
 8231TIP3   OH246183   5.129   3.553  12.804  0.0341  0.3553  0.1414
 8231TIP3    H146184   5.150   3.482  12.865  0.6144 -0.0170 -0.4715
 8231TIP3    H246185   5.210   3.567  12.755  0.2366  2.1047  0.8902
 8232TIP3   OH246186   5.710   5.363   4.422 -0.8449 -0.2207  0.0222
 8232TIP3    H146187   5.695   5.278   4.382 -0.1144 -0.0471 -0.6645
 8232TIP3    H246188   5.756   5.344   4.503  0.1902 -0.4546 -0.5956
 8233TIP3   OH246189   3.286   6.582  12.109 -0.3700  0.3080  0.2237
 8233TIP3    H146190   3.236   6.587  12.027 -1.7235  0.2452  1.0069
 8233TIP3    H246191   3.265   6.663  12.155  0.5355  0.4308  0.4390
 8234TIP3   OH246192   1.131   5.539  16.850 -0.8722 -0.2363  0.2110
 8234TIP3    H146193   1.192   5.470  16.875  0.3714  0.1357 -1.5889
 8234TIP3    H246194   1.059   5.494  16.808 -0.8941 -0.5538  0.5895
 8235TIP3   OH246195   1.106   2.158  13.431 -0.2271 -0.3668 -0.1702
 8235TIP3    H146196   1.029   2.214  13.444  0.6872  1.1418 -0.9545
 8235TIP3    H246197   1.108   2.142  13.337  1.2288  0.8926 -0.3928
 8236TIP3   OH246198   3.087   3.072  11.116  0.1801  0.0601  0.1522
 8236TIP3    H146199   3.147   3.004  11.087 -0.1124  0.2749 -0.9774
 8236TIP3    H246200   3.135   3.119  11.185  0.6488 -0.8310  0.4394
 8237TIP3   OH246201   2.687   4.578   5.825 -0.4726 -0.3682 -0.4087
 8237TIP3    H146202   2.687   4.505   5.762 -2.7272 -0.2537 -0.6505
 8237TIP3    H246203   2.739   4.646   5.783 -1.8309 -0.3346 -2.1767
 8238TIP3   OH246204   0.680   3.415   5.952  0.0830  0.3573 -0.0487
 8238TIP3    H146205   0.630   3.431   6.032  0.8253  0.9117  0.3178
 8238TIP3    H246206   0.620   3.368   5.895 -0.6598  0.5022  0.6010
 8239TIP3   OH246207   5.990   6.461   1.507 -0.0894  1.0328 -0.3162
 8239TIP3    H146208   6.083   6.481   1.494  0.2590 -0.3670 -0.1868
 8239TIP3    H246209   5.989   6.369   1.533 -1.6617  0.3449 -2.4732
 8240TIP3   OH246210   0.053   3.419   1.317  0.9609  0.3069  0.5237
 8240TIP3    H146211   0.035   3.498   1.267  0.5809  0.8703  1.5081
 8240TIP3    H246212  -0.028   3.403   1.366  1.3292 -0.1953  0.9805
 8241TIP3   OH246213   5.941   5.488  13.000  0.0163  0.1684  0.1204
 8241TIP3    H146214   5.923   5.581  13.014  1.3917  0.2940  1.2766
 8241TIP3    H246215   5.855   5.450  12.978 -0.6230  1.6308 -0.0373
 8242TIP3   OH246216   2.078   4.890   4.658  0.1425 -0.0664 -0.2948
 8242TIP3    H146217   1.997   4.940   4.649 -1.1234 -1.9492  0.0427
 8242TIP3    H246218   2.109   4.878   4.568 -1.9495 -2.3351 -0.8275
 8243TIP3   OH246219   1.172   3.062  15.937  0.0089 -0.1874 -0.0218
 8243TIP3    H146220   1.101   3.124  15.957 -0.8636 -1.8417  2.4557
 8243TIP3    H246221   1.129   2.976  15.935  1.5078 -0.9650 -1.4979
 8244TIP3   OH246222   5.498   0.987  14.970 -0.2400 -0.5441  0.0139
 8244TIP3    H146223   5.471   1.078  14.957 -3.4470 -1.3297  0.2954
 8244TIP3    H246224   5.480   0.944  14.886  0.8878 -1.0264  0.0017
 8245TIP3   OH246225   5.705   2.162  13.876 -0.9419 -0.2394  0.2857
 8245TIP3    H146226   5.643   2.229  13.902  0.7598  1.2197  0.8124
 8245TIP3    H246227   5.706   2.166  13.780 -2.0577 -0.6942  0.2408
 8246TIP3   OH246228   1.865   3.435  16.026 -0.3863 -0.0437 -0.4566
 8246TIP3    H146229   1.868   3.358  16.082  0.8704 -1.0332 -1.8366
 8246TIP3    H246230   1.919   3.413  15.950  1.4039  2.8126 -0.1375
 8247TIP3   OH246231   3.016   6.356   1.947 -0.2452 -0.1672  0.3484
 8247TIP3    H146232   3.110   6.338   1.945 -0.6774 -2.8168  1.0275
 8247TIP3    H246233   2.998   6.382   2.038 -0.1441  0.6646  0.1398
 8248TIP3   OH246234   2.924   0.577   5.999  0.2500 -0.5899 -0.1841
 8248TIP3    H146235   2.847   0.619   6.038 -0.6586 -1.3319 -1.1392
 8248TIP3    H246236   2.971   0.540   6.074 -0.4073 -0.2956  0.3901
 8249TIP3   OH246237   0.411   0.710  11.275 -0.5632  0.3431  0.2796
 8249TIP3    H146238   0.322   0.678  11.263 -0.2993 -0.0715 -0.6842
 8249TIP3    H246239   0.449   0.708  11.187  1.2475 -2.0352  0.9917
 8250TIP3   OH246240   0.451   6.219   4.935  0.2829 -0.1739 -0.3035
 8250TIP3    H146241   0.537   6.213   4.893 -0.0109  0.7440 -1.0695
 8250TIP3    H246242   0.471   6.234   5.028  0.9968  2.0653 -0.7717
 8251TIP3   OH246243   6.677   3.401  14.597 -0.0673 -0.0483  1.1053
 8251TIP3    H146244   6.737   3.420  14.669  0.3719  0.1681  0.6850
 8251TIP3    H246245   6.681   3.478  14.541 -1.1662  0.2024  1.3554
 8252TIP3   OH246246   1.185   0.895   5.079  0.2064 -0.8106  0.4270
 8252TIP3    H146247   1.142   0.820   5.037  0.3934 -1.9763  2.1941
 8252TIP3    H246248   1.209   0.953   5.007 -4.5869  0.1582 -0.7908
 8253TIP3   OH246249   5.928   0.989   4.649  0.0910 -0.7664  0.2705
 8253TIP3    H146250   5.973   0.952   4.573 -0.2177 -0.9779  0.1889
 8253TIP3    H246251   5.837   0.998   4.621  0.1093 -0.2143  0.3912
 8254TIP3   OH246252   6.280   0.477  11.298  0.3158 -0.0695 -0.1169
 8254TIP3    H146253   6.241   0.493  11.213 -0.9274  1.0068  0.6191
 8254TIP3    H246254   6.246   0.392  11.325  0.3479 -0.2006 -0.4844
 8255TIP3   OH246255   5.596   0.045   3.818  0.0669 -0.0450  0.0813
 8255TIP3    H146256   5.575  -0.017   3.749  1.4001  0.4502 -0.8172
 8255TIP3    H246257   5.581   0.131   3.779  0.9375  0.2456  0.3591
 8256TIP3   OH246258   4.793   6.305  16.678  0.1815 -0.0325 -0.5056
 8256TIP3    H146259   4.852   6.232  16.697 -0.8889 -0.6320  0.6823
 8256TIP3    H246260   4.728   6.267  16.618 -0.6292 -0.2081  0.4601
 8257TIP3   OH246261   6.597   0.242   2.351 -0.3624  0.2185 -0.0615
 8257TIP3    H146262   6.605   0.328   2.391 -3.1512  0.6815 -0.2993
 8257TIP3    H246263   6.605   0.181   2.425 -1.1643  0.8526  0.5740
 8258TIP3   OH246264   1.428   1.486  10.619 -0.3768 -0.1220 -0.6100
 8258TIP3    H146265   1.491   1.451  10.683 -1.5989 -0.8044  0.2591
 8258TIP3    H246266   1.439   1.581  10.623  0.1634 -0.2037 -0.0316
 8259TIP3   OH246267   1.635   4.509  13.543  0.5668 -0.3260 -0.1471
 8259TIP3    H146268   1.729   4.490  13.536  0.6954  0.1961  0.0637
 8259TIP3    H246269   1.615   4.500  13.636  0.8194  1.2994  0.1067
 8260TIP3   OH246270   4.153   2.193   1.483 -0.2333  0.5706  0.4817
 8260TIP3    H146271   4.065   2.231   1.485  0.1607  1.7764 -1.6858
 8260TIP3    H246272   4.199   2.237   1.555 -1.7882 -1.4097  2.8682
 8261TIP3   OH246273   0.892   3.060   3.517  0.2110  0.1159  0.0519
 8261TIP3    H146274   0.842   3.019   3.447  0.5430 -0.3965  0.1070
 8261TIP3    H246275   0.826   3.089   3.580 -0.0218 -0.4919  0.0941
 8262TIP3   OH246276   0.726   3.481  15.151 -0.5267 -0.8849  0.3442
 8262TIP3    H146277   0.682   3.477  15.237  0.1262 -1.0035  0.6784
 8262TIP3    H246278   0.744   3.574  15.139  0.0570 -0.9515  0.6861
 8263TIP3   OH246279   4.779   6.615   5.297  0.0212 -0.0868 -0.1256
 8263TIP3    H146280   4.799   6.644   5.385  0.0132 -1.9940  0.5575
 8263TIP3    H246281   4.685   6.601   5.296 -0.1371  0.9013 -0.7765
 8264TIP3   OH246282   4.181   0.289  12.300  0.2317  0.3350 -0.7868
 8264TIP3    H146283   4.151   0.205  12.336 -0.1948  0.9870  0.4277
 8264TIP3    H246284   4.139   0.294  12.215 -2.9678  1.0378  0.6874
 8265TIP3   OH246285   4.701   6.215   3.056 -0.0180  0.2498 -0.2094
 8265TIP3    H146286   4.727   6.135   3.010 -1.6989  0.0983 -0.9500
 8265TIP3    H246287   4.669   6.184   3.141 -0.3989  0.1588 -0.3848
 8266TIP3   OH246288   4.635   0.022   2.284 -0.0281 -0.2685 -0.2267
 8266TIP3    H146289   4.597   0.085   2.345  0.2481  0.0438 -0.3710
 8266TIP3    H246290   4.651  -0.057   2.336 -2.3448 -0.9867 -0.5133
 8267TIP3   OH246291   6.646   2.524  16.932  0.3050  0.0518  0.0410
 8267TIP3    H146292   6.740   2.517  16.915 -0.0030 -1.2987 -1.2993
 8267TIP3    H246293   6.607   2.537  16.845 -1.0668 -3.6488 -0.0841
 8268TIP3   OH246294   5.795   0.942   5.748 -0.0097 -0.6779  0.4457
 8268TIP3    H146295   5.726   0.969   5.808 -1.5790 -1.1880 -1.0382
 8268TIP3    H246296   5.813   1.020   5.695  0.0045 -0.7548  0.3361
 8269TIP3   OH246297   1.051   2.310   2.627  0.0496  0.2710  0.0199
 8269TIP3    H146298   1.101   2.367   2.684  0.3028  0.3162 -0.2432
 8269TIP3    H246299   0.960   2.326   2.651  0.1208  0.7287  0.0009
 8270TIP3   OH246300   6.582   4.379   0.667  0.6604 -0.4665 -0.3130
 8270TIP3    H146301   6.654   4.320   0.689  1.6268  1.1855  1.1839
 8270TIP3    H246302   6.625   4.456   0.630 -0.5778 -0.6210 -2.2589
 8271TIP3   OH246303   5.304   4.210   4.453  0.9614 -0.1406 -0.2380
 8271TIP3    H146304   5.264   4.240   4.535  0.4287 -0.8966 -0.2138
 8271TIP3    H246305   5.396   4.236   4.461  0.9832 -0.4620  0.7363
 8272TIP3   OH246306   5.233   3.740  12.238 -0.6932  0.0871  0.1259
 8272TIP3    H146307   5.223   3.669  12.302 -1.8084  0.4921  0.4314
 8272TIP3    H246308   5.144   3.773  12.225  0.0539  3.6379  2.5350
 8273TIP3   OH246309   1.755   1.263  10.740 -0.7976  0.6062 -0.1660
 8273TIP3    H146310   1.775   1.213  10.661  0.1813 -0.8441  0.9585
 8273TIP3    H246311   1.830   1.321  10.751  0.7477 -1.5714  1.4957
 8274TIP3   OH246312   3.719   6.528   4.374 -0.3194  0.2291  0.0377
 8274TIP3    H146313   3.763   6.577   4.443  1.4580  0.6676 -1.3481
 8274TIP3    H246314   3.790   6.488   4.324 -1.6575 -2.5985  0.2330
 8275TIP3   OH246315   0.356   4.347  12.971 -0.4579  0.3982  0.4073
 8275TIP3    H146316   0.274   4.362  13.018  0.8676  0.8508  2.7104
 8275TIP3    H246317   0.412   4.419  12.998  1.2380 -0.7840  0.1732
 8276TIP3   OH246318   3.761   4.093  16.771 -0.4514 -0.2735 -0.3592
 8276TIP3    H146319   3.847   4.050  16.768 -0.6722 -0.9937  1.7871
 8276TIP3    H246320   3.698   4.021  16.778 -1.0044  0.2859  0.7644
 8277TIP3   OH246321   1.385   4.086  15.954 -0.0097 -0.5577 -0.2443
 8277TIP3    H146322   1.360   3.996  15.977  0.1995 -0.4894  0.2700
 8277TIP3    H246323   1.467   4.101  16.002 -0.6807  0.3319  0.6603
 8278TIP3   OH246324   2.229   6.105  13.927 -0.0647  0.3966 -0.1300
 8278TIP3    H146325   2.142   6.078  13.956  0.7175 -1.8890  0.2922
 8278TIP3    H246326   2.232   6.084  13.834  0.8194 -1.9238  0.3654
 8279TIP3   OH246327   6.544   1.341  11.579  0.2297 -0.7666 -0.5051
 8279TIP3    H146328   6.624   1.315  11.532  1.1087 -0.6296  0.8724
 8279TIP3    H246329   6.498   1.258  11.595  1.8763 -1.3197  1.8134
 8280TIP3   OH246330   1.659   3.983   5.647 -0.1105  0.1089 -0.2706
 8280TIP3    H146331   1.682   3.912   5.707 -1.1343  2.0536  2.6337
 8280TIP3    H246332   1.654   3.941   5.561 -1.0122 -3.4091  1.3093
 8281TIP3   OH246333   5.350   0.805   4.325 -0.0447 -0.0164  0.0639
 8281TIP3    H146334   5.383   0.888   4.291 -0.1243  1.2524  2.7646
 8281TIP3    H246335   5.298   0.769   4.254  0.3760  2.0027 -1.3727
 8282TIP3   OH246336   2.989   5.963  13.704 -0.0388  0.1901  0.2713
 8282TIP3    H146337   2.897   5.959  13.732  0.5640  0.1817  2.4327
 8282TIP3    H246338   3.002   6.054  13.677 -0.6419  0.2296  0.1079
 8283TIP3   OH246339   5.285   0.453   5.527  0.1661 -0.2513 -0.0807
 8283TIP3    H146340   5.245   0.438   5.442 -0.1137 -1.3683  0.2267
 8283TIP3    H246341   5.344   0.527   5.514  0.9017 -1.0393 -1.5030
 8284TIP3   OH246342   1.262   1.332  14.405 -0.2185 -0.3957  0.6697
 8284TIP3    H146343   1.204   1.267  14.364 -2.2696  0.4023  2.1239
 8284TIP3    H246344   1.258   1.407  14.346  0.8360 -0.9772 -0.1677
 8285TIP3   OH246345   4.085   4.829   2.569 -1.2774 -0.4750 -0.2686
 8285TIP3    H146346   4.062   4.919   2.591  0.1436  0.1514 -1.2083
 8285TIP3    H246347   4.072   4.823   2.475 -0.7625 -1.0639 -0.3082
 8286TIP3   OH246348   0.692   1.744   1.499  0.4437 -0.5025  0.1737
 8286TIP3    H146349   0.635   1.669   1.486  0.1336 -0.4060  0.9412
 8286TIP3    H246350   0.774   1.720   1.455 -0.2777 -0.5071 -1.2208
 8287TIP3   OH246351   6.245   5.828  14.471  0.3537  0.0842  0.3888
 8287TIP3    H146352   6.272   5.858  14.558 -0.0893 -2.2613  1.4118
 8287TIP3    H246353   6.282   5.740  14.464  0.1515  0.1351 -1.7140
 8288TIP3   OH246354   0.032   2.909   1.208  0.4004  0.3211 -0.2073
 8288TIP3    H146355   0.066   2.983   1.259 -0.5470  1.3449 -1.0255
 8288TIP3    H246356  -0.025   2.949   1.143 -0.4746 -1.1788 -0.3958
 8289TIP3   OH246357   3.613   4.352   1.657 -0.0931 -0.4661  0.5052
 8289TIP3    H146358   3.581   4.344   1.567 -0.2041  1.3012  0.3531
 8289TIP3    H246359   3.535   4.367   1.710  0.0372 -0.8551  0.8169
 8290TIP3   OH246360   6.127   5.392   0.870  0.3696  0.3218  0.1281
 8290TIP3    H146361   6.138   5.474   0.822  1.3192  1.1524  1.6756
 8290TIP3    H246362   6.215   5.371   0.903  0.0203 -0.9851  0.2884
 8291TIP3   OH246363   6.499   2.671  15.775  0.4313  0.0614  0.0804
 8291TIP3    H146364   6.485   2.721  15.694 -0.9084  2.2646  1.5638
 8291TIP3    H246365   6.551   2.595  15.747  1.1969  1.4272 -2.5911
 8292TIP3   OH246366   5.659   0.840  13.128 -0.1048  0.1610 -0.0083
 8292TIP3    H146367   5.646   0.932  13.150 -1.1877 -0.0821  0.4538
 8292TIP3    H246368   5.610   0.828  13.046  0.7438  0.1861 -0.5246
 8293TIP3   OH246369   2.046   2.043  11.439  0.1640  0.2433 -0.6445
 8293TIP3    H146370   2.009   2.129  11.417  1.0749  0.4751 -1.3044
 8293TIP3    H246371   2.129   2.062  11.482  0.4951 -0.3102 -1.0255
 8294TIP3   OH246372   2.751   1.922   6.444 -0.3781 -0.6717 -0.1967
 8294TIP3    H146373   2.660   1.892   6.444 -0.7897  0.3262 -3.1878
 8294TIP3    H246374   2.750   2.000   6.500 -1.3398 -0.7086 -0.1445
 8295TIP3   OH246375   2.785   6.407  10.728 -0.0842  0.4998 -0.7215
 8295TIP3    H146376   2.782   6.314  10.706 -1.9703  0.1066  0.8983
 8295TIP3    H246377   2.878   6.430  10.723  0.4831 -1.5786 -0.6981
 8296TIP3   OH246378   4.080   2.455  17.054  0.3877  0.2825 -0.2392
 8296TIP3    H146379   4.093   2.509  16.976 -2.5301  0.3372 -0.8165
 8296TIP3    H246380   4.086   2.365  17.022  1.0467  0.2819 -0.1266
 8297TIP3   OH246381   1.449   1.086   1.087 -0.0248 -0.1032 -0.1113
 8297TIP3    H146382   1.495   1.143   1.149 -1.3687 -1.3943  2.2491
 8297TIP3    H246383   1.518   1.052   1.030  1.3099  1.0578  0.7323
 8298TIP3   OH246384   2.924   4.253  14.095 -0.3228  0.0249  0.0444
 8298TIP3    H146385   2.868   4.247  14.172 -1.8592 -0.7142 -1.0936
 8298TIP3    H246386   2.864   4.256  14.021  1.0757  1.9560 -1.0970
 8299TIP3   OH246387   0.258   2.619  16.554 -0.3316 -0.0050 -0.2754
 8299TIP3    H146388   0.354   2.614  16.562 -0.2542  0.1816 -1.0776
 8299TIP3    H246389   0.239   2.712  16.551 -0.5655 -0.0380  0.1100
 8300TIP3   OH246390   4.567   1.877  14.161  0.5311  0.1143 -1.2135
 8300TIP3    H146391   4.635   1.942  14.150 -0.4763  1.0796 -1.9771
 8300TIP3    H246392   4.485   1.925  14.150 -0.2664 -1.1351 -1.0257
 8301TIP3   OH246393   5.403   6.301  15.525  0.1929 -0.0726 -0.0112
 8301TIP3    H146394   5.410   6.258  15.611  0.2007 -1.5426 -0.7159
 8301TIP3    H246395   5.336   6.368  15.538 -0.5932 -0.9775  0.8907
 8302TIP3   OH246396   3.065   1.092  13.144 -0.3072  0.2831  0.3100
 8302TIP3    H146397   3.125   1.049  13.206 -1.1874  0.7618  1.5492
 8302TIP3    H246398   3.037   1.172  13.189 -1.9123  0.0441 -0.1742
 8303TIP3   OH246399   0.180   0.479   0.490 -0.0194  0.2666  0.3177
 8303TIP3    H146400   0.256   0.537   0.488  1.7791 -1.7864  2.5130
 8303TIP3    H246401   0.199   0.413   0.423  0.2581 -0.3478  0.9899
 8304TIP3   OH246402   1.997   3.725  15.627 -0.3604  0.7273  0.4676
 8304TIP3    H146403   1.984   3.757  15.717 -1.9709 -0.0804  0.5492
 8304TIP3    H246404   1.921   3.758  15.579  0.3980  0.9963 -0.5693
 8305TIP3   OH246405   5.816   3.848   0.251  0.2390 -0.0375 -0.3052
 8305TIP3    H146406   5.800   3.778   0.187  1.9237  1.1130 -2.0977
 8305TIP3    H246407   5.911   3.848   0.263  0.2009  1.5042  0.1772
 8306TIP3   OH246408   6.168   0.577  13.401 -0.2346 -0.6070  0.2895
 8306TIP3    H146409   6.117   0.525  13.462  1.4906 -2.5155  0.1863
 8306TIP3    H246410   6.238   0.616  13.454 -0.3244 -0.0228 -0.0043
 8307TIP3   OH246411   0.761   2.431  17.076 -0.2711 -0.0173  0.3492
 8307TIP3    H146412   0.721   2.345  17.085  1.9225 -1.1433 -0.0016
 8307TIP3    H246413   0.824   2.436  17.148 -0.7331  1.5368  0.6830
 8308TIP3   OH246414   3.627   4.708   1.498  0.1202 -0.0996  0.0969
 8308TIP3    H146415   3.679   4.643   1.544 -1.8263 -2.4533 -0.8211
 8308TIP3    H246416   3.639   4.687   1.405 -2.1293 -0.5386 -0.1532
 8309TIP3   OH246417   4.747   3.690  13.454 -0.0567 -0.1440  0.0815
 8309TIP3    H146418   4.746   3.783  13.476 -0.8676 -0.2389  0.4977
 8309TIP3    H246419   4.687   3.650  13.517  1.7216 -1.2403  1.1662
 8310TIP3   OH246420   2.111   5.138  12.380  0.3305  0.5779  0.4465
 8310TIP3    H146421   2.133   5.174  12.294  2.2321  0.2847  0.7684
 8310TIP3    H246422   2.019   5.111  12.372  0.5376  0.3190 -1.5601
 8311TIP3   OH246423   6.702   5.146   6.071  0.0366 -0.0135  0.1796
 8311TIP3    H146424   6.620   5.127   6.116 -0.1395 -1.4060 -0.6701
 8311TIP3    H246425   6.769   5.102   6.124  0.1182  0.2885  0.3299
 8312TIP3   OH246426   3.338   2.239   0.673 -0.2646  0.2382 -0.2296
 8312TIP3    H146427   3.415   2.198   0.634 -2.0591 -3.0103 -0.7215
 8312TIP3    H246428   3.336   2.208   0.763 -1.1311  0.0235 -0.3104
 8313TIP3   OH246429   5.204   1.585   5.135 -0.7900  0.2767 -0.0916
 8313TIP3    H146430   5.226   1.667   5.092 -0.4781  0.5110  0.5083
 8313TIP3    H246431   5.178   1.610   5.224 -0.8830 -0.2504  0.0342
 8314TIP3   OH246432   5.708   5.649  11.978  0.5580 -0.8600  0.5266
 8314TIP3    H146433   5.723   5.743  11.985  0.6768 -0.9030  0.8671
 8314TIP3    H246434   5.793   5.610  11.998  0.9903 -0.9944 -1.3793
 8315TIP3   OH246435   2.301   3.932   3.709  0.6137  0.3680 -0.1498
 8315TIP3    H146436   2.315   3.974   3.624 -0.9608 -0.0438 -0.6507
 8315TIP3    H246437   2.246   3.995   3.758 -1.3287 -0.7897 -0.7184
 8316TIP3   OH246438   3.772   1.625   4.607  0.0020  0.4281 -0.0936
 8316TIP3    H146439   3.865   1.618   4.584  0.3686  3.5079  0.0950
 8316TIP3    H246440   3.772   1.645   4.700 -0.8771  0.2444 -0.0508
 8317TIP3   OH246441   4.508   2.915  16.063  0.3885  0.5927 -0.1839
 8317TIP3    H146442   4.457   2.908  15.983 -2.8038 -0.6243  1.7730
 8317TIP3    H246443   4.469   2.989  16.110  0.9769  0.1568  1.0243
 8318TIP3   OH246444   2.166   1.830  10.847  0.2486  0.2252 -0.0768
 8318TIP3    H146445   2.100   1.798  10.786  1.4250  0.7791 -1.7258
 8318TIP3    H246446   2.230   1.759  10.852 -1.3796 -1.2209  3.1815
 8319TIP3   OH246447   1.048   2.805  16.631  0.0765 -0.6011 -0.2927
 8319TIP3    H146448   1.125   2.860  16.647  0.8994 -1.6240 -0.6191
 8319TIP3    H246449   1.058   2.774  16.541 -0.8365 -0.5657 -0.4164
 8320TIP3   OH246450   6.472   0.804  15.449  0.3010 -0.0855  0.0684
 8320TIP3    H146451   6.484   0.819  15.355  2.4616  1.5331  0.5407
 8320TIP3    H246452   6.446   0.890  15.484 -1.6251 -0.9236  0.8392
 8321TIP3   OH246453   5.848   4.669  15.584  0.0938 -0.4373  0.2122
 8321TIP3    H146454   5.766   4.633  15.552  0.3022  0.1990 -1.0879
 8321TIP3    H246455   5.869   4.616  15.662 -1.9056 -0.1026  1.0243
 8322TIP3   OH246456   1.806   0.837   4.841  0.3497 -0.5213  0.5673
 8322TIP3    H146457   1.822   0.846   4.747 -1.8963 -1.2307  0.0517
 8322TIP3    H246458   1.806   0.743   4.856  0.6659 -0.4123  1.3014
 8323TIP3   OH246459   6.084   3.577  16.800 -0.3242 -0.9291 -0.3680
 8323TIP3    H146460   6.173   3.580  16.834  0.0792  0.3823 -1.4576
 8323TIP3    H246461   6.034   3.635  16.857  0.3671  1.3258 -1.9106
 8324TIP3   OH246462   3.200   5.925  12.379  0.0140 -0.5657  0.1068
 8324TIP3    H146463   3.166   6.011  12.406 -0.0254 -0.8678  1.0438
 8324TIP3    H246464   3.168   5.865  12.446  2.5229 -0.8467  1.1348
 8325TIP3   OH246465   1.159   5.920   2.862  0.4179 -0.4795 -0.0573
 8325TIP3    H146466   1.159   5.918   2.958 -0.3900  0.7361 -0.0128
 8325TIP3    H246467   1.067   5.911   2.838  0.5568 -0.2321 -0.6922
 8326TIP3   OH246468   1.739   4.570  15.951 -0.1881 -0.1130 -0.3740
 8326TIP3    H146469   1.706   4.485  15.981 -0.7469 -0.1476 -1.0494
 8326TIP3    H246470   1.661   4.616  15.921  0.2561  0.2005 -1.0726
 8327TIP3   OH246471   2.845   5.772   3.898 -0.0484 -0.0335 -0.0489
 8327TIP3    H146472   2.787   5.759   3.823  0.0675  0.2234 -0.1851
 8327TIP3    H246473   2.787   5.793   3.971 -0.2759 -1.7243  0.2826
 8328TIP3   OH246474   6.146   6.509   2.525 -0.0050  0.2431 -0.3839
 8328TIP3    H146475   6.075   6.554   2.573  0.6069  0.3783  0.4244
 8328TIP3    H246476   6.104   6.432   2.488 -0.1439 -0.9150  1.9728
 8329TIP3   OH246477   1.816   4.103   2.739 -0.2228  0.3803  0.7984
 8329TIP3    H146478   1.766   4.114   2.820 -3.2520 -0.6956 -0.7368
 8329TIP3    H246479   1.840   4.192   2.713 -1.4347  0.9743  1.6264
 8330TIP3   OH246480   2.771   4.625  17.083  0.0854 -0.5668 -0.0256
 8330TIP3    H146481   2.820   4.566  17.026 -0.7690  1.9211 -3.6091
 8330TIP3    H246482   2.680   4.598  17.074 -0.0266 -0.4110  0.5602
 8331TIP3   OH246483   5.799   0.015   6.625  0.0445 -0.2658  0.2799
 8331TIP3    H146484   5.894   0.019   6.614 -0.0853  0.7876 -0.6010
 8331TIP3    H246485   5.776  -0.076   6.605  0.7228 -0.1957 -0.8875
 8332TIP3   OH246486   4.386   2.098  10.944  0.1328 -0.8945  0.1324
 8332TIP3    H146487   4.296   2.071  10.929 -1.2455  3.0373  0.1788
 8332TIP3    H246488   4.383   2.150  11.024  2.9070 -2.2774  1.2799
 8333TIP3   OH246489   1.162   1.595   4.698  0.6489  0.0435  0.2584
 8333TIP3    H146490   1.201   1.681   4.687 -0.4056  0.4290 -0.7774
 8333TIP3    H246491   1.146   1.588   4.792  0.7307  0.9887  0.3576
 8334TIP3   OH246492   6.612   0.149   2.609  0.4887  0.9313  0.2734
 8334TIP3    H146493   6.644   0.197   2.686  0.7667  1.3706 -0.1134
 8334TIP3    H246494   6.587   0.063   2.644  2.5573  0.3803  0.5337
 8335TIP3   OH246495   1.339   5.148   2.790 -0.3379 -0.3872  0.0359
 8335TIP3    H146496   1.413   5.094   2.764 -1.6028 -0.8225 -3.1230
 8335TIP3    H246497   1.345   5.226   2.735  0.1406  1.7638  2.8615
 8336TIP3   OH246498   0.434   5.225  16.695  0.9656  0.2828  0.2080
 8336TIP3    H146499   0.447   5.289  16.766  1.2315 -1.7193  2.0930
 8336TIP3    H246500   0.340   5.208  16.695  0.7602  1.3284 -0.9382
 8337TIP3   OH246501   6.498   3.101   2.063  0.6304  0.3338 -0.3346
 8337TIP3    H146502   6.575   3.057   2.100  0.9277  0.6872 -0.5267
 8337TIP3    H246503   6.427   3.037   2.071  0.2404  0.9754  2.4879
 8338TIP3   OH246504   6.406   5.653   1.108  0.1848 -0.0381 -0.1715
 8338TIP3    H146505   6.419   5.561   1.087  0.4522  0.1286 -0.7720
 8338TIP3    H246506   6.312   5.661   1.125  0.1323 -0.3821 -0.2971
 8339TIP3   OH246507   3.692   3.043   1.017 -0.2748  0.5794 -0.7534
 8339TIP3    H146508   3.764   2.980   1.011 -0.5464  0.1494  0.3657
 8339TIP3    H246509   3.709   3.092   1.097  0.1157  2.1911 -1.7872
 8340TIP3   OH246510   5.311   1.282   2.152 -0.2758 -0.1381 -0.2697
 8340TIP3    H146511   5.379   1.329   2.199  0.7832 -1.6360 -0.2455
 8340TIP3    H246512   5.234   1.287   2.209  0.0505  0.8371  0.0939
 8341TIP3   OH246513   3.405   4.026  14.246  0.4239  0.5295  0.5827
 8341TIP3    H146514   3.400   3.973  14.167 -2.7395 -0.9024  1.5885
 8341TIP3    H246515   3.339   4.094  14.234  0.9027  1.1617  1.4166
 8342TIP3   OH246516   2.785   6.733   6.079 -0.1436 -0.3645 -0.1059
 8342TIP3    H146517   2.851   6.704   6.142 -0.7528  0.8480  1.1296
 8342TIP3    H246518   2.719   6.664   6.081 -0.3004 -0.2003  0.8203
 8343TIP3   OH246519   0.968   6.514   1.787  0.4955 -0.5111 -0.8186
 8343TIP3    H146520   0.996   6.581   1.849 -0.7550 -0.4642 -0.2705
 8343TIP3    H246521   0.949   6.563   1.707 -1.9740  0.1121  0.0439
 8344TIP3   OH246522   3.724   3.131   2.208 -0.0046 -0.2388 -0.1003
 8344TIP3    H146523   3.708   3.221   2.181  0.5733  0.6508  2.2980
 8344TIP3    H246524   3.650   3.109   2.265  0.7367 -0.6531  0.7231
 8345TIP3   OH246525   1.187   2.773   2.208  0.1124  0.0579  0.2914
 8345TIP3    H146526   1.143   2.722   2.140  0.1346  1.9720 -1.2370
 8345TIP3    H246527   1.280   2.761   2.191  0.1169  0.8825 -0.3210
 8346TIP3   OH246528   4.907   5.393   2.782 -0.2397 -0.1871  0.4322
 8346TIP3    H146529   4.816   5.397   2.812  0.3866  0.9683  2.2989
 8346TIP3    H246530   4.959   5.396   2.862  1.5245  2.3479 -0.6900
 8347TIP3   OH246531   1.775   6.122   5.286 -0.2503  0.1915 -0.5832
 8347TIP3    H146532   1.712   6.166   5.343 -0.3808  0.5390 -0.9905
 8347TIP3    H246533   1.782   6.034   5.322  0.4428  0.7042  0.5940
 8348TIP3   OH246534   4.088   2.710   2.303  0.1486  0.6315  0.0849
 8348TIP3    H146535   4.127   2.637   2.255  0.8038  1.0329 -0.0088
 8348TIP3    H246536   4.158   2.775   2.310  0.1957  0.4274  1.9573
 8349TIP3   OH246537   4.174   0.669   1.370 -0.0816 -0.1049 -0.1204
 8349TIP3    H146538   4.193   0.619   1.450  0.2191  0.3582  0.1039
 8349TIP3    H246539   4.137   0.605   1.310  0.1709 -0.5703  0.2114
 8350TIP3   OH246540   0.411   3.281  13.807 -0.3113  0.1925 -0.0450
 8350TIP3    H146541   0.316   3.280  13.809 -0.3282 -1.1130 -0.4264
 8350TIP3    H246542   0.434   3.263  13.716  0.3053  0.9014 -0.0425
 8351TIP3   OH246543   3.658   1.817  13.189 -0.2075  0.4760  0.3078
 8351TIP3    H146544   3.628   1.825  13.098  1.1865 -0.3839 -0.2517
 8351TIP3    H246545   3.615   1.889  13.235  1.3102  2.7589 -1.6257
 8352TIP3   OH246546   2.585   5.343   1.906 -0.2210 -0.4684  0.4612
 8352TIP3    H146547   2.580   5.292   1.987  3.2612 -2.5137 -0.4263
 8352TIP3    H246548   2.573   5.279   1.836 -1.4599  0.9748 -0.7264
 8353TIP3   OH246549   2.352   0.685   3.496  0.1614 -0.4477 -0.6031
 8353TIP3    H146550   2.397   0.608   3.531  2.3942  0.5191 -1.1582
 8353TIP3    H246551   2.423   0.747   3.476 -1.4700  1.2999 -1.2786
 8354TIP3   OH246552   2.112   0.306   3.134 -0.0940 -0.4874 -0.2440
 8354TIP3    H146553   2.204   0.294   3.109  0.1726 -1.0450  0.9223
 8354TIP3    H246554   2.074   0.218   3.127 -1.1262  0.0685 -2.7722
 8355TIP3   OH246555   2.773   4.992   1.324 -0.1849  0.5246 -0.0442
 8355TIP3    H146556   2.744   4.910   1.364 -0.0419  0.4327 -0.1291
 8355TIP3    H246557   2.866   4.979   1.307 -0.1640  0.7017 -0.0659
 8356TIP3   OH246558   4.125   5.203  11.229 -0.1496 -0.8717  0.3069
 8356TIP3    H146559   4.135   5.293  11.198 -0.9014 -0.7085  0.5009
 8356TIP3    H246560   4.169   5.202  11.315 -0.0539 -0.7176  0.2599
 8357TIP3   OH246561   2.468   3.042  15.383 -0.3095 -0.9075 -0.4677
 8357TIP3    H146562   2.410   3.107  15.343 -1.0961 -2.8470 -2.7041
 8357TIP3    H246563   2.553   3.087  15.388 -1.2419  0.9239 -0.0499
 8358TIP3   OH246564   2.758   1.475  11.520  0.5641  0.3994  0.3041
 8358TIP3    H146565   2.843   1.451  11.557  1.6711  1.3976 -1.4755
 8358TIP3    H246566   2.754   1.432  11.435 -0.2016  1.3087 -0.1466
 8359TIP3   OH246567   2.817   4.249  12.121 -0.2777 -0.1094 -0.0572
 8359TIP3    H146568   2.876   4.207  12.183  0.0940 -0.1851 -0.4544
 8359TIP3    H246569   2.731   4.212  12.140 -0.0836 -0.4873  0.0944
 8360TIP3   OH246570   2.488   1.523  15.956 -0.1416  0.3623  0.3776
 8360TIP3    H146571   2.470   1.430  15.940 -0.3911  0.2184  1.3754
 8360TIP3    H246572   2.572   1.540  15.913 -0.5328 -0.0929 -0.5797
 8361TIP3   OH246573   6.125   5.866  13.547  0.1104  0.5125  0.2468
 8361TIP3    H146574   6.121   5.771  13.560 -3.0577  0.3900 -0.7689
 8361TIP3    H246575   6.178   5.897  13.620  0.1609 -1.9215  1.3634
 8362TIP3   OH246576   2.368   1.981   5.743  0.0306 -0.0242  0.2506
 8362TIP3    H146577   2.291   1.947   5.789  0.6142  2.0307  3.0002
 8362TIP3    H246578   2.426   2.011   5.812  1.9729  1.3132 -1.8214
 8363TIP3   OH246579   5.886   3.648   2.943 -0.1356  0.6184 -0.3380
 8363TIP3    H146580   5.883   3.583   3.012  1.5877 -1.8474 -2.3842
 8363TIP3    H246581   5.977   3.676   2.939 -0.3627  1.3135 -1.0949
 8364TIP3   OH246582   0.440   1.869   2.879 -0.2334  0.0870 -0.7389
 8364TIP3    H146583   0.451   1.939   2.815 -0.3933  1.0666  0.2745
 8364TIP3    H246584   0.526   1.860   2.920 -0.1033 -0.6104 -1.1391
 8365TIP3   OH246585   4.118   6.257   1.392  0.5197  0.5896 -0.7249
 8365TIP3    H146586   4.083   6.220   1.473 -1.9434  1.5744 -1.2524
 8365TIP3    H246587   4.205   6.290   1.416  0.2756 -0.0585  1.2294
 8366TIP3   OH246588   2.953   1.698   5.889 -0.1508  0.3944 -0.0767
 8366TIP3    H146589   2.938   1.652   5.971  1.4757 -1.0411 -0.5302
 8366TIP3    H246590   2.866   1.719   5.857 -0.8868 -1.0724  0.8873
 8367TIP3   OH246591   3.886   0.419   4.120 -0.2995  0.0544 -0.5249
 8367TIP3    H146592   3.926   0.343   4.162 -2.3608 -1.2290 -0.7371
 8367TIP3    H246593   3.858   0.474   4.193  0.4935  0.2399 -0.3501
 8368TIP3   OH246594   4.078   1.694  16.309 -0.3754 -0.1994 -0.1179
 8368TIP3    H146595   4.070   1.612  16.259 -3.1328 -0.8441  1.1846
 8368TIP3    H246596   4.004   1.747  16.279 -0.7089  0.3351  1.5499
 8369TIP3   OH246597   4.343   1.482  15.557  0.6068  0.0787 -0.4216
 8369TIP3    H146598   4.307   1.403  15.517  1.3149  0.1955 -1.3289
 8369TIP3    H246599   4.367   1.538  15.483 -0.1682  1.2890  0.2048
 8370TIP3   OH246600   2.794   3.350   2.365 -0.7049  0.2249 -0.0026
 8370TIP3    H146601   2.786   3.405   2.442  0.0826  0.3253  0.0147
 8370TIP3    H246602   2.888   3.340   2.351 -0.8323 -0.0852 -0.7402
 8371TIP3   OH246603   5.380   6.358  13.028  0.5052 -0.2415  0.5266
 8371TIP3    H146604   5.428   6.337  13.108  2.1305  0.9202 -0.0846
 8371TIP3    H246605   5.413   6.443  13.001  0.3609 -0.7876 -1.6192
 8372TIP3   OH246606   5.595   5.777  13.824  0.3484  0.4035  0.5636
 8372TIP3    H146607   5.607   5.695  13.777 -1.5329 -0.0030  0.7199
 8372TIP3    H246608   5.675   5.827  13.806  1.3962 -1.3252  0.2375
 8373TIP3   OH246609   2.510   6.661   0.322 -0.4643 -0.2639  0.2942
 8373TIP3    H146610   2.576   6.720   0.358 -0.9597 -0.8076  2.2377
 8373TIP3    H246611   2.497   6.691   0.232  1.6250  0.5274  0.1895
 8374TIP3   OH246612   5.064   3.416   4.738 -0.4387  0.0686  0.1753
 8374TIP3    H146613   5.125   3.473   4.786 -0.7345  0.0386  0.5939
 8374TIP3    H246614   4.996   3.476   4.707 -0.4627  0.0241  0.1424
 8375TIP3   OH246615   4.639   0.667  13.442  0.1207  0.0338  0.5013
 8375TIP3    H146616   4.589   0.747  13.427  0.1301 -0.1946 -0.9174
 8375TIP3    H246617   4.577   0.596  13.429  0.6209 -0.2314 -0.6274
 8376TIP3   OH246618   5.193   1.082   5.524  0.0213 -0.7614 -0.1627
 8376TIP3    H146619   5.224   1.129   5.447  0.5934  0.1025  0.5756
 8376TIP3    H246620   5.114   1.129   5.550  2.3184  2.0365  2.5201
 8377TIP3   OH246621   0.199   5.159   0.469 -0.4083 -0.2655 -0.3290
 8377TIP3    H146622   0.245   5.152   0.552  0.8033  0.0832 -0.9470
 8377TIP3    H246623   0.269   5.167   0.403 -1.1617 -3.4500 -1.7342
 8378TIP3   OH246624   1.698   2.676   5.776 -0.6548 -0.4582 -0.6574
 8378TIP3    H146625   1.662   2.598   5.818  0.0227 -0.6083 -0.3321
 8378TIP3    H246626   1.781   2.691   5.822 -1.5217  1.4295  0.4204
 8379TIP3   OH246627   5.700   2.639   3.751 -0.1870  0.1385  0.0628
 8379TIP3    H146628   5.615   2.681   3.755 -1.3428 -1.7109 -2.3797
 8379TIP3    H246629   5.745   2.681   3.677 -0.4135 -1.1681 -0.8615
 8380TIP3   OH246630   4.240   0.182   3.950  0.0171  0.2467 -0.4980
 8380TIP3    H146631   4.151   0.152   3.928 -0.2150 -0.8476  1.6897
 8380TIP3    H246632   4.270   0.121   4.017  1.0410  2.7067  1.4303
 8381TIP3   OH246633   0.608   3.482  12.071  0.1091  0.8683  0.7200
 8381TIP3    H146634   0.526   3.525  12.047 -1.0500 -0.4687  2.0384
 8381TIP3    H246635   0.676   3.542  12.043 -1.2906  1.8242 -0.8587
 8382TIP3   OH246636   2.946   2.892   2.513  0.0096  0.1374  0.3776
 8382TIP3    H146637   2.870   2.916   2.566 -1.1495 -0.1762 -1.0411
 8382TIP3    H246638   3.020   2.937   2.553 -1.0731  1.1167  1.3401
 8383TIP3   OH246639   3.791   2.434   5.321  0.4585 -0.3912  0.4204
 8383TIP3    H146640   3.839   2.384   5.387 -1.3570 -0.0427  2.1036
 8383TIP3    H246641   3.699   2.412   5.337 -0.3820  2.9172  0.7837
 8384TIP3   OH246642   5.454   5.791   0.519 -0.0132  0.0574  0.1553
 8384TIP3    H146643   5.456   5.759   0.609 -0.9097  1.2234  0.6253
 8384TIP3    H246644   5.362   5.786   0.494  0.0864  0.6457 -0.3500
 8385TIP3   OH246645   4.284   4.343  17.120 -0.5571 -0.4237 -0.2331
 8385TIP3    H146646   4.348   4.367  17.054  0.1416  0.5071  0.7402
 8385TIP3    H246647   4.211   4.404  17.107  0.0997  0.5798  0.5818
 8386TIP3   OH246648   1.393   2.950  12.342 -0.5282  0.3317 -0.4547
 8386TIP3    H146649   1.327   2.908  12.285 -0.3080  0.9727 -1.1914
 8386TIP3    H246650   1.345   2.971  12.422 -1.7571  2.5154 -1.6839
 8387TIP3   OH246651   4.445   4.199   5.814  0.1723  0.5148  0.0954
 8387TIP3    H146652   4.532   4.223   5.784  0.1106  0.6426  0.0164
 8387TIP3    H246653   4.452   4.197   5.909  0.3379  0.2238  0.0755
 8388TIP3   OH246654   2.304   4.100  12.196 -0.2579  0.1556 -0.3807
 8388TIP3    H146655   2.213   4.085  12.222  0.1625  0.9022  1.7343
 8388TIP3    H246656   2.304   4.087  12.101 -2.3903 -0.6486 -0.3346
 8389TIP3   OH246657   5.533   1.734  11.320  0.0214  0.3618  0.3663
 8389TIP3    H146658   5.560   1.693  11.402  1.5715  0.6269  0.0319
 8389TIP3    H246659   5.614   1.739  11.268 -1.0173 -0.3045 -1.4067
 8390TIP3   OH246660   4.556   5.785   6.780  0.4369 -0.2900  0.3176
 8390TIP3    H146661   4.626   5.728   6.750 -0.7777 -0.9578 -1.3942
 8390TIP3    H246662   4.482   5.764   6.724 -0.7574  1.3238  1.1969
 8391TIP3   OH246663   0.250   3.847  14.613  0.9411  0.3101  0.4208
 8391TIP3    H146664   0.241   3.753  14.628  2.4179  0.1434  0.4763
 8391TIP3    H246665   0.202   3.888  14.684 -1.7563 -0.3392 -0.9103
 8392TIP3   OH246666   0.621   3.357  11.809 -0.0998  0.3013  0.0499
 8392TIP3    H146667   0.705   3.350  11.763  0.1555 -0.9427  0.6625
 8392TIP3    H246668   0.640   3.412  11.884 -0.5311  2.3905 -1.3012
 8393TIP3   OH246669   2.811   4.480  12.251  0.1862 -0.1520 -0.5921
 8393TIP3    H146670   2.798   4.422  12.176 -2.8113  1.0884 -1.1600
 8393TIP3    H246671   2.755   4.445  12.319 -0.1586  0.9613 -0.2816
 8394TIP3   OH246672   4.473   4.868   1.607  0.2045 -0.3302 -0.1356
 8394TIP3    H146673   4.455   4.961   1.622 -1.2617 -0.5728 -0.1644
 8394TIP3    H246674   4.525   4.841   1.682  1.2957  0.6626 -0.4988
 8395TIP3   OH246675   2.429   1.318   4.955  0.1140 -0.1834 -0.1014
 8395TIP3    H146676   2.403   1.410   4.962  1.9817  0.4137 -0.4685
 8395TIP3    H246677   2.420   1.298   4.861 -0.3703 -0.4160 -0.0090
 8396TIP3   OH246678   2.378   6.034   1.628 -0.0844  0.0623 -0.2002
 8396TIP3    H146679   2.429   5.972   1.576  0.6496  0.8349 -0.4328
 8396TIP3    H246680   2.438   6.063   1.697  0.0510  1.4666 -0.8550
 8397TIP3   OH246681   0.117   5.676  11.441  0.2232 -0.1153 -0.2402
 8397TIP3    H146682   0.133   5.582  11.437  0.5200 -0.0210 -2.0858
 8397TIP3    H246683   0.148   5.702  11.528 -2.3692 -2.1169  1.4270
 8398TIP3   OH246684   5.788   3.491  17.082 -0.4231  0.1778 -0.5033
 8398TIP3    H146685   5.823   3.564  17.133 -0.7698  1.0161 -1.4296
 8398TIP3    H246686   5.724   3.450  17.141 -1.6159  1.7923 -0.5925
 8399TIP3   OH246687   1.578   1.652  15.488 -0.0820 -0.3258 -0.5253
 8399TIP3    H146688   1.491   1.624  15.518 -0.0689 -1.2783 -1.3344
 8399TIP3    H246689   1.559   1.713  15.416 -0.1045  1.5764  1.0316
 8400TIP3   OH246690   4.050   1.110   3.218 -0.2859  0.1870  0.3862
 8400TIP3    H146691   4.014   1.064   3.142  1.2628 -0.1098 -0.1988
 8400TIP3    H246692   4.050   1.202   3.192 -1.6011  0.3232  0.8149
 8401TIP3   OH246693   1.607   5.417   5.780  0.3177 -0.0010 -0.0242
 8401TIP3    H146694   1.645   5.330   5.791 -0.9987 -0.5105  0.6860
 8401TIP3    H246695   1.517   5.401   5.753  0.7013  1.1835 -2.2276
 8402TIP3   OH246696   1.786   1.837  13.965 -0.0121 -0.2723 -0.1469
 8402TIP3    H146697   1.774   1.742  13.953  0.0156 -0.0835 -1.8814
 8402TIP3    H246698   1.790   1.848  14.060  0.0935 -2.0258  0.0941
 8403TIP3   OH246699   5.098   3.895  10.687 -0.5329  0.1568 -0.3568
 8403TIP3    H146700   5.047   3.835  10.742 -0.7894 -0.0636 -0.8276
 8403TIP3    H246701   5.054   3.979  10.697 -1.0507 -0.0463 -0.8183
 8404TIP3   OH246702   1.160   2.977   3.490  0.2446 -0.0851  0.1159
 8404TIP3    H146703   1.220   3.041   3.528  2.7037 -1.5149 -1.1420
 8404TIP3    H246704   1.074   3.019   3.495  1.6350  3.0494 -0.1204
 8405TIP3   OH246705   4.265   3.772  15.429 -0.8266  0.2987 -0.0565
 8405TIP3    H146706   4.223   3.841  15.378  1.2433  1.4385 -0.3361
 8405TIP3    H246707   4.329   3.733  15.368 -0.9669 -0.9024  0.5389
 8406TIP3   OH246708   1.213   4.699   5.531  0.1409  0.0414  0.2952
 8406TIP3    H146709   1.284   4.648   5.493  1.0989  0.8794  0.9056
 8406TIP3    H246710   1.171   4.639   5.592 -0.0127 -0.6202 -0.4461
 8407TIP3   OH246711   1.416   0.864   4.844  0.2516 -0.5872 -0.1681
 8407TIP3    H146712   1.481   0.903   4.902 -0.8346  3.8260 -1.5052
 8407TIP3    H246713   1.460   0.855   4.760  0.3289 -1.8820 -0.0071
 8408TIP3   OH246714   3.526   3.550   0.841  0.3714 -0.2720  0.3195
 8408TIP3    H146715   3.439   3.588   0.853  0.5718 -0.2462  1.9475
 8408TIP3    H246716   3.509   3.457   0.828  0.0609 -0.1538 -0.1404
 8409TIP3   OH246717   5.130   6.805   4.911 -0.1788  0.0319  0.1676
 8409TIP3    H146718   5.099   6.741   4.975 -0.6363 -0.0890 -0.1694
 8409TIP3    H246719   5.074   6.791   4.834 -2.1143  2.5726  0.9717
 8410TIP3   OH246720   0.899   5.460   3.519  0.1742 -0.3316 -0.5580
 8410TIP3    H146721   0.983   5.504   3.527 -0.1831  0.4230 -0.8648
 8410TIP3    H246722   0.918   5.368   3.536  0.5349  0.2172  2.5090
 8411TIP3   OH246723   3.979   2.761  12.010 -0.1731  0.1393 -0.1221
 8411TIP3    H146724   3.948   2.679  12.049  0.2376 -0.2811 -0.6492
 8411TIP3    H246725   3.971   2.826  12.079  1.1416 -0.7121  0.8740
 8412TIP3   OH246726   4.353   5.659  12.737 -0.5284  0.1695  0.0463
 8412TIP3    H146727   4.434   5.693  12.773  0.8766 -2.5021 -0.3010
 8412TIP3    H246728   4.289   5.729  12.749  1.5263  1.9184  1.4021
 8413TIP3   OH246729   6.365   1.493   2.463 -0.8546 -0.3351 -1.0936
 8413TIP3    H146730   6.347   1.441   2.542 -1.3599  0.6623 -0.5336
 8413TIP3    H246731   6.454   1.468   2.438 -0.6422 -0.5758 -0.1368
 8414TIP3   OH246732   2.023   0.280  14.751  0.2738  0.2149  0.2567
 8414TIP3    H146733   2.093   0.232  14.708  0.6838  0.5407  0.5551
 8414TIP3    H246734   1.979   0.215  14.806  0.6147  0.1025  0.3989
 8415TIP3   OH246735   0.128   4.275  12.400 -0.2172 -0.3810 -0.6536
 8415TIP3    H146736   0.190   4.275  12.473 -1.2018 -2.3116  0.2831
 8415TIP3    H246737   0.043   4.287  12.442 -0.9183 -2.7048 -1.2742
 8416TIP3   OH246738   4.717   1.352   2.335 -0.3373  0.3166  0.1817
 8416TIP3    H146739   4.665   1.357   2.254 -1.9882  0.4086  1.1991
 8416TIP3    H246740   4.794   1.405   2.318 -0.4116 -0.0644 -1.5047
 8417TIP3   OH246741   0.036   1.291  14.938  0.1917 -0.3666 -0.1086
 8417TIP3    H146742   0.049   1.317  14.846 -0.6200 -3.8653 -1.3520
 8417TIP3    H246743  -0.035   1.347  14.968  0.0097  0.4190 -1.8414
 8418TIP3   OH246744   6.732   1.371   6.835  1.3938  0.2802 -0.2848
 8418TIP3    H146745   6.818   1.413   6.845  1.9552 -0.7182 -0.7661
 8418TIP3    H246746   6.734   1.333   6.747 -0.1432  1.5381 -0.9205
 8419TIP3   OH246747   0.102   3.715  16.054 -0.0916  0.2889  0.2218
 8419TIP3    H146748   0.047   3.660  15.998  0.1002 -0.4966  0.7734
 8419TIP3    H246749   0.181   3.731  16.003 -0.4205  0.6016 -0.1938
 8420TIP3   OH246750   5.125   6.453  12.015  0.1870 -0.9353 -0.0556
 8420TIP3    H146751   5.204   6.506  12.005  1.0931 -1.7077  2.2926
 8420TIP3    H246752   5.053   6.511  11.990  1.4673 -0.2349 -2.3091
 8421TIP3   OH246753   2.222   0.603  12.933 -0.1082  0.1253 -0.0474
 8421TIP3    H146754   2.226   0.523  12.881 -1.7709 -0.7394  1.0550
 8421TIP3    H246755   2.264   0.580  13.016 -0.9214  0.2596  0.4139
 8422TIP3   OH246756   4.770   2.839   5.261 -0.1098 -0.4626  0.0672
 8422TIP3    H146757   4.676   2.848   5.250 -0.3504 -0.3304  1.9038
 8422TIP3    H246758   4.804   2.927   5.244 -0.2755 -0.5415 -0.7347
 8423TIP3   OH246759   4.467   4.621   0.402  0.2469  0.1246  0.2167
 8423TIP3    H146760   4.378   4.650   0.380  0.0063 -0.4364  0.4493
 8423TIP3    H246761   4.478   4.539   0.355 -0.2240 -1.0404  2.0732
 8424TIP3   OH246762   4.956   3.616  12.585  0.0903 -0.1801 -0.4968
 8424TIP3    H146763   5.001   3.564  12.519 -1.3761 -0.6260 -1.1775
 8424TIP3    H246764   5.004   3.598  12.666  0.6756 -1.2144 -1.0535
 8425TIP3   OH246765   1.148   6.574  13.044 -0.1459 -0.3792 -0.4675
 8425TIP3    H146766   1.078   6.621  12.997 -0.2325  1.7518  1.6334
 8425TIP3    H246767   1.204   6.539  12.974 -1.7936  0.1962 -2.1701
 8426TIP3   OH246768   6.722   6.044   2.281  0.0716  0.1915  0.2068
 8426TIP3    H146769   6.664   6.092   2.340  0.5072 -0.3593  1.1161
 8426TIP3    H246770   6.807   6.043   2.326  0.5381  0.1480 -0.6501
 8427TIP3   OH246771   4.232   6.101  12.501  0.1228  0.2236 -0.6095
 8427TIP3    H146772   4.325   6.123  12.513  0.4761  0.1385 -2.8544
 8427TIP3    H246773   4.186   6.163  12.558  1.4746  1.7891 -1.1232
 8428TIP3   OH246774   2.194   2.065   4.719  0.3842 -0.8403  0.6652
 8428TIP3    H146775   2.191   1.978   4.759  0.4257 -0.8544  0.6372
 8428TIP3    H246776   2.287   2.085   4.711  0.4635  0.5329  3.5358
 8429TIP3   OH246777   1.961   4.215  16.188 -0.4286  0.1494  0.1355
 8429TIP3    H146778   2.034   4.152  16.187 -0.8940 -0.3907 -0.5266
 8429TIP3    H246779   1.929   4.216  16.098 -3.4602 -2.2553  1.0156
 8430TIP3   OH246780   1.012   5.530  11.092  0.1807 -0.5174 -0.0209
 8430TIP3    H146781   0.975   5.612  11.124 -2.3696 -0.7951 -1.9684
 8430TIP3    H246782   1.083   5.557  11.034 -0.4811  0.3278 -0.4657
 8431TIP3   OH246783   2.726   0.770  13.735 -0.1673  0.9400  0.3460
 8431TIP3    H146784   2.691   0.753  13.648  2.2821 -1.9055 -0.2302
 8431TIP3    H246785   2.649   0.774  13.792 -1.6371 -1.0850 -1.3697
 8432TIP3   OH246786   5.325   0.138  11.119  0.4185  0.5942 -0.5338
 8432TIP3    H146787   5.304   0.045  11.111 -1.0296  0.7669  0.8022
 8432TIP3    H246788   5.420   0.142  11.113  0.5877 -1.0970  0.4098
 8433TIP3   OH246789   4.091   4.297   5.782 -0.4626 -0.1889  0.8351
 8433TIP3    H146790   4.175   4.343   5.780  0.1084 -1.1952  1.1030
 8433TIP3    H246791   4.029   4.361   5.747  0.5506  0.2941 -0.1879
 8434TIP3   OH246792   5.501   4.860  17.119 -0.3413 -0.2217 -0.1430
 8434TIP3    H146793   5.536   4.935  17.167 -3.3901  2.5973 -1.9592
 8434TIP3    H246794   5.433   4.824  17.176 -0.5154 -0.0571 -0.2449
 8435TIP3   OH246795   1.313   6.598   5.760 -1.1304  0.2902  0.0268
 8435TIP3    H146796   1.346   6.518   5.720 -2.8354 -0.0671 -0.7391
 8435TIP3    H246797   1.392   6.647   5.784  0.0107 -2.2444  1.9094
 8436TIP3   OH246798   2.614   2.240  14.417  0.2524  0.5443 -0.3531
 8436TIP3    H146799   2.575   2.210  14.335 -2.6900 -0.9728  1.4496
 8436TIP3    H246800   2.542   2.245  14.478  2.7224 -1.9431  3.1562
 8437TIP3   OH246801   2.760   2.944   1.793  0.2756  0.0290  0.2966
 8437TIP3    H146802   2.788   2.877   1.856  0.6519 -0.2957 -0.2019
 8437TIP3    H246803   2.665   2.947   1.801  0.2534 -0.5961  0.3034
 8438TIP3   OH246804   2.326   5.984   1.015 -0.0975 -0.2858 -0.1277
 8438TIP3    H146805   2.348   6.075   1.033  1.9612 -0.8322  0.3508
 8438TIP3    H246806   2.361   5.967   0.928  3.0673 -1.5995  1.2534
 8439TIP3   OH246807   0.838   0.658   5.520 -0.1252  0.7312 -0.1426
 8439TIP3    H146808   0.901   0.663   5.448  0.1740  0.4646  0.0970
 8439TIP3    H246809   0.755   0.687   5.482  0.2265  1.4785 -0.3609
 8440TIP3   OH246810   0.935   0.458   5.089  0.1201 -0.3296 -0.7513
 8440TIP3    H146811   0.881   0.393   5.134 -0.1350  0.9946  0.9510
 8440TIP3    H246812   0.873   0.507   5.035  0.0621 -0.5179 -0.8563
 8441TIP3   OH246813   0.150   5.097  11.191  0.4349  0.1283 -0.1812
 8441TIP3    H146814   0.077   5.089  11.252 -0.2496  0.7436 -0.8977
 8441TIP3    H246815   0.194   5.012  11.196 -0.3215 -0.2557  0.2746
 8442TIP3   OH246816   1.901   1.652   2.798  0.0991 -0.2859  0.1508
 8442TIP3    H146817   1.828   1.695   2.754 -0.1733  0.9638  1.7321
 8442TIP3    H246818   1.974   1.712   2.787  0.4976 -0.8232 -0.1465
 8443TIP3   OH246819   2.246   1.894  12.264  0.0556 -0.2071  0.3291
 8443TIP3    H146820   2.180   1.920  12.200  0.8484 -0.3473 -0.5638
 8443TIP3    H246821   2.330   1.901  12.217  0.8225  1.2582  1.8413
 8444TIP3   OH246822   3.073   0.399  16.638  0.5728  0.2456  0.7517
 8444TIP3    H146823   3.120   0.482  16.654  1.0824  0.0954  0.1056
 8444TIP3    H246824   3.082   0.385  16.543 -1.0511  0.3615  0.5606
 8445TIP3   OH246825   2.126   5.953   1.551 -0.2517 -0.0139 -0.1900
 8445TIP3    H146826   2.190   5.988   1.613 -1.2255  1.1114  0.2287
 8445TIP3    H246827   2.050   5.931   1.605 -1.1266  1.0203 -0.9459
 8446TIP3   OH246828   6.130   6.569  15.883 -0.2461  0.0060 -0.2961
 8446TIP3    H146829   6.198   6.531  15.939 -0.6777 -1.1593 -0.5379
 8446TIP3    H246830   6.050   6.564  15.936 -0.0107  2.3455  0.4087
 8447TIP3   OH246831   5.544   2.012  15.235  0.6324 -0.0877 -0.3143
 8447TIP3    H146832   5.609   2.025  15.304  0.4297 -1.5394  0.1849
 8447TIP3    H246833   5.476   1.959  15.276  0.2910 -0.5992 -1.5089
 8448TIP3   OH246834   0.703   5.083  12.386  0.2106 -0.2967  0.5479
 8448TIP3    H146835   0.735   5.156  12.333 -0.7227 -0.9023 -0.9261
 8448TIP3    H246836   0.769   5.071  12.454  1.3103  0.7154 -0.3022
 8449TIP3   OH246837   6.120   2.801   3.970  0.4685 -0.4346  0.1698
 8449TIP3    H146838   6.024   2.796   3.971  0.3503  1.0854 -0.0722
 8449TIP3    H246839   6.139   2.859   3.896  1.5885 -0.8754  0.1033
 8450TIP3   OH246840   3.912   6.693   2.763 -0.2054  0.3409 -0.3449
 8450TIP3    H146841   3.856   6.719   2.691 -0.3365  0.9639 -0.0242
 8450TIP3    H246842   3.866   6.721   2.842  0.4039  0.5883 -0.0639
 8451TIP3   OH246843   4.396   6.377   3.151 -0.3712  0.1833  0.8099
 8451TIP3    H146844   4.302   6.389   3.158 -0.1289  1.2725  4.2429
 8451TIP3    H246845   4.408   6.286   3.125 -2.2670  0.7058 -2.3917
 8452TIP3   OH246846   3.450   3.764   4.941  0.4675  0.2855 -0.0444
 8452TIP3    H146847   3.422   3.851   4.969 -0.0694  0.1141 -0.0323
 8452TIP3    H246848   3.385   3.738   4.875  0.4189 -0.2508  0.2117
 8453TIP3   OH246849   4.093   4.285   1.219 -0.3000  0.6776 -0.2567
 8453TIP3    H146850   4.122   4.218   1.157  0.2206  2.0764 -1.5765
 8453TIP3    H246851   4.050   4.235   1.289 -0.8066 -0.9571 -1.6552
 8454TIP3   OH246852   1.064   2.472  13.221  0.0803  0.2685 -0.2714
 8454TIP3    H146853   1.159   2.479  13.214  0.2841  0.1869  1.7821
 8454TIP3    H246854   1.038   2.550  13.270 -0.7256 -0.4291  0.4383
 8455TIP3   OH246855   3.006   4.604   4.483  0.4118 -0.4357 -0.0799
 8455TIP3    H146856   3.091   4.591   4.526  0.5318 -0.5817 -0.3590
 8455TIP3    H246857   2.953   4.530   4.513  0.2427 -0.1101  0.4354
 8456TIP3   OH246858   0.114   0.242   4.765  0.1400  0.1417 -0.2374
 8456TIP3    H146859   0.035   0.197   4.733 -0.9422  1.0092  1.0657
 8456TIP3    H246860   0.132   0.309   4.699  1.0499 -1.3810 -1.5852
 8457TIP3   OH246861   3.128   1.207   5.563 -0.0018 -0.0781  0.1286
 8457TIP3    H146862   3.180   1.220   5.483 -0.1406 -0.1421  0.0290
 8457TIP3    H246863   3.161   1.274   5.623  0.1375 -0.0620  0.0360
 8458TIP3   OH246864   1.558   3.026   0.775 -0.1298 -0.1340  0.0713
 8458TIP3    H146865   1.499   3.085   0.821 -0.9135  0.2034 -1.3075
 8458TIP3    H246866   1.621   3.083   0.731 -0.2035 -0.3751 -0.3543
 8459TIP3   OH246867   2.790   2.895   1.111 -0.2850 -0.4782 -0.0701
 8459TIP3    H146868   2.857   2.832   1.084  0.1841  0.0255 -0.1068
 8459TIP3    H246869   2.800   2.902   1.206 -0.5238 -0.6655 -0.0302
 8460TIP3   OH246870   1.308   2.470  16.223 -0.3089  0.4603  0.1885
 8460TIP3    H146871   1.339   2.535  16.159 -0.2597 -1.2420 -1.6150
 8460TIP3    H246872   1.216   2.494  16.239 -0.8024  0.0575 -1.7668
 8461TIP3   OH246873   1.149   4.793  15.491  0.2049  0.0917 -0.0679
 8461TIP3    H146874   1.203   4.768  15.416 -0.5405 -1.2108 -0.1999
 8461TIP3    H246875   1.088   4.858  15.456 -0.3316 -0.7249 -0.6875
 8462TIP3   OH246876   3.405   1.611   2.343 -0.4988  0.4074 -0.3017
 8462TIP3    H146877   3.375   1.612   2.434  0.4913  0.0927  0.0391
 8462TIP3    H246878   3.494   1.576   2.347 -1.7407 -3.4217 -1.7681
 8463TIP3   OH246879   1.895   0.941  17.209  0.3112 -0.2432  0.2985
 8463TIP3    H146880   1.970   0.995  17.183 -1.0910  1.6779  0.0164
 8463TIP3    H246881   1.842   0.999  17.264 -1.4446 -1.2278 -0.2812
 8464TIP3   OH246882   2.610   2.732  13.088  0.1821  0.1242  0.0103
 8464TIP3    H146883   2.623   2.825  13.072  2.0512  0.2590  1.8834
 8464TIP3    H246884   2.517   2.724  13.108 -0.2161  1.3956 -1.1619
 8465TIP3   OH246885   6.089   1.704  16.585  0.5583 -0.2680 -0.8459
 8465TIP3    H146886   6.119   1.743  16.503 -1.8401  0.0258 -1.6645
 8465TIP3    H246887   6.025   1.638  16.558  0.9852 -1.3805  0.7446
 8466TIP3   OH246888   0.300   2.582   0.890 -0.5292 -0.7731  0.0911
 8466TIP3    H146889   0.238   2.644   0.930  0.2124  0.2531 -0.2868
 8466TIP3    H246890   0.321   2.521   0.961  0.4170  0.7516  1.1963
 8467TIP3   OH246891   6.536   5.883   1.226  0.7280  0.0979  0.3537
 8467TIP3    H146892   6.524   5.790   1.210  2.1371  0.0263 -0.3675
 8467TIP3    H246893   6.607   5.888   1.290 -2.1218  0.5484  3.8617
 8468TIP3   OH246894   2.542   5.779  12.476 -0.3666  0.3321  0.0694
 8468TIP3    H146895   2.588   5.784  12.560  0.8963 -1.3347 -0.4644
 8468TIP3    H246896   2.507   5.867  12.462  2.8065  1.7724  0.4288
 8469TIP3   OH246897   5.329   6.467  12.692  0.1138  0.5649 -0.3361
 8469TIP3    H146898   5.244   6.433  12.719 -0.4751  1.9422 -0.3635
 8469TIP3    H246899   5.391   6.430  12.755 -0.5432 -0.1734 -0.1049
 8470TIP3   OH246900   0.869   1.413   6.161 -0.3712 -0.0050 -0.0813
 8470TIP3    H146901   0.960   1.442   6.154  0.4040 -2.2270  0.0825
 8470TIP3    H246902   0.862   1.341   6.099 -1.5198 -0.9911  1.1382
 8471TIP3   OH246903   6.101   4.661   3.274 -0.2561  0.0640  0.8509
 8471TIP3    H146904   6.189   4.646   3.241 -0.9278  0.8431 -1.5290
 8471TIP3    H246905   6.045   4.612   3.214 -1.5783  1.5801  0.7659
 8472TIP3   OH246906   4.602   2.427  17.132 -0.7153  0.0936  0.1549
 8472TIP3    H146907   4.650   2.364  17.185  0.5244  0.3764 -0.5926
 8472TIP3    H246908   4.608   2.510  17.180 -1.3235 -0.0919  0.5534
 8473TIP3   OH246909   3.352   4.523   1.314  0.5828 -0.3100 -0.3770
 8473TIP3    H146910   3.332   4.476   1.395  0.8402 -0.6826 -0.5244
 8473TIP3    H246911   3.274   4.511   1.259  0.6772 -0.6327 -0.4428
 8474TIP3   OH246912   0.013   6.250   5.879  0.7372 -0.3606  0.2386
 8474TIP3    H146913   0.025   6.255   5.784 -0.1324 -0.2643  0.1273
 8474TIP3    H246914  -0.075   6.214   5.890 -0.0342  1.6756  0.9994
 8475TIP3   OH246915   0.977   5.790   1.390  0.2648  0.4486 -0.1282
 8475TIP3    H146916   0.990   5.731   1.465 -1.1712  0.9975  0.5812
 8475TIP3    H246917   0.971   5.731   1.315 -1.0591 -0.3385  0.5621
 8476TIP3   OH246918   3.622   1.776  10.979 -0.5335 -0.4881  0.1545
 8476TIP3    H146919   3.583   1.791  10.893 -0.8350 -0.5055  0.2885
 8476TIP3    H246920   3.588   1.691  11.006 -1.0694 -0.1250  0.6393
 8477TIP3   OH246921   5.056   4.311  17.252 -0.0749  0.3449  0.6535
 8477TIP3    H146922   5.014   4.297  17.167 -0.8779  0.0013  1.0962
 8477TIP3    H246923   5.103   4.230  17.269 -0.2278  0.2660  0.7049
 8478TIP3   OH246924   6.021   0.639  15.525  0.4618  0.2249 -0.0650
 8478TIP3    H146925   6.059   0.565  15.478  2.2990  1.4698 -0.6381
 8478TIP3    H246926   6.075   0.648  15.603  1.9459  2.4285 -1.2123
 8479TIP3   OH246927   4.344   4.291   0.184 -0.5833  0.0633  0.2377
 8479TIP3    H146928   4.382   4.288   0.272  0.4906  0.7830 -0.1824
 8479TIP3    H246929   4.409   4.337   0.131 -2.8277  3.2257 -0.1146
 8480TIP3   OH246930   3.451   1.540  17.098 -0.5768 -0.5304 -0.3649
 8480TIP3    H146931   3.412   1.504  17.019  0.8558  1.6369 -2.1926
 8480TIP3    H246932   3.545   1.536  17.082 -0.1415 -1.7560  2.1030
 8481TIP3   OH246933   3.208   6.095   1.269 -0.1377 -0.2509 -0.3297
 8481TIP3    H146934   3.134   6.109   1.328  0.1299  0.3940 -0.1403
 8481TIP3    H246935   3.240   6.008   1.290 -0.5796 -0.3612 -0.1177
 8482TIP3   OH246936   3.821   5.966  14.472 -0.3278 -0.0825 -0.1408
 8482TIP3    H146937   3.789   5.992  14.558 -0.4174  0.4416 -0.3270
 8482TIP3    H246938   3.840   5.873  14.480 -1.3282 -0.2701  0.1470
 8483TIP3   OH246939   5.898   1.593  14.902 -0.4937  0.0192  0.0006
 8483TIP3    H146940   5.933   1.570  14.816  1.1053 -0.4708  0.7473
 8483TIP3    H246941   5.899   1.689  14.903  0.9709  0.0311  0.0137
 8484TIP3   OH246942   6.252   1.178   5.643 -0.6881  0.2219  0.1153
 8484TIP3    H146943   6.189   1.138   5.582  0.6235  0.1954 -1.2683
 8484TIP3    H246944   6.225   1.145   5.729 -0.1022 -3.1664 -0.8491
 8485TIP3   OH246945   6.053   1.009   5.489  0.1380  0.1373 -0.5725
 8485TIP3    H146946   6.120   0.970   5.546 -0.2789  0.1036 -0.0959
 8485TIP3    H246947   6.031   0.940   5.427  1.2131  0.4569 -1.3234
 8486TIP3   OH246948   0.009   3.519   3.065  0.4575  0.4694 -0.1571
 8486TIP3    H146949   0.077   3.517   2.998  0.0297  0.0946 -0.5857
 8486TIP3    H246950   0.017   3.606   3.105 -0.0261  1.1461 -1.4698
 8487TIP3   OH246951   1.818   5.555   3.923  0.9210 -0.5433 -0.4157
 8487TIP3    H146952   1.747   5.591   3.870  0.1627 -0.0255  0.8872
 8487TIP3    H246953   1.779   5.481   3.969  1.3419 -0.5157 -0.0039
 8488TIP3   OH246954   0.465   2.786  11.393  0.5633 -0.3074  0.1570
 8488TIP3    H146955   0.480   2.694  11.372 -0.2005 -1.2800  3.2765
 8488TIP3    H246956   0.544   2.813  11.440  0.0976  0.0778  0.7433
 8489TIP3   OH246957   3.066   6.448  16.586  0.1615 -0.6573 -0.4039
 8489TIP3    H146958   3.128   6.521  16.586  0.7245 -1.0851  1.6285
 8489TIP3    H246959   2.980   6.490  16.590  0.4810 -0.0648  0.7355
 8490TIP3   OH246960   0.882   2.275   3.109 -0.3398  0.0293  0.1739
 8490TIP3    H146961   0.937   2.196   3.107 -2.6559 -1.6855 -0.0255
 8490TIP3    H246962   0.942   2.347   3.089  2.0680 -1.5333  1.3231
 8491TIP3   OH246963   1.766   4.136  16.918 -0.1027 -0.1979 -0.5228
 8491TIP3    H146964   1.684   4.185  16.909  0.5107  1.0141  0.2457
 8491TIP3    H246965   1.769   4.112  17.011  0.7252  0.3417 -0.4032
 8492TIP3   OH246966   1.888   3.079   4.410 -0.2119  0.3551  0.1875
 8492TIP3    H146967   1.961   3.097   4.351  0.2372  1.2680  0.9976
 8492TIP3    H246968   1.872   2.985   4.399  2.6898 -0.4499  1.7475
 8493TIP3   OH246969   2.530   0.428   0.264 -0.4024  0.8170  0.6133
 8493TIP3    H146970   2.523   0.363   0.195 -0.6122  0.4075  1.0178
 8493TIP3    H246971   2.559   0.508   0.219  1.1655  0.1126  0.2939
 8494TIP3   OH246972   2.682   5.211   6.086 -0.3410  0.3564 -0.3591
 8494TIP3    H146973   2.642   5.128   6.109 -0.1671  0.6716  1.1420
 8494TIP3    H246974   2.736   5.234   6.161  0.1043  1.5223 -1.0087
 8495TIP3   OH246975   4.940   1.854   6.613  0.3318 -0.1442  0.6300
 8495TIP3    H146976   5.005   1.924   6.613  1.3983 -1.0882  0.1069
 8495TIP3    H246977   4.984   1.780   6.570 -1.1276 -0.7956  0.1684
 8496TIP3   OH246978   0.715   6.220  10.934 -0.5761  0.1144  0.0368
 8496TIP3    H146979   0.681   6.161  11.001 -2.0467  0.0880 -0.7052
 8496TIP3    H246980   0.696   6.308  10.967 -0.7807  0.1134 -0.0763
 8497TIP3   OH246981   5.888   3.727   3.285 -0.1691 -0.0755 -0.2550
 8497TIP3    H146982   5.814   3.704   3.340  0.4003 -2.8777 -0.5088
 8497TIP3    H246983   5.913   3.645   3.242  0.7429  1.5380 -3.0766
 8498TIP3   OH246984   3.538   1.997   5.555 -0.3108 -0.1025 -0.1135
 8498TIP3    H146985   3.482   2.074   5.567 -0.3642  0.3316 -2.6649
 8498TIP3    H246986   3.546   1.988   5.460  1.2489 -2.1408  0.1588
 8499TIP3   OH246987   5.352   4.608   5.463  0.0591  0.0678  0.3240
 8499TIP3    H146988   5.423   4.621   5.400  0.9701  0.7956  1.4413
 8499TIP3    H246989   5.333   4.696   5.496 -0.1868 -0.3238  1.2620
 8500TIP3   OH246990   2.771   1.879   2.147  0.0834  0.6069  0.0384
 8500TIP3    H146991   2.767   1.974   2.161  2.1163  0.5108  1.7794
 8500TIP3    H246992   2.749   1.868   2.055  1.3635  2.9443 -0.6353
 8501TIP3   OH246993   1.813   6.510   1.408  0.3836 -0.2094  0.4795
 8501TIP3    H146994   1.859   6.509   1.324  0.6028 -2.6466  0.5632
 8501TIP3    H246995   1.874   6.554   1.468  1.0476 -0.1708 -0.2116
 8502TIP3   OH246996   2.488   2.073   5.988 -0.1893 -0.1802  0.3661
 8502TIP3    H146997   2.560   2.132   5.964  1.0429 -0.9247  2.0204
 8502TIP3    H246998   2.530   2.005   6.041 -1.9053 -1.4295  0.2103
 8503TIP3   OH246999   3.595   5.945   3.475  0.5289 -0.1790 -0.2490
 8503TIP3    H147000   3.592   6.039   3.458 -0.1430 -0.2179 -0.3485
 8503TIP3    H247001   3.676   5.933   3.526 -0.7952  0.8702  2.2770
 8504TIP3   OH247002   5.436   3.947   5.540 -0.6048  0.0366  0.2268
 8504TIP3    H147003   5.393   3.861   5.544  0.4316 -0.4566  1.1733
 8504TIP3    H247004   5.462   3.956   5.449 -2.6852  0.3603 -0.3937
 8505TIP3   OH247005   4.982   6.125   5.272 -0.0687  0.3122  0.3372
 8505TIP3    H147006   5.077   6.120   5.264 -0.0168  0.5433  0.7842
 8505TIP3    H247007   4.966   6.146   5.364 -0.5559  0.1886  0.2858
 8506TIP3   OH247008   3.577   5.348  12.094 -0.3538  0.4382  0.0790
 8506TIP3    H147009   3.641   5.281  12.067 -0.5869 -0.0752  0.7685
 8506TIP3    H247010   3.609   5.378  12.179 -0.7015  0.6108  0.1479
 8507TIP3   OH247011   0.117   2.860   0.154 -0.2755  0.1374  0.1854
 8507TIP3    H147012   0.124   2.951   0.125 -0.5939 -0.5347 -2.2162
 8507TIP3    H247013   0.031   2.856   0.197  0.7255  1.4511  2.4870
 8508TIP3   OH247014   4.012   2.704  14.967  0.3027  0.0578  1.3743
 8508TIP3    H147015   4.021   2.626  14.913  1.2696  0.6033  0.7322
 8508TIP3    H247016   3.945   2.680  15.032  0.7245 -1.3598  1.3206
 8509TIP3   OH247017   3.250   2.941  16.526  0.1999  0.1607  0.1591
 8509TIP3    H147018   3.218   2.991  16.601  0.6567 -0.1629  0.5815
 8509TIP3    H247019   3.332   2.902  16.557 -0.1953 -0.9211 -0.1392
 8510TIP3   OH247020   5.825   2.766  17.091 -0.1612  0.2613  0.0393
 8510TIP3    H147021   5.838   2.691  17.033 -0.7222  0.0312  0.2040
 8510TIP3    H247022   5.913   2.803  17.102 -0.0739  0.4969 -1.2004
 8511TIP3   OH247023   5.571   4.018   3.129  0.6944 -0.0892 -0.2294
 8511TIP3    H147024   5.623   3.989   3.204  1.5341 -0.1481 -0.8230
 8511TIP3    H247025   5.537   4.103   3.155  0.1194 -0.5597  0.6232
 8512TIP3   OH247026   1.939   1.322  14.406 -0.0438 -0.4056  0.3203
 8512TIP3    H147027   1.992   1.395  14.376 -0.3704 -0.0086  0.7040
 8512TIP3    H247028   1.989   1.284  14.478 -0.0778 -0.3055  0.3952
 8513TIP3   OH247029   3.390   3.403  16.612 -0.2093  0.2487  0.6694
 8513TIP3    H147030   3.418   3.311  16.616 -2.0815 -0.5355 -1.4228
 8513TIP3    H247031   3.406   3.437  16.700  3.0501 -1.2529  0.7951
 8514TIP3   OH247032   3.748   0.314   5.681 -0.2011 -0.2344  0.2919
 8514TIP3    H147033   3.823   0.374   5.678  0.0280 -0.5595 -1.3712
 8514TIP3    H247034   3.754   0.272   5.767  2.9100 -1.9808 -0.6560
 8515TIP3   OH247035   5.120   1.632  12.778 -0.2166  0.1843  0.1713
 8515TIP3    H147036   5.113   1.698  12.709  0.8524 -2.0102 -2.2118
 8515TIP3    H247037   5.064   1.560  12.748  1.1282 -1.2695  1.0106
 8516TIP3   OH247038   2.601   6.310  12.188  0.4519  0.1312 -0.4013
 8516TIP3    H147039   2.618   6.288  12.096  0.1623  1.6989 -0.8588
 8516TIP3    H247040   2.665   6.377  12.208 -0.5706  0.9994  0.0254
 8517TIP3   OH247041   4.810   4.458   2.189  0.2677  0.3147 -0.5727
 8517TIP3    H147042   4.758   4.538   2.186 -1.2114 -0.3986  2.4591
 8517TIP3    H247043   4.765   4.397   2.130  0.0839  0.9498 -1.1046
 8518TIP3   OH247044   5.244   4.391   3.468  0.8154 -0.1761  0.6190
 8518TIP3    H147045   5.291   4.349   3.541 -1.4559 -1.0661  1.6788
 8518TIP3    H247046   5.210   4.472   3.506 -0.4034 -0.6576  0.5950
 8519TIP3   OH247047   0.557   1.997  15.762  0.1282  0.6752  0.3580
 8519TIP3    H147048   0.639   2.019  15.806 -0.1963  1.1185  0.7618
 8519TIP3    H247049   0.580   1.985  15.670  0.5851  1.1573  0.4083
 8520TIP3   OH247050   4.451   3.543   6.203 -0.4219  0.9952 -0.2036
 8520TIP3    H147051   4.402   3.574   6.280 -0.2541 -2.3805  1.4329
 8520TIP3    H247052   4.383   3.523   6.138 -0.8579  0.6626  0.3456
 8521TIP3   OH247053   3.194   1.673  16.052 -0.1919  0.3683  0.2567
 8521TIP3    H147054   3.210   1.589  16.094 -0.7826 -0.4425 -1.1028
 8521TIP3    H247055   3.099   1.679  16.045 -0.1276  0.8664 -0.2217
 8522TIP3   OH247056   4.694   4.785  15.795  0.0319 -0.4157 -0.2918
 8522TIP3    H147057   4.674   4.808  15.886  1.8971 -3.9890  1.2280
 8522TIP3    H247058   4.790   4.789  15.790 -0.0705  0.8106 -2.5239
 8523TIP3   OH247059   6.026   3.655  11.888  0.3814  0.7691  0.2873
 8523TIP3    H147060   5.978   3.704  11.821  0.0850  0.9689  0.6424
 8523TIP3    H247061   5.966   3.650  11.962  0.4726  0.0152  0.3214
 8524TIP3   OH247062   5.930   2.867  15.863  0.5001 -0.5044  0.5277
 8524TIP3    H147063   5.887   2.883  15.946  0.5933 -0.6887  0.6113
 8524TIP3    H247064   5.866   2.819  15.811  0.8064 -1.2787  0.8545
 8525TIP3   OH247065   5.314   4.355  14.876 -0.4397  0.7306  0.0970
 8525TIP3    H147066   5.244   4.406  14.837 -0.7822  0.6165  0.5539
 8525TIP3    H247067   5.349   4.410  14.946  1.0314  1.4762 -1.1471
 8526TIP3   OH247068   5.339   6.134  10.624 -0.6550 -0.1893  0.2718
 8526TIP3    H147069   5.400   6.060  10.628 -0.9494 -0.4115  0.7850
 8526TIP3    H247070   5.396   6.211  10.618 -0.3538 -0.5450 -2.8512
 8527TIP3   OH247071   0.807   2.068  14.817  0.2785  0.0491 -0.5746
 8527TIP3    H147072   0.783   1.982  14.850  1.7566  0.6114  2.2886
 8527TIP3    H247073   0.725   2.107  14.787 -1.2077 -0.7835  2.0786
 8528TIP3   OH247074   0.823   5.209  15.717 -0.1160  0.0487  0.2858
 8528TIP3    H147075   0.916   5.232  15.727  0.1854 -0.7446 -0.5535
 8528TIP3    H247076   0.785   5.230  15.802  0.6727  1.0868  0.4141
 8529TIP3   OH247077   4.606   6.491   3.630  0.3201  0.4753  0.6781
 8529TIP3    H147078   4.530   6.515   3.683 -0.3355  0.9577 -0.4346
 8529TIP3    H247079   4.570   6.475   3.543  1.2847 -0.8987  0.5074
 8530TIP3   OH247080   2.478   4.141  11.679  0.4962 -0.5741 -0.0021
 8530TIP3    H147081   2.412   4.200  11.643  0.5354  0.1466  1.0713
 8530TIP3    H247082   2.506   4.088  11.604 -0.4145 -0.0652 -0.7262
 8531TIP3   OH247083   2.573   5.602   2.722  0.8412  0.0782  0.3264
 8531TIP3    H147084   2.501   5.541   2.703  0.6823  0.2710  0.3030
 8531TIP3    H247085   2.543   5.651   2.799 -0.3701  2.2155 -1.3868
 8532TIP3   OH247086   5.083   0.719   5.447 -0.3314  0.2250  0.3236
 8532TIP3    H147087   5.090   0.631   5.408 -0.0762  0.8355 -1.0705
 8532TIP3    H247088   5.148   0.771   5.401 -0.8634  1.2915  0.7471
 8533TIP3   OH247089   2.276   2.792  15.678  0.1656  0.1604  0.2859
 8533TIP3    H147090   2.361   2.827  15.705  1.1297  0.2970 -2.6414
 8533TIP3    H247091   2.212   2.848  15.723  1.6594  2.5255 -0.3419
 8534TIP3   OH247092   2.529   4.171  14.113 -0.2068  0.5189 -0.7428
 8534TIP3    H147093   2.476   4.235  14.161  1.3541  0.8728  0.5916
 8534TIP3    H247094   2.469   4.137  14.046 -2.0985  0.9402  0.6284
 8535TIP3   OH247095   6.168   0.796   4.792 -0.4363 -0.2278  0.0073
 8535TIP3    H147096   6.171   0.875   4.739  1.8894  0.1989  0.6571
 8535TIP3    H247097   6.175   0.827   4.882  1.4475 -1.1501  0.2310
 8536TIP3   OH247098   2.409   3.780  15.597  0.0609  0.4082  0.0418
 8536TIP3    H147099   2.326   3.818  15.625 -0.2221 -0.3598  0.2520
 8536TIP3    H247100   2.389   3.731  15.518  0.8386  2.4740 -1.5433
 8537TIP3   OH247101   4.205   6.037   5.112 -0.2802  0.2571 -0.3341
 8537TIP3    H147102   4.261   5.969   5.075 -1.9215 -0.9957 -0.6379
 8537TIP3    H247103   4.116   6.009   5.092 -1.1117  1.3118  1.5727
 8538TIP3   OH247104   0.886   6.153   2.956 -0.0402  0.3171  0.0091
 8538TIP3    H147105   0.797   6.178   2.981 -0.2394 -1.7196  1.5878
 8538TIP3    H247106   0.878   6.064   2.922  1.2573  0.5317 -0.9495
 8539TIP3   OH247107   3.563   2.679  11.704 -0.6102 -0.1892  0.5807
 8539TIP3    H147108   3.632   2.744  11.721  1.5664 -2.2537  0.1761
 8539TIP3    H247109   3.568   2.664  11.610 -3.0272  0.9868  0.1758
 8540TIP3   OH247110   5.408   1.251   0.572 -0.8050 -0.4802  0.1384
 8540TIP3    H147111   5.345   1.195   0.616 -1.2514  0.8593  1.2886
 8540TIP3    H247112   5.471   1.191   0.532 -1.6616 -1.7842  0.7071
 8541TIP3   OH247113   1.959   6.820   4.158  0.6368 -0.1086  0.0052
 8541TIP3    H147114   1.909   6.747   4.196  0.2628  0.4356  0.5767
 8541TIP3    H247115   1.923   6.898   4.200  1.6890  0.3247  0.1215
 8542TIP3   OH247116   3.665   3.322   2.697  0.0858  0.1506 -0.4198
 8542TIP3    H147117   3.618   3.364   2.625 -4.1596 -1.4672  1.0535
 8542TIP3    H247118   3.632   3.368   2.775  0.6866 -1.3539  0.7576
 8543TIP3   OH247119   5.503   1.682   3.348  0.3924 -0.3523  0.0116
 8543TIP3    H147120   5.529   1.610   3.405  1.1927  0.6486  0.9402
 8543TIP3    H247121   5.504   1.759   3.404 -2.1278  0.1704 -0.5202
 8544TIP3   OH247122   0.770   2.089   1.249  0.1878  0.0662  0.8263
 8544TIP3    H147123   0.807   2.177   1.237  0.5811 -0.0775  0.9831
 8544TIP3    H247124   0.743   2.087   1.340 -0.5641  0.3024  0.6171
 8545TIP3   OH247125   1.475   5.249   4.975  0.2723 -0.4562  0.4003
 8545TIP3    H147126   1.424   5.305   5.033 -1.7207 -1.2715 -0.4635
 8545TIP3    H247127   1.481   5.300   4.894 -2.1201 -1.6192 -0.6165
 8546TIP3   OH247128   3.238   5.408  14.570 -0.0885  0.1099  0.3754
 8546TIP3    H147129   3.289   5.344  14.519 -1.2402 -0.8268  0.3549
 8546TIP3    H247130   3.147   5.380  14.560 -0.3759 -0.1743  2.9970
 8547TIP3   OH247131   5.609   1.128   3.197 -0.2902  0.1839  0.1054
 8547TIP3    H147132   5.703   1.139   3.184 -0.4457  3.0248  0.8073
 8547TIP3    H247133   5.570   1.150   3.112 -0.3396 -1.4328 -0.3172
 8548TIP3   OH247134   6.015   5.860   1.270  0.7027  0.0457  0.3810
 8548TIP3    H147135   6.014   5.932   1.207  0.3109 -0.6990 -0.4815
 8548TIP3    H247136   5.925   5.856   1.303 -0.4763 -2.5843 -2.5963
 8549TIP3   OH247137   1.177   3.098  15.017 -0.5596  0.3723  0.3233
 8549TIP3    H147138   1.128   3.016  15.024 -0.5100  0.3423  0.3191
 8549TIP3    H247139   1.109   3.166  15.015 -0.5901  0.3555  0.6661
 8550TIP3   OH247140   6.602   1.930  14.904  0.3309 -0.1366  0.4988
 8550TIP3    H147141   6.654   1.915  14.826  0.8459 -0.9953  0.9980
 8550TIP3    H247142   6.518   1.962  14.871  0.3858 -0.9102 -0.4278
 8551TIP3   OH247143   1.811   3.746   2.004  0.4693  0.0727 -0.0997
 8551TIP3    H147144   1.896   3.731   2.046 -0.7063 -0.6962  2.2235
 8551TIP3    H247145   1.758   3.790   2.071 -1.5236 -1.1488 -0.7638
 8552TIP3   OH247146   5.784   6.046   0.133 -0.2351  0.3665  0.4386
 8552TIP3    H147147   5.726   6.049   0.056 -0.4443  1.1426  0.6178
 8552TIP3    H247148   5.724   6.040   0.207 -0.1632  2.1508  0.6910
 8553TIP3   OH247149   6.156   4.941   0.805 -0.5501 -0.3154  0.3777
 8553TIP3    H147150   6.161   4.951   0.710  0.4830  1.4272  0.5763
 8553TIP3    H247151   6.088   4.875   0.819 -0.8957 -0.4151 -1.5495
 8554TIP3   OH247152   1.072   2.051   3.067  0.2784  0.2395  0.6280
 8554TIP3    H147153   1.022   1.994   3.009  0.8081 -0.1372  0.5354
 8554TIP3    H247154   1.128   2.102   3.008 -0.2740  0.9414  0.7018
 8555TIP3   OH247155   1.791   6.146   3.157 -0.5243  0.0922  0.1593
 8555TIP3    H147156   1.838   6.128   3.075 -1.0777 -0.8414  0.0408
 8555TIP3    H247157   1.792   6.242   3.164 -0.3341  0.1776 -0.8585
 8556TIP3   OH247158   5.567   6.535  14.517  0.7580 -0.1626  0.1150
 8556TIP3    H147159   5.592   6.481  14.592  2.8952 -0.5961 -0.8350
 8556TIP3    H247160   5.482   6.500  14.489 -0.0282 -0.0679  2.2086
 8557TIP3   OH247161   4.994   5.412   3.036  0.0519  0.3327  0.0706
 8557TIP3    H147162   5.028   5.328   3.066 -1.2388 -0.2092  0.0732
 8557TIP3    H247163   4.918   5.428   3.091  0.7024  1.8869  0.5764
 8558TIP3   OH247164   1.253   1.412   4.979  0.6048  0.1907  0.1221
 8558TIP3    H147165   1.256   1.328   4.935  0.7394  0.5805 -0.6368
 8558TIP3    H247166   1.303   1.400   5.060  2.1141  0.0102 -0.8000
 8559TIP3   OH247167   5.624   1.007   2.713 -0.0609  0.7172  0.1762
 8559TIP3    H147168   5.586   0.926   2.679  1.0688 -0.1691  0.9389
 8559TIP3    H247169   5.627   1.065   2.638 -0.9228  0.0622 -0.3845
 8560TIP3   OH247170   0.428   1.432   4.792  0.5497  0.7377 -0.2235
 8560TIP3    H147171   0.451   1.341   4.776  1.0573  1.1737 -2.2667
 8560TIP3    H247172   0.512   1.478   4.800  0.3357  1.2938 -1.0281
 8561TIP3   OH247173   1.867   1.923  14.770  0.6639 -0.1712 -0.1906
 8561TIP3    H147174   1.904   1.991  14.714  1.4345 -0.0262  0.4933
 8561TIP3    H247175   1.940   1.891  14.822  0.3547 -1.6333 -0.5905
 8562TIP3   OH247176   3.547   0.781  17.004  0.5492 -0.3592 -0.1910
 8562TIP3    H147177   3.505   0.695  17.010  1.8677 -0.9388  1.0482
 8562TIP3    H247178   3.475   0.841  16.980 -0.7377 -1.4986  0.6998
 8563TIP3   OH247179   6.152   2.256  11.593 -0.3260  0.1831 -0.2047
 8563TIP3    H147180   6.198   2.204  11.659 -0.0288  0.2536 -0.3538
 8563TIP3    H247181   6.175   2.215  11.510 -0.6533  0.1300 -0.2709
 8564TIP3   OH247182   5.122   1.332   5.039 -0.1665  0.3029  0.4528
 8564TIP3    H147183   5.138   1.421   5.071  0.2311  0.1510  0.6788
 8564TIP3    H247184   5.168   1.275   5.101  1.0341  0.0248 -0.6401
 8565TIP3   OH247185   0.104   4.227  17.292  0.7697  0.6833  0.3067
 8565TIP3    H147186   0.082   4.320  17.303  0.8244  0.6494  0.7170
 8565TIP3    H247187   0.038   4.194  17.231  1.3090  1.2055 -0.5847
 8566TIP3   OH247188   4.414   0.049   4.125 -0.6982 -0.7963 -0.1611
 8566TIP3    H147189   4.485   0.104   4.158 -0.2688  0.9880 -3.5609
 8566TIP3    H247190   4.439  -0.040   4.149  2.7246 -0.2341 -1.1304
 8567TIP3   OH247191   0.180   5.890   0.203 -0.6860 -0.1221  0.3505
 8567TIP3    H147192   0.097   5.847   0.225 -0.6829 -0.3610 -0.0861
 8567TIP3    H247193   0.206   5.849   0.120  1.4531 -2.3104  1.9724
 8568TIP3   OH247194   6.752   4.439   4.190  0.2147  0.1483 -0.5488
 8568TIP3    H147195   6.823   4.464   4.249 -1.8131  2.2697  1.2267
 8568TIP3    H247196   6.774   4.482   4.107  0.9697  0.8555 -0.0088
 8569TIP3   OH247197   6.782   6.380  14.411  0.8168 -0.9643 -0.1196
 8569TIP3    H147198   6.741   6.387  14.325  2.7476 -0.0508 -1.0253
 8569TIP3    H247199   6.787   6.470  14.443  2.3856 -0.9711 -0.2282
 8570TIP3   OH247200   3.534   2.903   4.156  0.2300  0.5876  0.3594
 8570TIP3    H147201   3.602   2.932   4.217  0.2559 -0.5131  0.8851
 8570TIP3    H247202   3.463   2.871   4.212  0.5264 -1.0676 -0.1460
 8571TIP3   OH247203   0.827   6.447   2.032 -0.1482  0.3309  0.2102
 8571TIP3    H147204   0.854   6.485   1.948 -1.2714  0.9751  0.1169
 8571TIP3    H247205   0.883   6.491   2.097 -0.9612  1.7032  0.0312
 8572TIP3   OH247206   1.342   0.506  16.219 -0.1337  0.6248 -0.2219
 8572TIP3    H147207   1.358   0.422  16.262 -0.8673  0.2309 -0.6955
 8572TIP3    H247208   1.382   0.571  16.276 -0.2061  0.0194  0.5293
 8573TIP3   OH247209   6.454   0.258  11.323 -0.5857 -0.9595  0.3271
 8573TIP3    H147210   6.423   0.338  11.279 -1.7903 -1.6469 -0.1473
 8573TIP3    H247211   6.453   0.280  11.416  0.1015 -0.1054  0.1518
 8574TIP3   OH247212   5.284   1.926   5.379 -0.2020  0.0346  0.3782
 8574TIP3    H147213   5.299   1.986   5.306 -0.1892 -0.0682  0.2957
 8574TIP3    H247214   5.318   1.972   5.456 -0.3547  0.2068  0.3440
 8575TIP3   OH247215   3.711   4.813   3.618 -0.5230  0.7363 -0.2402
 8575TIP3    H147216   3.671   4.897   3.595 -0.4918  0.7579 -0.2135
 8575TIP3    H247217   3.756   4.828   3.701  1.3165  1.2807 -1.2804
 8576TIP3   OH247218   3.522   2.474  13.414  0.4738  0.1255  0.0832
 8576TIP3    H147219   3.617   2.479  13.421  0.5455  0.7347 -0.9672
 8576TIP3    H247220   3.498   2.393  13.458  1.5033 -0.1263  0.1997
 8577TIP3   OH247221   5.591   2.753   1.438  0.2505  0.2283 -0.1141
 8577TIP3    H147222   5.609   2.729   1.347 -0.8119 -1.7949  0.1323
 8577TIP3    H247223   5.517   2.814   1.433  0.0887 -0.0009 -0.6129
 8578TIP3   OH247224   4.892   0.223   2.878  0.5499  0.8085 -0.0855
 8578TIP3    H147225   4.819   0.267   2.922 -1.6215 -3.0651  0.5762
 8578TIP3    H247226   4.875   0.236   2.784 -0.1637  1.1485  0.0856
 8579TIP3   OH247227   3.561   2.949   5.187 -0.2180  0.0878  0.5675
 8579TIP3    H147228   3.589   2.861   5.214  2.8387  0.5093 -0.8305
 8579TIP3    H247229   3.555   2.944   5.092  1.0932  1.6158  0.3655
 8580TIP3   OH247230   5.812   3.442  13.009 -0.4537 -0.4350  0.1710
 8580TIP3    H147231   5.753   3.511  12.977 -0.9802 -1.0224 -0.1476
 8580TIP3    H247232   5.764   3.360  12.993 -0.0561 -0.8437  1.0288
 8581TIP3   OH247233   2.880   3.920  11.529  0.3611 -0.1834  0.0476
 8581TIP3    H147234   2.963   3.876  11.509  0.1908 -0.5049  0.0466
 8581TIP3    H247235   2.862   3.897  11.620 -0.5487 -1.4671 -0.4244
 8582TIP3   OH247236   0.118   5.523   4.732 -0.5431 -0.5606  0.0582
 8582TIP3    H147237   0.184   5.556   4.671  0.7579  0.0287  1.7236
 8582TIP3    H247238   0.081   5.446   4.688 -0.1138  0.2123 -1.7383
 8583TIP3   OH247239   2.367   3.896   1.901  0.4538 -0.4548  0.3315
 8583TIP3    H147240   2.456   3.928   1.889  0.2708  0.2595  0.8151
 8583TIP3    H247241   2.368   3.808   1.863  1.1711 -0.1799 -0.3063
 8584TIP3   OH247242   2.339   4.572   6.682 -0.9214 -0.3686  0.4541
 8584TIP3    H147243   2.394   4.590   6.759 -0.2325 -0.5387  0.0052
 8584TIP3    H247244   2.352   4.479   6.664  0.1474 -0.0158 -0.7880
 8585TIP3   OH247245   2.547   0.158  12.011  0.2673 -0.1003  0.2939
 8585TIP3    H147246   2.542   0.246  11.975 -2.8887  0.4133  1.6576
 8585TIP3    H247247   2.542   0.100  11.935  1.0218  0.8618 -0.5183
 8586TIP3   OH247248   6.632   1.374  15.767  0.0290  0.2418 -0.1405
 8586TIP3    H147249   6.570   1.302  15.780  0.3241 -0.0872 -0.5175
 8586TIP3    H247250   6.712   1.331  15.736  1.2243  0.3651  2.4289
 8587TIP3   OH247251   4.072   0.725   3.027  0.4192  0.1513 -1.2798
 8587TIP3    H147252   4.034   0.755   3.109  0.8003  2.0182 -1.7359
 8587TIP3    H247253   3.998   0.715   2.968  0.4087  2.4270 -1.7536
 8588TIP3   OH247254   1.967   3.403  10.860 -0.2704 -0.0962  0.1571
 8588TIP3    H147255   2.013   3.475  10.818  1.2401  0.0317  1.9130
 8588TIP3    H247256   1.974   3.330  10.798  1.2234  0.2971 -0.1763
 8589TIP3   OH247257   1.763   1.673  10.763 -0.1865 -0.1303  0.4596
 8589TIP3    H147258   1.674   1.699  10.738 -0.0575 -0.4322 -0.3665
 8589TIP3    H247259   1.788   1.734  10.832 -0.1486  1.4871 -0.9274
 8590TIP3   OH247260   1.143   0.522  13.139 -0.2739 -0.2180 -0.2795
 8590TIP3    H147261   1.222   0.532  13.086  1.2263  1.3351  2.0604
 8590TIP3    H247262   1.096   0.605  13.128 -0.5361 -0.3358 -0.0604
 8591TIP3   OH247263   2.869   3.213   1.519 -0.6993 -1.0468 -0.0220
 8591TIP3    H147264   2.849   3.306   1.507  0.4346 -1.0048 -2.1285
 8591TIP3    H247265   2.786   3.168   1.503 -0.7418 -0.5030 -1.5672
 8592TIP3   OH247266   4.944   6.045  16.475  0.3538 -0.4543  0.0318
 8592TIP3    H147267   5.006   6.003  16.416  1.7506  0.9726  0.4144
 8592TIP3    H247268   4.876   6.081  16.417  0.6871 -0.7207 -0.5283
 8593TIP3   OH247269   5.865   0.553   4.965  0.2847  0.4499 -0.2621
 8593TIP3    H147270   5.874   0.614   4.892  0.0684  1.3760  0.4600
 8593TIP3    H247271   5.941   0.572   5.022  0.0665  0.2388  0.1043
 8594TIP3   OH247272   4.391   0.111   2.093 -0.7122 -0.0451 -0.0724
 8594TIP3    H147273   4.480   0.128   2.123 -0.3746 -3.1959  1.1368
 8594TIP3    H247274   4.393   0.133   2.000  0.8390  1.4835  0.2709
 8595TIP3   OH247275   0.722   1.723   1.084 -0.1990 -0.2895  0.0185
 8595TIP3    H147276   0.759   1.754   1.001 -0.4049 -0.2743 -0.0670
 8595TIP3    H247277   0.708   1.802   1.136  0.1387 -0.3176  0.1536
 8596TIP3   OH247278   4.268   4.616   0.077 -0.0591 -0.5963  0.1738
 8596TIP3    H147279   4.232   4.552   0.015 -1.6747 -0.0348  0.4791
 8596TIP3    H247280   4.194   4.673   0.099  1.2672  1.2876  0.0614
 8597TIP3   OH247281   2.864   5.334   1.647  0.3634  0.1929 -0.4671
 8597TIP3    H147282   2.816   5.270   1.700  0.5686  0.4180 -0.0074
 8597TIP3    H247283   2.823   5.418   1.668  0.5765  0.3080 -0.5116
 8598TIP3   OH247284   2.012   4.086  12.200  0.0704  0.1841 -0.0193
 8598TIP3    H147285   1.992   3.993  12.192 -0.9757  0.4645 -1.0266
 8598TIP3    H247286   1.969   4.126  12.124  0.9011  1.4300  0.1341
 8599TIP3   OH247287   3.879   3.648   4.188 -0.7750 -0.2732 -0.0380
 8599TIP3    H147288   3.947   3.672   4.126 -0.7467 -0.6984 -0.1742
 8599TIP3    H247289   3.803   3.702   4.162 -0.2650  0.7846  0.6050
 8600TIP3   OH247290   0.566   2.073  13.161  0.0193  0.0815  0.5997
 8600TIP3    H147291   0.602   1.985  13.153  0.3254  0.2308  0.2832
 8600TIP3    H247292   0.639   2.126  13.194 -0.5085 -0.0205  2.0304
 8601TIP3   OH247293   2.185   5.056   0.571  0.3204 -0.3764  0.0080
 8601TIP3    H147294   2.180   5.122   0.502 -0.0442 -2.1835 -1.7759
 8601TIP3    H247295   2.263   5.080   0.622  2.6306 -0.8046 -3.0609
 8602TIP3   OH247296   3.849   0.959   1.900 -0.1997 -0.0501  0.0349
 8602TIP3    H147297   3.906   0.905   1.956 -1.0822  0.0258  1.0559
 8602TIP3    H247298   3.909   1.005   1.842  0.6056 -2.0977 -0.8675
 8603TIP3   OH247299   1.489   5.676   5.776  0.0588 -0.1961  0.0031
 8603TIP3    H147300   1.535   5.609   5.727 -0.0565 -0.9007  0.8425
 8603TIP3    H247301   1.557   5.737   5.805  0.1159  0.2703 -1.0783
 8604TIP3   OH247302   6.739   2.925   5.964 -0.2856 -0.4862  0.1955
 8604TIP3    H147303   6.831   2.899   5.954 -0.2626  0.2338 -1.9717
 8604TIP3    H247304   6.734   2.962   6.053  1.6146 -0.1595  0.2040
 8605TIP3   OH247305   4.512   5.152   2.529 -0.2003  0.5627 -0.4268
 8605TIP3    H147306   4.456   5.129   2.603  0.8673 -0.9571 -0.0555
 8605TIP3    H247307   4.526   5.069   2.483  1.8721  0.8651 -0.4069
 8606TIP3   OH247308   6.318   2.643  14.460 -0.3982 -0.2039 -0.4404
 8606TIP3    H147309   6.329   2.637  14.555  0.4801 -1.8783 -0.6104
 8606TIP3    H247310   6.229   2.612  14.445 -1.3545  2.1692 -0.0206
 8607TIP3   OH247311   0.045   2.331   0.356  0.6313 -0.3722  0.2845
 8607TIP3    H147312  -0.050   2.330   0.362  0.3843 -2.2252 -2.2633
 8607TIP3    H247313   0.068   2.424   0.360 -1.3798  0.1922 -0.0197
 8608TIP3   OH247314   5.469   0.517  13.049 -0.2852  0.4040 -0.4179
 8608TIP3    H147315   5.546   0.522  13.104 -0.5663  0.1358  0.0060
 8608TIP3    H247316   5.499   0.475  12.968 -0.3700 -1.4889  0.4784
 8609TIP3   OH247317   6.522   6.070   4.744  0.0705 -0.2595  0.2727
 8609TIP3    H147318   6.439   6.028   4.721 -0.7466  0.2828  2.0111
 8609TIP3    H247319   6.571   6.004   4.793  0.4553 -0.4069 -0.2991
 8610TIP3   OH247320   2.957   3.463   0.243 -0.7516  0.3553 -0.2592
 8610TIP3    H147321   2.957   3.369   0.261 -2.7141  0.3193 -0.3008
 8610TIP3    H247322   2.907   3.502   0.315 -0.3289  1.3315 -0.4734
 8611TIP3   OH247323   2.493   2.671   4.010  0.2913  0.6354 -0.0148
 8611TIP3    H147324   2.413   2.721   3.998  1.7224  3.6420  1.8783
 8611TIP3    H247325   2.543   2.686   3.930 -0.8414 -1.1195 -1.1302
 8612TIP3   OH247326   6.276   4.662  12.047 -0.1634  0.6055  0.2448
 8612TIP3    H147327   6.205   4.623  11.995 -2.2099  1.8327  1.9199
 8612TIP3    H247328   6.256   4.635  12.137  1.5111  1.0313  0.7823
 8613TIP3   OH247329   1.948   2.510  12.770  0.3881  0.2199  0.2915
 8613TIP3    H147330   1.949   2.450  12.845  0.9160  0.1236  0.2097
 8613TIP3    H247331   1.946   2.452  12.694 -2.8961  0.2633  0.1977
 8614TIP3   OH247332   4.303   3.759  11.670 -0.1739 -0.0155 -0.0700
 8614TIP3    H147333   4.319   3.693  11.738 -0.6456 -0.8421 -0.7355
 8614TIP3    H247334   4.208   3.770  11.670 -0.0551  1.2428  0.5373
 8615TIP3   OH247335   5.616   0.509  13.623 -0.4033  0.0142  0.9136
 8615TIP3    H147336   5.677   0.508  13.697 -2.0315  0.4752  2.3325
 8615TIP3    H247337   5.555   0.580  13.643 -3.0296 -2.1129  0.9729
 8616TIP3   OH247338   5.645   0.409   2.967  0.1556 -0.2031 -0.0488
 8616TIP3    H147339   5.606   0.376   3.048 -0.2698  0.5113  0.0477
 8616TIP3    H247340   5.707   0.341   2.940  0.6640 -0.2375  1.1447
 8617TIP3   OH247341   3.410   1.878  16.045  0.2103 -0.3253 -0.6480
 8617TIP3    H147342   3.446   1.868  16.133  0.1025  1.2786 -0.3920
 8617TIP3    H247343   3.329   1.826  16.046  0.1189 -0.1793  0.2581
 8618TIP3   OH247344   1.596   4.928  11.566 -0.0385 -0.0920 -0.1758
 8618TIP3    H147345   1.641   4.921  11.482 -1.6029 -1.1185 -0.9824
 8618TIP3    H247346   1.515   4.976  11.547  0.2301  0.9090  1.0435
 8619TIP3   OH247347   1.323   0.487  15.652 -0.2671  0.4164  0.3168
 8619TIP3    H147348   1.399   0.543  15.635  0.7487 -1.4871 -2.0853
 8619TIP3    H247349   1.350   0.431  15.724  0.7980 -0.4194 -0.6826
 8620TIP3   OH247350   6.800   2.769  12.685  0.2800  0.6671  0.0283
 8620TIP3    H147351   6.799   2.855  12.727 -0.2955 -0.2938  2.1115
 8620TIP3    H247352   6.793   2.707  12.758 -0.5805 -1.1204 -1.5057
 8621TIP3   OH247353   5.311   0.079  15.684  0.7622 -0.3167 -0.1470
 8621TIP3    H147354   5.219   0.103  15.691  0.3473 -1.4095 -1.4848
 8621TIP3    H247355   5.352   0.153  15.641  0.6472  0.4206  0.9660
 8622TIP3   OH247356   5.429   0.015   4.255  0.2178  0.7590  0.1833
 8622TIP3    H147357   5.431  -0.025   4.167 -3.4339 -0.8904  0.7011
 8622TIP3    H247358   5.515  -0.006   4.291  1.0269 -0.4811 -2.1825
 8623TIP3   OH247359   5.049   1.840  11.580  0.7465  0.8125  0.4671
 8623TIP3    H147360   5.124   1.782  11.591  1.4139  1.5891  0.1194
 8623TIP3    H247361   4.983   1.805  11.640  0.5013 -1.3026 -0.9027
 8624TIP3   OH247362   6.406   0.010   0.635 -0.3554  0.0063 -0.1852
 8624TIP3    H147363   6.469   0.069   0.676 -0.1030 -2.6200  3.7080
 8624TIP3    H247364   6.458  -0.044   0.575  0.4135  0.1674  0.3305
 8625TIP3   OH247365   5.985   1.606  15.270 -0.4395 -0.6148  0.5383
 8625TIP3    H147366   5.987   1.667  15.343 -0.7468  1.0157 -0.7525
 8625TIP3    H247367   5.898   1.616  15.231  0.9491  1.6222 -2.4269
 8626TIP3   OH247368   1.935   1.305  16.351  0.1955  0.2100  0.2111
 8626TIP3    H147369   1.864   1.241  16.348  1.0635 -0.7926  0.3226
 8626TIP3    H247370   1.967   1.310  16.261 -0.3296  1.0503  0.0569
 8627TIP3   OH247371   3.316   2.499  15.679  0.1781 -0.1992  0.6261
 8627TIP3    H147372   3.351   2.566  15.738  0.7702  0.3147 -0.2832
 8627TIP3    H247373   3.383   2.431  15.678  1.7780  1.2600 -1.9405
 8628TIP3   OH247374   4.903   2.039  13.872  0.6463  0.3156 -0.1486
 8628TIP3    H147375   4.960   2.089  13.815 -0.7536  0.7225 -1.2393
 8628TIP3    H247376   4.907   1.950  13.838  0.8094  0.2915 -0.0688
 8629TIP3   OH247377   3.112   0.793  11.500  0.2223 -0.6212  0.2537
 8629TIP3    H147378   3.052   0.861  11.531 -0.8584 -1.3959 -0.1219
 8629TIP3    H247379   3.082   0.772  11.412  0.3938 -1.7573  0.4504
 8630TIP3   OH247380   2.893   0.556  15.066  0.3029 -0.3788 -0.2497
 8630TIP3    H147381   2.947   0.478  15.081  1.4755  0.0639 -1.8391
 8630TIP3    H247382   2.870   0.552  14.973 -1.5674  0.0016  0.1611
 8631TIP3   OH247383   1.051   5.440  13.315  0.2204  0.7079  0.0849
 8631TIP3    H147384   1.055   5.438  13.219 -3.2012 -2.5378 -0.2371
 8631TIP3    H247385   0.976   5.496  13.335  0.4464  0.7515  0.8246
 8632TIP3   OH247386   3.615   4.039   0.647  0.1569  0.0765 -0.2432
 8632TIP3    H147387   3.617   4.097   0.571  1.6866  0.1925 -0.1444
 8632TIP3    H247388   3.593   3.953   0.611  0.6695  0.1682 -0.7998
 8633TIP3   OH247389   3.227   1.609   3.358  0.5074  0.3344 -0.4116
 8633TIP3    H147390   3.195   1.641   3.274  1.5425  1.0517 -0.5379
 8633TIP3    H247391   3.151   1.615   3.416 -0.5521 -1.2288 -1.5373
 8634TIP3   OH247392   3.260   1.644  15.166  0.0775  0.0945 -0.8008
 8634TIP3    H147393   3.232   1.613  15.080 -0.4471  0.1672 -0.6621
 8634TIP3    H247394   3.332   1.704  15.148 -0.8883  1.1389 -1.2999
 8635TIP3   OH247395   2.490   2.798   1.155  0.2217 -0.3040 -0.0783
 8635TIP3    H147396   2.531   2.780   1.070  0.8105  0.4866  0.0291
 8635TIP3    H247397   2.460   2.889   1.148  2.6357  0.7299  1.4456
 8636TIP3   OH247398   2.706   4.577   4.964  0.0946  0.4479  0.2956
 8636TIP3    H147399   2.667   4.548   5.046 -0.0049 -0.7903 -0.1697
 8636TIP3    H247400   2.640   4.556   4.897  1.2591 -1.0890 -0.4187
 8637TIP3   OH247401   5.224   0.088  15.397  0.6854  0.1319  0.0007
 8637TIP3    H147402   5.309   0.116  15.362 -0.6452 -0.0464 -3.8411
 8637TIP3    H247403   5.238  -0.002  15.424  1.6133 -0.1338 -1.2380
 8638TIP3   OH247404   6.134   4.074  16.560  0.4761 -0.3912  0.3568
 8638TIP3    H147405   6.221   4.077  16.521 -0.5459  2.1020 -2.0697
 8638TIP3    H247406   6.090   4.001  16.516  0.8490 -0.6834  0.4662
 8639TIP3   OH247407   0.096   6.301  12.162  0.3256  0.2231  0.7863
 8639TIP3    H147408   0.187   6.271  12.158  1.2788  2.9490 -0.3322
 8639TIP3    H247409   0.092   6.355  12.241 -0.6895 -0.7961  1.4663
 8640TIP3   OH247410   2.375   5.408   2.661 -0.2811  0.1261  0.6901
 8640TIP3    H147411   2.336   5.346   2.723  0.5786  0.4259  1.5443
 8640TIP3    H247412   2.419   5.352   2.597 -0.4161 -0.1662  0.8483
 8641TIP3   OH247413   6.686   0.858   0.497 -0.1056  0.1895 -0.7125
 8641TIP3    H147414   6.732   0.780   0.464  0.1928  0.0055  0.1048
 8641TIP3    H247415   6.628   0.884   0.426 -0.2489 -0.8205 -0.9810
 8642TIP3   OH247416   4.984   3.815  12.149 -0.4689 -0.3014  0.0655
 8642TIP3    H147417   4.969   3.907  12.127  0.4375 -0.0178  0.5731
 8642TIP3    H247418   5.037   3.782  12.076 -0.7322 -0.4070 -0.0800
 8643TIP3   OH247419   1.146   4.224  13.867  0.4884 -0.2418  0.0331
 8643TIP3    H147420   1.088   4.226  13.791  0.4271  0.7155  0.0903
 8643TIP3    H247421   1.169   4.132  13.878  0.1605 -0.4403 -0.8878
 8644TIP3   OH247422   5.196   0.436   4.451  0.2949  0.4451 -0.0344
 8644TIP3    H147423   5.218   0.448   4.359  1.7321  0.2223  0.2511
 8644TIP3    H247424   5.212   0.343   4.468 -2.7556 -0.2390 -0.2165
 8645TIP3   OH247425   1.046   2.062  13.164  0.2529 -0.6639 -0.2505
 8645TIP3    H147426   1.014   1.978  13.198 -1.9469 -0.4319 -1.5470
 8645TIP3    H247427   1.100   2.039  13.089  1.3085 -0.9697  0.5771
 8646TIP3   OH247428   5.112   0.555   5.965  0.0751  0.2709 -0.0980
 8646TIP3    H147429   5.159   0.625   6.010 -0.4644  1.5079 -1.3576
 8646TIP3    H247430   5.057   0.515   6.032  0.2274  1.2112  0.6062
 8647TIP3   OH247431   2.814   2.403  12.232 -0.1409 -0.2788 -0.0454
 8647TIP3    H147432   2.743   2.340  12.219 -2.6505  2.0010  1.5797
 8647TIP3    H247433   2.870   2.362  12.298 -2.0015 -0.6766  1.3722
 8648TIP3   OH247434   1.496   6.765   4.617  0.0647  0.2127 -0.7261
 8648TIP3    H147435   1.466   6.787   4.705  0.6689  0.0461 -0.4702
 8648TIP3    H247436   1.432   6.702   4.584  0.4203 -0.5651  0.0221
 8649TIP3   OH247437   4.178   0.568   3.622  0.2241  0.0458  0.4779
 8649TIP3    H147438   4.159   0.475   3.605 -1.7465  0.3873  0.5131
 8649TIP3    H247439   4.166   0.578   3.716  1.3013  0.1872  0.6145
 8650TIP3   OH247440   3.493   6.097  16.833  0.0284 -0.2815  0.3004
 8650TIP3    H147441   3.549   6.020  16.835  0.3443 -0.0750 -0.1302
 8650TIP3    H247442   3.415   6.070  16.785 -1.1946 -1.1592  2.6340
 8651TIP3   OH247443   3.852   4.875   2.003  0.3365 -0.2895 -0.1615
 8651TIP3    H147444   3.794   4.800   1.996  1.2834 -1.0743  0.0797
 8651TIP3    H247445   3.825   4.934   1.933 -2.0840  0.3550  1.1810
 8652TIP3   OH247446   5.679   5.047  13.445  0.2153  0.0432  0.5040
 8652TIP3    H147447   5.646   4.985  13.381 -1.4449  1.5040 -0.1264
 8652TIP3    H247448   5.689   5.129  13.396  1.9805  0.4156  1.3979
 8653TIP3   OH247449   1.594   6.794   0.309  0.2046  0.1922  0.1708
 8653TIP3    H147450   1.570   6.709   0.274  0.2156  0.7445 -1.2280
 8653TIP3    H247451   1.523   6.852   0.281  0.4592  0.7561  0.6659
 8654TIP3   OH247452   0.145   3.551  13.512  0.2261 -0.0662 -0.8275
 8654TIP3    H147453   0.202   3.610  13.563  0.1013 -0.4368 -0.2491
 8654TIP3    H247454   0.067   3.540  13.567 -1.6447  2.5247 -2.7140
 8655TIP3   OH247455   3.963   2.337  12.599  0.1503 -0.4287 -0.1456
 8655TIP3    H147456   3.968   2.294  12.513 -0.5748 -0.7845 -0.0152
 8655TIP3    H247457   4.053   2.363  12.617  0.0594  1.3458 -1.8750
 8656TIP3   OH247458   2.456   4.039   4.449 -0.1140 -0.0433  0.7133
 8656TIP3    H147459   2.528   4.077   4.399  0.3783 -0.5427  1.0313
 8656TIP3    H247460   2.452   3.948   4.419  1.0462 -0.7321  2.5030
 8657TIP3   OH247461   3.758   2.091   5.230 -0.1931 -0.4577  0.4209
 8657TIP3    H147462   3.671   2.055   5.210 -0.0058 -1.8287  1.8904
 8657TIP3    H247463   3.742   2.151   5.302  0.0625 -0.6769  0.6605
 8658TIP3   OH247464   3.619   0.614   2.601 -0.1011  0.0908  0.8902
 8658TIP3    H147465   3.704   0.657   2.594 -0.4015  0.5165 -0.4953
 8658TIP3    H247466   3.622   0.542   2.537 -0.7840  0.1358  0.7921
 8659TIP3   OH247467   5.236   4.920   3.496 -0.4028  0.2091  0.1170
 8659TIP3    H147468   5.287   4.912   3.416 -0.0101  0.7380  0.3046
 8659TIP3    H247469   5.258   5.007   3.530 -2.3155  0.9698 -0.4064
 8660TIP3   OH247470   6.019   6.752   4.456  0.5130 -0.2268  0.2304
 8660TIP3    H147471   5.992   6.677   4.403 -0.7998  0.3978 -0.0461
 8660TIP3    H247472   5.999   6.726   4.546  2.0937 -1.0227  0.3667
 8661TIP3   OH247473   4.091   4.758   6.120  1.0672  0.2613 -0.0992
 8661TIP3    H147474   4.182   4.753   6.150  1.9318  2.3717 -2.0469
 8661TIP3    H247475   4.060   4.841   6.156  0.7399  0.7348 -1.4386
 8662TIP3   OH247476   6.226   1.903   6.428 -0.7329 -0.0014  0.5521
 8662TIP3    H147477   6.179   1.850   6.493 -0.4868 -2.2055 -0.9723
 8662TIP3    H247478   6.318   1.879   6.439 -0.5571  0.4708  0.1567
 8663TIP3   OH247479   4.706   5.204   4.456  0.2628 -0.2870 -0.3618
 8663TIP3    H147480   4.794   5.167   4.443 -0.0433 -0.7606 -1.1442
 8663TIP3    H247481   4.672   5.217   4.368  0.0490  1.1655 -0.0937
 8664TIP3   OH247482   5.298   2.008  14.711  0.2455  0.0373 -0.2303
 8664TIP3    H147483   5.241   2.037  14.640  0.7177  2.0948  0.1818
 8664TIP3    H247484   5.386   2.012  14.675  0.5474  1.6810  0.6013
 8665TIP3   OH247485   0.028   0.686  15.995  0.0122  0.4655 -0.0164
 8665TIP3    H147486   0.117   0.675  16.028  0.4586  1.0218 -0.9766
 8665TIP3    H247487  -0.029   0.662  16.068  0.9526  0.9647  0.8983
 8666TIP3   OH247488   0.062   5.153  15.200 -0.0293 -0.3377  0.4019
 8666TIP3    H147489   0.076   5.135  15.293 -0.5660  2.1281  1.0386
 8666TIP3    H247490  -0.028   5.125  15.183 -0.0494 -0.4581  0.7096
 8667TIP3   OH247491   2.513   3.032  11.295 -0.4880  0.4501  0.5888
 8667TIP3    H147492   2.505   2.948  11.249  1.5078  0.3685  0.3408
 8667TIP3    H247493   2.433   3.079  11.270 -0.7797 -0.6532 -0.7435
 8668TIP3   OH247494   4.045   1.577   4.561 -0.0453  0.2567  0.5845
 8668TIP3    H147495   4.131   1.568   4.602  0.0837 -1.1093  0.0658
 8668TIP3    H247496   4.064   1.606   4.472 -0.0427 -0.9067  0.1894
 8669TIP3   OH247497   5.353   6.687  14.267  0.4742  0.1208 -0.3158
 8669TIP3    H147498   5.341   6.657  14.357  0.8063 -0.3154 -0.4131
 8669TIP3    H247499   5.436   6.734  14.268  1.7827 -2.0244 -0.8967
 8670TIP3   OH247500   5.164   2.897   1.253 -0.0854 -0.0724 -0.0016
 8670TIP3    H147501   5.096   2.958   1.283  1.0034  1.4686 -0.5894
 8670TIP3    H247502   5.211   2.873   1.332 -0.2560  0.1686  0.1750
 8671TIP3   OH247503   0.837   3.604   0.211 -0.1038 -0.2757 -0.5072
 8671TIP3    H147504   0.757   3.638   0.252  1.1840 -0.4982  2.4053
 8671TIP3    H247505   0.866   3.675   0.153 -1.1154  0.7998  0.2515
 8672TIP3   OH247506   4.175   3.067   5.406 -0.5240  0.2972  0.2128
 8672TIP3    H147507   4.163   3.046   5.499 -0.3215 -0.2370  0.1245
 8672TIP3    H247508   4.149   3.159   5.398 -0.1448  0.4637  0.8739
 8673TIP3   OH247509   0.056   5.456   1.852  0.4510 -0.1515  0.3358
 8673TIP3    H147510   0.033   5.459   1.759  0.7392  0.7967  0.2873
 8673TIP3    H247511  -0.028   5.443   1.897  0.0932  0.9623  0.0223
 8674TIP3   OH247512   6.561   3.650  14.853  0.0822 -1.1741 -0.2276
 8674TIP3    H147513   6.652   3.623  14.860  0.1238 -1.2367 -0.9182
 8674TIP3    H247514   6.514   3.572  14.823 -0.0412 -0.9001 -0.7706
 8675TIP3   OH247515   2.798   3.700  11.179  0.4157 -0.2133 -0.1327
 8675TIP3    H147516   2.765   3.623  11.133 -0.4979 -0.3131  0.6461
 8675TIP3    H247517   2.748   3.702  11.261  0.4941  1.1414 -0.0915
 8676TIP3   OH247518   6.003   2.119   5.025 -0.5421  0.3834  1.0165
 8676TIP3    H147519   6.031   2.184   5.089  1.4947  0.3022  0.3042
 8676TIP3    H247520   6.017   2.035   5.069 -2.5270  0.3680  1.6935
 8677TIP3   OH247521   4.754   3.223   0.654 -0.5397 -0.3052 -0.0771
 8677TIP3    H147522   4.839   3.179   0.659  0.1685  1.0150 -0.1314
 8677TIP3    H247523   4.733   3.244   0.745 -0.2072  0.4330 -0.1573
 8678TIP3   OH247524   1.919   3.563   3.576 -0.8726  0.2993  0.4426
 8678TIP3    H147525   2.003   3.544   3.533 -1.4250  1.2349 -1.1299
 8678TIP3    H247526   1.942   3.620   3.649  0.1593 -1.7915  1.8445
 8679TIP3   OH247527   5.138   4.018  14.273 -0.0583 -0.4703 -0.0349
 8679TIP3    H147528   5.225   4.058  14.268 -0.3479  0.0297 -2.2416
 8679TIP3    H247529   5.121   4.009  14.367  1.8684  0.5156  0.4637
 8680TIP3   OH247530   6.387   6.399  11.729 -0.3408 -0.2918  0.1883
 8680TIP3    H147531   6.430   6.325  11.687  1.1485  0.5684  0.1107
 8680TIP3    H247532   6.436   6.412  11.811 -1.7398 -0.5116  1.0959
 8681TIP3   OH247533   1.663   2.799   2.349  0.2783  0.3080  0.0898
 8681TIP3    H147534   1.681   2.797   2.255  1.8321 -0.0217  0.3627
 8681TIP3    H247535   1.713   2.725   2.385 -2.5052 -1.3594  0.8483
 8682TIP3   OH247536   5.268   4.476  13.319  0.0370  0.3404 -0.4944
 8682TIP3    H147537   5.284   4.426  13.239  1.0977  2.1513 -1.4904
 8682TIP3    H247538   5.344   4.457  13.374 -1.1899 -1.7192  0.5838
 8683TIP3   OH247539   2.269   6.694   3.378  0.2392  0.3196  0.0040
 8683TIP3    H147540   2.281   6.622   3.440 -0.2484  0.5673  0.3860
 8683TIP3    H247541   2.328   6.763   3.409  0.2663  0.3062 -0.0183
 8684TIP3   OH247542   3.948   2.694   3.689 -0.6991  0.1063  0.4908
 8684TIP3    H147543   3.887   2.676   3.617 -0.5172 -0.4279  0.4600
 8684TIP3    H247544   3.965   2.607   3.727  1.0776  0.0537 -0.3413
 8685TIP3   OH247545   5.347   6.071   2.791  1.0774 -0.0808  0.5303
 8685TIP3    H147546   5.349   6.113   2.877  0.4563 -1.2469  1.1316
 8685TIP3    H247547   5.439   6.064   2.764  1.3873 -1.0516  1.7737
 8686TIP3   OH247548   3.764   3.798  15.530  0.3040 -0.0526  0.3027
 8686TIP3    H147549   3.710   3.864  15.486 -0.1853  0.9627  2.3142
 8686TIP3    H247550   3.854   3.822  15.508  0.1107  1.0275  0.6541
 8687TIP3   OH247551   0.227   5.006   5.285  0.4201  0.2835 -0.5356
 8687TIP3    H147552   0.169   4.940   5.248  0.2656 -1.5747  2.6929
 8687TIP3    H247553   0.178   5.088   5.278 -1.6658 -0.8376  0.0267
 8688TIP3   OH247554   6.597   1.970  16.965 -0.0160 -0.3657 -0.0551
 8688TIP3    H147555   6.632   2.058  16.960 -0.4354 -0.1752  0.3198
 8688TIP3    H247556   6.513   1.980  17.009 -1.7800 -0.4443 -3.1261
 8689TIP3   OH247557   4.620   2.518   0.657  0.0678  0.7334 -0.3583
 8689TIP3    H147558   4.623   2.591   0.719 -0.6569  1.4033 -1.0809
 8689TIP3    H247559   4.643   2.557   0.573 -1.3142  0.3552 -0.9412
 8690TIP3   OH247560   6.217   6.146   1.726 -0.3161  0.3128  0.2302
 8690TIP3    H147561   6.203   6.052   1.726 -2.2953  0.5701 -0.8701
 8690TIP3    H247562   6.273   6.162   1.802  1.3456 -1.8969 -0.4453
 8691TIP3   OH247563   5.134   0.386  17.266  0.1831  0.0593 -0.5161
 8691TIP3    H147564   5.228   0.386  17.287  0.6664  0.8374 -2.5171
 8691TIP3    H247565   5.112   0.294  17.255  1.1257 -0.0407 -1.7078
 8692TIP3   OH247566   4.453   0.118   1.029 -0.4378  0.2009  0.1025
 8692TIP3    H147567   4.530   0.159   1.069 -0.6433 -0.7793  1.5703
 8692TIP3    H247568   4.485   0.086   0.944  0.0314  2.2590 -0.5735
 8693TIP3   OH247569   0.529   5.525   4.359  0.2084  0.1841  0.0054
 8693TIP3    H147570   0.564   5.609   4.329 -0.4201 -0.2485 -2.1004
 8693TIP3    H247571   0.583   5.460   4.315 -2.0006 -0.4829 -1.9561
 8694TIP3   OH247572   1.292   4.783   2.664 -0.1054 -0.5011  0.5035
 8694TIP3    H147573   1.225   4.768   2.597  0.6049  0.9240 -0.5949
 8694TIP3    H247574   1.290   4.878   2.679  1.3272 -0.4898  0.7757
 8695TIP3   OH247575   2.981   1.301  13.555 -0.5119 -0.1851 -0.3194
 8695TIP3    H147576   3.067   1.316  13.517 -0.2948  1.2108  0.6270
 8695TIP3    H247577   2.955   1.215  13.524  1.9581 -1.3842  0.7033
 8696TIP3   OH247578   0.669   2.939  13.977 -0.7392 -0.0645  0.4911
 8696TIP3    H147579   0.722   2.901  14.046 -0.7316  0.5543  0.8310
 8696TIP3    H247580   0.596   2.982  14.023 -1.3666 -0.6404  0.0509
 8697TIP3   OH247581   5.153   3.012  11.324 -0.3547  0.0024  0.6272
 8697TIP3    H147582   5.099   2.938  11.298 -2.7385  2.0066 -0.4590
 8697TIP3    H247583   5.200   3.037  11.244  1.9820 -1.3856  1.4327
 8698TIP3   OH247584   0.599   1.875   0.756  0.7073 -0.8181  0.3637
 8698TIP3    H147585   0.573   1.949   0.812 -0.5497  0.3477 -1.6261
 8698TIP3    H247586   0.545   1.802   0.786  0.8095 -0.5054  1.3341
 8699TIP3   OH247587   1.758   4.544   2.033  0.2664  0.4715  0.4407
 8699TIP3    H147588   1.828   4.609   2.031 -0.0043  0.7561 -0.4298
 8699TIP3    H247589   1.747   4.522   2.125  1.4401  0.4869  0.5952
 8700TIP3   OH247590   2.754   5.031   1.911 -0.6811 -0.6346  0.7388
 8700TIP3    H147591   2.767   4.938   1.930  1.1722 -0.5288  0.1742
 8700TIP3    H247592   2.742   5.035   1.816  2.1421 -0.0893  0.3306
 8701TIP3   OH247593   6.508   1.186  17.279  0.1595 -0.4976 -0.0163
 8701TIP3    H147594   6.451   1.112  17.261  1.4198 -1.2715 -0.9642
 8701TIP3    H247595   6.536   1.174  17.370  0.0974 -1.0055 -0.0640
 8702TIP3   OH247596   0.123   3.830   5.524 -0.5067  0.5550 -0.0006
 8702TIP3    H147597   0.082   3.892   5.464 -1.6555  1.8523  2.0435
 8702TIP3    H247598   0.217   3.839   5.506 -0.4593  4.1157  1.2436
 8703TIP3   OH247599   6.114   0.183   4.761  0.1366 -0.0729  0.0744
 8703TIP3    H147600   6.081   0.262   4.717  2.3408  0.9838  0.2212
 8703TIP3    H247601   6.072   0.185   4.847  1.2338  1.7495  0.6163
 8704TIP3   OH247602   6.073   1.066   4.112  0.0807 -0.5817 -0.2754
 8704TIP3    H147603   6.163   1.071   4.144 -0.1360 -0.0826  0.2876
 8704TIP3    H247604   6.026   1.016   4.179  0.1242 -1.6506 -1.0241
 8705TIP3   OH247605   4.794   4.554   3.789  0.1312  0.2025 -0.1406
 8705TIP3    H147606   4.855   4.552   3.862  0.8130 -1.1327 -0.7032
 8705TIP3    H247607   4.709   4.573   3.829  0.5686 -0.0142  0.9313
 8706TIP3   OH247608   3.995   3.917  15.427 -0.1000 -0.7852  0.4933
 8706TIP3    H147609   4.003   3.905  15.332 -2.2661  0.7018  0.0450
 8706TIP3    H247610   4.030   4.004  15.444 -1.8772 -0.0468  0.6216
 8707TIP3   OH247611   6.031   6.517  15.160 -0.3792  0.5174  0.0889
 8707TIP3    H147612   5.957   6.578  15.164 -1.3544 -0.6714  1.2330
 8707TIP3    H247613   5.997   6.436  15.199  0.7563 -0.8907 -1.7164
 8708TIP3   OH247614   0.679   2.960  11.487  0.0082 -0.3600  0.2646
 8708TIP3    H147615   0.680   3.054  11.507  2.0270 -0.3879  0.5357
 8708TIP3    H247616   0.725   2.953  11.404 -0.8643 -1.0476 -0.1675
 8709TIP3   OH247617   3.973   4.355  14.014  0.0461 -0.1392 -0.3483
 8709TIP3    H147618   3.975   4.414  14.090 -0.5769  0.0641 -0.4824
 8709TIP3    H247619   4.007   4.272  14.047  0.7691  0.2430 -0.1099
 8710TIP3   OH247620   4.108   1.408   5.208  0.1898  0.2726 -0.0435
 8710TIP3    H147621   4.023   1.442   5.238 -0.3583 -0.5291 -0.6490
 8710TIP3    H247622   4.087   1.357   5.130  1.5174  1.9464 -1.5868
 8711TIP3   OH247623   5.764   1.797   0.098  0.1430 -0.2368 -0.4046
 8711TIP3    H147624   5.764   1.764   0.187  0.7320  1.2819  0.1842
 8711TIP3    H247625   5.759   1.719   0.043  0.5415 -1.2234  0.9379
 8712TIP3   OH247626   1.892   3.559  13.218  0.1305  0.2210  0.1891
 8712TIP3    H147627   1.887   3.471  13.182  1.0609  0.2565 -0.0593
 8712TIP3    H247628   1.840   3.613  13.159 -1.5892 -0.3741  1.1068
 8713TIP3   OH247629   1.021   6.426  16.992  0.2028  0.6099 -0.0657
 8713TIP3    H147630   1.010   6.520  16.973  0.1637  0.4978 -0.6329
 8713TIP3    H247631   0.977   6.413  17.076 -3.0375  0.4063 -1.6421
 8714TIP3   OH247632   4.931   2.790  11.987 -0.3845  0.6225  0.0272
 8714TIP3    H147633   4.854   2.832  11.949 -0.5341  0.6530  0.3587
 8714TIP3    H247634   5.004   2.818  11.931 -0.5377  1.0142  0.0188
 8715TIP3   OH247635   2.568   4.740   3.363  0.3753 -0.1412 -0.0176
 8715TIP3    H147636   2.625   4.737   3.440  0.8587  0.4475 -0.3481
 8715TIP3    H247637   2.627   4.728   3.289 -0.1166 -0.9264 -0.2971
 8716TIP3   OH247638   1.876   3.590  11.951  0.7486  0.2496  0.9463
 8716TIP3    H147639   1.804   3.615  12.009  0.3327 -0.7829  0.8871
 8716TIP3    H247640   1.871   3.495  11.945  0.7373  0.3211 -0.8394
 8717TIP3   OH247641   2.637   0.450  10.551 -0.2595  0.0239 -0.3472
 8717TIP3    H147642   2.671   0.533  10.518 -1.4271  0.1165 -1.4170
 8717TIP3    H247643   2.561   0.474  10.604 -0.9467 -0.3681 -1.1229
 8718TIP3   OH247644   6.653   6.352  17.104 -0.0127  0.1371  0.1041
 8718TIP3    H147645   6.676   6.318  17.190 -4.8932 -1.9072  0.9751
 8718TIP3    H247646   6.672   6.280  17.044  0.1401  0.2085  0.0670
 8719TIP3   OH247647   5.873   4.240  15.567  0.6471 -0.4666 -0.2930
 8719TIP3    H147648   5.889   4.174  15.634 -1.0068 -0.8558 -0.2504
 8719TIP3    H247649   5.802   4.294  15.602 -1.5656 -1.8000 -2.4556
 8720TIP3   OH247650   4.752   3.301  11.179  0.5145  0.4762 -0.3286
 8720TIP3    H147651   4.719   3.299  11.269  0.8101  0.4849 -0.2184
 8720TIP3    H247652   4.707   3.374  11.138  0.7729  0.8026 -0.0330
 8721TIP3   OH247653   3.054   3.785  13.355 -0.3006  0.0053  0.2686
 8721TIP3    H147654   3.012   3.847  13.415 -2.0461  1.4304 -2.1922
 8721TIP3    H247655   3.128   3.833  13.319 -0.5890  0.0131 -0.3281
 8722TIP3   OH247656   6.611   3.641  10.750 -0.4078  0.3431  0.8270
 8722TIP3    H147657   6.549   3.714  10.751 -0.2239  0.7553 -2.8936
 8722TIP3    H247658   6.697   3.683  10.761 -0.2490  0.8933 -1.9317
 8723TIP3   OH247659   4.305   0.285   2.412 -0.0301 -0.8969  0.4696
 8723TIP3    H147660   4.338   0.373   2.393  0.6527 -0.9766  1.2179
 8723TIP3    H247661   4.224   0.300   2.461  0.5891 -0.6567  1.4532
 8724TIP3   OH247662   1.061   6.028  16.033  0.0049  0.4312 -0.6789
 8724TIP3    H147663   1.090   6.067  15.950  1.1853 -1.0553 -1.0143
 8724TIP3    H247664   1.114   5.948  16.042  1.0727  1.3126  2.2621
 8725TIP3   OH247665   2.980   0.194  16.254 -0.4685 -0.0754  0.1995
 8725TIP3    H147666   2.989   0.240  16.171  0.7130  0.7203  0.7446
 8725TIP3    H247667   2.956   0.262  16.317  0.6922 -0.2827  0.9006
 8726TIP3   OH247668   0.322   3.351   5.391 -0.1361  0.6473 -0.1747
 8726TIP3    H147669   0.344   3.376   5.301 -0.1220 -2.2949 -1.1134
 8726TIP3    H247670   0.402   3.366   5.441  2.4177 -4.0941 -2.2330
 8727TIP3   OH247671   5.011   4.930  13.500  0.5111  0.4592  0.1274
 8727TIP3    H147672   5.045   4.869  13.434  0.6103  1.7637 -1.0983
 8727TIP3    H247673   4.992   5.010  13.450 -1.0316  0.9340  1.4053
 8728TIP3   OH247674   1.994   4.192  16.797  0.5165  0.3193  0.3858
 8728TIP3    H147675   1.919   4.162  16.848  0.6111 -1.5635 -0.5066
 8728TIP3    H247676   2.069   4.178  16.854  0.3905  0.4224  0.5793
 8729TIP3   OH247677   0.508   2.931  12.319  0.1575 -0.4030 -0.1284
 8729TIP3    H147678   0.587   2.972  12.353 -1.0881  1.8023  0.3018
 8729TIP3    H247679   0.476   2.876  12.391  0.0596  0.5186  0.5358
 8730TIP3   OH247680   3.937   5.860   0.189  0.1795 -0.3338  0.4310
 8730TIP3    H147681   3.892   5.819   0.115  0.9357 -0.2955 -0.0718
 8730TIP3    H247682   3.868   5.880   0.252 -0.6439  0.6993 -0.7518
 8731TIP3   OH247683   3.329   4.783  12.991  0.1963 -0.5360 -0.2349
 8731TIP3    H147684   3.424   4.794  12.988  0.3446 -1.4341  0.5389
 8731TIP3    H247685   3.311   4.757  13.082 -0.6602 -1.4144 -0.6384
 8732TIP3   OH247686   1.670   6.085  16.563 -0.0915  0.1776  0.0003
 8732TIP3    H147687   1.696   6.131  16.483 -0.0526 -0.7034 -0.5072
 8732TIP3    H247688   1.615   6.147  16.610  1.2972  1.3444  0.1262
 8733TIP3   OH247689   6.615   1.987   0.519 -0.9875 -0.0526  0.1762
 8733TIP3    H147690   6.593   2.071   0.477 -1.1822  0.2014  0.7760
 8733TIP3    H247691   6.627   1.927   0.446 -0.9238  0.4807 -0.2623
 8734TIP3   OH247692   5.286   4.832  10.466  0.3118 -0.0508  0.1871
 8734TIP3    H147693   5.251   4.761  10.521  1.7791  0.8719  2.5045
 8734TIP3    H247694   5.368   4.797  10.432  1.1712  0.5313  1.5485
 8735TIP3   OH247695   5.959   3.087   3.370 -0.0062 -0.0012  0.0025
 8735TIP3    H147696   6.038   3.075   3.317  0.9360 -0.6166  1.4714
 8735TIP3    H247697   5.904   3.011   3.349 -0.5564  0.7790 -1.5366
 8736TIP3   OH247698   1.149   4.911  14.763 -0.0287  0.2461  0.2074
 8736TIP3    H147699   1.232   4.928  14.720 -0.1643  1.7521  0.4918
 8736TIP3    H247700   1.117   4.830  14.722  0.6235  0.7256 -1.3328
 8737TIP3   OH247701   6.402   3.770  16.041 -0.3550 -0.1190 -0.1152
 8737TIP3    H147702   6.322   3.723  16.017  0.2168 -1.7751  1.0539
 8737TIP3    H247703   6.466   3.743  15.975 -0.4373  0.3044 -0.3752
 8738TIP3   OH247704   0.660   0.142   4.322 -0.3128 -0.1129  0.1763
 8738TIP3    H147705   0.722   0.071   4.304 -1.7517 -1.3407 -0.1804
 8738TIP3    H247706   0.611   0.113   4.399  0.1536  1.2694  1.0340
 8739TIP3   OH247707   4.160   5.001  13.551 -0.5922 -0.4843 -0.0954
 8739TIP3    H147708   4.155   5.049  13.634 -1.1088  1.4253 -1.1527
 8739TIP3    H247709   4.121   5.061  13.487  1.5728 -1.0448 -2.0763
 8740TIP3   OH247710   6.594   1.381  15.457 -0.0516  0.4740  0.0604
 8740TIP3    H147711   6.515   1.408  15.504  0.5238  0.6149  0.9819
 8740TIP3    H247712   6.666   1.400  15.518  0.8684  1.9454 -1.4159
 8741TIP3   OH247713   3.139   5.742   2.755  0.0726  0.2318  0.6106
 8741TIP3    H147714   3.100   5.724   2.669  3.7326 -0.2374 -1.1494
 8741TIP3    H247715   3.144   5.657   2.798  0.3277  0.0943  0.3080
 8742TIP3   OH247716   3.120   3.124  12.162  0.1634 -0.4193  0.4097
 8742TIP3    H147717   3.038   3.173  12.166  0.4330  0.1239 -0.3917
 8742TIP3    H247718   3.145   3.112  12.254 -0.2379  0.3999  0.6360
 8743TIP3   OH247719   4.884   0.369   2.205  0.6156 -0.4547 -0.2890
 8743TIP3    H147720   4.963   0.360   2.153  0.3007 -2.3569 -0.4871
 8743TIP3    H247721   4.905   0.328   2.289  0.2610  0.2299  0.1492
 8744TIP3   OH247722   1.600   6.532  15.259  0.1645  0.4681  0.3861
 8744TIP3    H147723   1.608   6.626  15.279  0.4230  0.5039  0.1285
 8744TIP3    H247724   1.613   6.527  15.164 -0.1627  0.2059  0.3571
 8745TIP3   OH247725   3.375   0.194  13.364 -0.0088  0.1006  0.1481
 8745TIP3    H147726   3.343   0.212  13.453 -0.5425  1.1621 -0.2561
 8745TIP3    H247727   3.337   0.262  13.310  0.4503 -0.4454 -0.8843
 8746TIP3   OH247728   0.514   4.420  17.309 -0.0515 -0.7972  0.1358
 8746TIP3    H147729   0.517   4.515  17.301  1.2268 -0.8363 -0.0063
 8746TIP3    H247730   0.447   4.393  17.246 -1.1090  0.0552  0.8452
 8747TIP3   OH247731   0.011   3.475   0.662 -0.2195  0.7497  0.4452
 8747TIP3    H147732  -0.019   3.499   0.749 -4.0782  0.7272 -0.6940
 8747TIP3    H247733   0.039   3.384   0.669 -1.2712  0.4990  1.4984
 8748TIP3   OH247734   0.275   5.111   4.552 -0.8313 -0.4989 -0.2654
 8748TIP3    H147735   0.272   5.176   4.481  0.5001  0.2680  0.3224
 8748TIP3    H247736   0.367   5.112   4.580 -1.4289 -0.3233  1.8613
 8749TIP3   OH247737   2.154   2.021  15.468 -0.5215  0.4577  0.4202
 8749TIP3    H147738   2.246   2.038  15.487 -0.0115 -0.9357 -0.6830
 8749TIP3    H247739   2.129   2.090  15.406 -0.1500  0.6708  0.5030
 8750TIP3   OH247740   5.584   0.896   3.538  0.4766  0.2643 -0.1124
 8750TIP3    H147741   5.536   0.935   3.465  0.2243  0.8668  0.3640
 8750TIP3    H247742   5.676   0.899   3.511  0.3988  0.6257 -0.3411
 8751TIP3   OH247743   4.672   6.685  12.204  0.1458 -0.6963 -0.0161
 8751TIP3    H147744   4.594   6.636  12.227  0.8494 -1.5038  0.7419
 8751TIP3    H247745   4.701   6.723  12.287 -0.4792  1.2000 -0.6003
 8752TIP3   OH247746   3.880   1.024  15.529 -0.5391  0.6219 -0.2982
 8752TIP3    H147747   3.790   1.032  15.561 -0.2095 -0.8640  1.1484
 8752TIP3    H247748   3.933   1.068  15.595 -0.1158  0.5463 -0.5859
 8753TIP3   OH247749   1.272   3.386  11.865  0.0149 -0.1152  0.5472
 8753TIP3    H147750   1.251   3.295  11.888  0.0743  0.5262  3.6850
 8753TIP3    H247751   1.189   3.423  11.837 -0.8880 -0.2960  2.7472
 8754TIP3   OH247752   2.873   4.769  16.717  0.0264  0.3459  0.0596
 8754TIP3    H147753   2.866   4.785  16.623  2.5590 -0.2249 -0.2785
 8754TIP3    H247754   2.796   4.813  16.754 -0.4209  1.5694 -2.1437
 8755TIP3   OH247755   4.104   6.547  15.504 -0.7405 -0.2771  0.5231
 8755TIP3    H147756   4.168   6.494  15.551 -0.3296  0.6116  0.9997
 8755TIP3    H247757   4.149   6.574  15.424 -0.3523  0.7002  1.0593
 8756TIP3   OH247758   0.651   3.947   3.225  0.4671 -0.3221 -0.2352
 8756TIP3    H147759   0.594   4.006   3.273  1.3020  1.1035 -0.9399
 8756TIP3    H247760   0.594   3.907   3.159  0.1954  0.7756 -0.6759
 8757TIP3   OH247761   2.123   3.040   4.866 -0.2542 -0.7300 -0.8027
 8757TIP3    H147762   2.179   3.020   4.791 -1.1698  1.6595 -2.2257
 8757TIP3    H247763   2.139   3.133   4.884 -1.9968 -0.5994  0.2651
 8758TIP3   OH247764   0.595   6.796   1.680  0.2706  0.1189 -0.4140
 8758TIP3    H147765   0.616   6.872   1.625 -0.5077 -0.2153 -1.1895
 8758TIP3    H247766   0.505   6.774   1.658  0.1084 -0.3389  0.6460
 8759TIP3   OH247767   5.910   5.938  11.253  0.2922  0.0069 -0.0891
 8759TIP3    H147768   5.836   5.982  11.293  0.8829  1.5509 -0.6475
 8759TIP3    H247769   5.877   5.850  11.232 -1.2107  0.4961  0.1214
 8760TIP3   OH247770   5.503   0.556  14.492 -0.0956 -0.0196 -0.2271
 8760TIP3    H147771   5.411   0.568  14.469 -0.1907 -1.0449 -0.4616
 8760TIP3    H247772   5.501   0.497  14.567  0.2521  2.5795  1.9705
 8761TIP3   OH247773   1.328   4.776  12.076 -0.0526  0.9654  0.1554
 8761TIP3    H147774   1.318   4.862  12.115  1.3918  0.6140  1.4141
 8761TIP3    H247775   1.251   4.727  12.104 -1.3533  2.0584 -1.3178
 8762TIP3   OH247776   5.807   6.240  11.647 -0.1127  0.0659  0.3071
 8762TIP3    H147777   5.805   6.330  11.615 -1.2209  0.7338  2.1255
 8762TIP3    H247778   5.789   6.247  11.741  0.0279 -2.0361  0.5391
 8763TIP3   OH247779   6.706   6.591   1.162 -0.5123  0.0283  0.3025
 8763TIP3    H147780   6.752   6.580   1.079 -0.0678 -0.8406  0.6491
 8763TIP3    H247781   6.761   6.650   1.213 -0.3147 -0.1705  0.3207
 8764TIP3   OH247782   6.109   3.157   1.182  0.2215 -0.1919 -0.1667
 8764TIP3    H147783   6.068   3.231   1.136 -0.1715  0.5508  1.3124
 8764TIP3    H247784   6.178   3.128   1.123  1.4840  2.4318 -0.1433
 8765TIP3   OH247785   4.094   4.582   3.740  0.5744 -0.6622  0.2759
 8765TIP3    H147786   4.060   4.541   3.819  1.0439  0.4999  1.0999
 8765TIP3    H247787   4.190   4.574   3.748  0.7537  1.6516  1.0905
 8766TIP3   OH247788   1.037   2.101   2.162 -0.1174 -0.2569  0.1587
 8766TIP3    H147789   1.096   2.126   2.233  1.0635 -0.1097 -0.8340
 8766TIP3    H247790   1.074   2.020   2.128  0.9983  1.0692 -2.0460
 8767TIP3   OH247791   3.879   1.209  13.201  0.4944  0.2176 -0.3015
 8767TIP3    H147792   3.853   1.228  13.291 -1.3649 -0.6717 -0.6009
 8767TIP3    H247793   3.896   1.296  13.163 -1.1822  0.8367  0.2384
 8768TIP3   OH247794   5.912   5.729  10.624  1.0253 -0.1632  0.4404
 8768TIP3    H147795   5.931   5.636  10.621  1.0434 -0.1489 -1.9521
 8768TIP3    H247796   5.831   5.739  10.574  0.8733  1.0684  0.9001
 8769TIP3   OH247797   6.606   3.301  16.570  0.4408 -0.3170 -0.2079
 8769TIP3    H147798   6.548   3.362  16.525 -0.0508 -0.2476  0.4890
 8769TIP3    H247799   6.559   3.218  16.569  0.6314 -0.4245 -0.2262
 8770TIP3   OH247800   0.980   3.998  15.775 -0.0220 -0.2441  0.0222
 8770TIP3    H147801   0.980   3.945  15.695 -1.6995  0.2432 -0.3398
 8770TIP3    H247802   0.907   3.964  15.826  0.2325  0.3090  0.7731
 8771TIP3   OH247803   1.218   6.476   5.330 -0.1336  0.3099 -0.1850
 8771TIP3    H147804   1.308   6.485   5.362 -0.1569  0.2472 -0.1012
 8771TIP3    H247805   1.227   6.451   5.238 -0.0654  0.1486 -0.1333
 8772TIP3   OH247806   0.669   6.282  12.798 -0.5817 -0.7430  0.0217
 8772TIP3    H147807   0.764   6.292  12.794 -0.5475 -0.1782  1.5416
 8772TIP3    H247808   0.652   6.239  12.881 -1.6964 -0.1398  0.1352
 8773TIP3   OH247809   3.772   0.076   1.198 -0.1940 -0.0570  0.3271
 8773TIP3    H147810   3.684   0.047   1.173  0.7693 -0.8571 -2.6096
 8773TIP3    H247811   3.824  -0.004   1.199  0.9084  0.6301 -0.1241
 8774TIP3   OH247812   5.217   2.851   2.605 -0.2433 -0.2177  0.1523
 8774TIP3    H147813   5.136   2.878   2.562  0.4199  2.1911  0.2571
 8774TIP3    H247814   5.218   2.899   2.688  1.1397 -0.4420  0.2953
 8775TIP3   OH247815   3.517   5.267  11.405 -0.0462 -0.1103 -0.4373
 8775TIP3    H147816   3.609   5.282  11.380 -0.0081 -0.9426 -0.8030
 8775TIP3    H247817   3.469   5.336  11.359  0.4166  0.5000 -0.0344
 8776TIP3   OH247818   0.082   3.812   4.851 -0.5654  0.7389  0.3621
 8776TIP3    H147819   0.107   3.771   4.934  0.1762  0.0572 -0.1841
 8776TIP3    H247820   0.166   3.829   4.807 -0.9113  1.8377  0.0928
 8777TIP3   OH247821   2.710   0.441   1.509 -0.4925  0.0459  0.4658
 8777TIP3    H147822   2.723   0.367   1.450  0.1145  0.3218  0.2377
 8777TIP3    H247823   2.786   0.440   1.567 -0.8659  0.0395  0.9583
 8778TIP3   OH247824   1.149   3.068  13.589  0.5823 -0.2880  0.7001
 8778TIP3    H147825   1.110   3.145  13.547  0.0689 -0.3476  1.0588
 8778TIP3    H247826   1.074   3.017  13.618  0.9209 -0.9767  0.3748
 8779TIP3   OH247827   0.999   4.074  14.375 -0.1130  0.1336  0.3016
 8779TIP3    H147828   1.003   4.140  14.443 -1.0895  1.0115 -0.4580
 8779TIP3    H247829   0.979   4.123  14.295  2.0940 -0.6940 -0.8756
 8780TIP3   OH247830   4.130   6.800  12.436 -0.0147  0.0293 -0.3551
 8780TIP3    H147831   4.139   6.754  12.353  0.1993 -0.2942 -0.1523
 8780TIP3    H247832   4.219   6.826  12.459  0.0356 -0.6226  0.1953
 8781TIP3   OH247833   6.256   2.710   1.279 -0.0307  0.4296  0.1828
 8781TIP3    H147834   6.223   2.797   1.300 -0.3056  0.0651  1.2975
 8781TIP3    H247835   6.185   2.651   1.302 -0.3293 -0.0294 -1.7159
 8782TIP3   OH247836   4.917   4.072  15.253 -0.2785  0.7224 -0.0286
 8782TIP3    H147837   4.827   4.059  15.223 -0.8853 -0.3004  2.0078
 8782TIP3    H247838   4.911   4.066  15.349  1.6926  2.4485  0.2808
 8783TIP3   OH247839   0.241   5.005  10.583  0.5103  0.3706 -0.4024
 8783TIP3    H147840   0.252   4.919  10.623 -2.1562  0.5750  1.0066
 8783TIP3    H247841   0.319   5.054  10.610  0.7747 -0.7936  1.0877
 8784TIP3   OH247842   1.193   2.243  16.411 -0.3408  0.1931 -0.2387
 8784TIP3    H147843   1.246   2.220  16.335  1.6509  1.2386  0.7517
 8784TIP3    H247844   1.257   2.269  16.478 -2.1124  3.5651  0.3714
 8785TIP3   OH247845   5.669   3.934   4.980 -0.0749  0.5583 -0.9548
 8785TIP3    H147846   5.647   3.878   4.905  3.0371 -1.5128 -0.4783
 8785TIP3    H247847   5.679   3.874   5.053 -1.3126  2.3603  0.8155
 8786TIP3   OH247848   0.675   5.943   3.291 -0.2547  1.1769 -0.3231
 8786TIP3    H147849   0.753   5.996   3.310 -0.3886  1.2527  0.0182
 8786TIP3    H247850   0.703   5.853   3.311  0.3066  0.9686 -1.9010
 8787TIP3   OH247851   1.814   5.045   6.066  0.5717 -0.2226  0.1850
 8787TIP3    H147852   1.839   4.964   6.022 -0.1714 -0.1745 -0.3353
 8787TIP3    H247853   1.719   5.051   6.053  0.4852  0.2762  0.9811
 8788TIP3   OH247854   1.335   5.773   4.980 -0.2300  0.4537  0.2732
 8788TIP3    H147855   1.243   5.764   5.004 -0.0624  0.1024  0.8202
 8788TIP3    H247856   1.349   5.707   4.912 -0.0216 -0.5793  1.2853
 8789TIP3   OH247857   4.000   0.299   5.933  0.2508 -0.1462  0.1785
 8789TIP3    H147858   4.058   0.341   5.869 -0.0792  1.0367  0.6255
 8789TIP3    H247859   3.965   0.372   5.985  0.5589 -1.0846  1.7517
 8790TIP3   OH247860   3.960   2.884  11.384  0.1534 -0.3701  0.5013
 8790TIP3    H147861   4.042   2.840  11.364  0.6519  0.2380  1.1592
 8790TIP3    H247862   3.985   2.974  11.405 -0.7552  0.0036  0.0358
 8791TIP3   OH247863   5.834   4.533   4.824 -0.8269  0.0853 -0.0411
 8791TIP3    H147864   5.927   4.513   4.824 -0.6481  0.7321 -1.5605
 8791TIP3    H247865   5.826   4.616   4.872 -0.7927 -0.5436  1.0808
 8792TIP3   OH247866   2.760   4.704  13.192 -0.0600  0.0809 -0.4175
 8792TIP3    H147867   2.760   4.608  13.190 -1.2149  0.0816 -0.9860
 8792TIP3    H247868   2.687   4.729  13.136 -1.1585  1.2578  1.4611
 8793TIP3   OH247869   1.843   1.987   2.287 -0.0476 -0.3906 -0.2017
 8793TIP3    H147870   1.771   1.930   2.312  1.3402 -1.9384  0.4443
 8793TIP3    H247871   1.859   2.041   2.365 -2.2406  1.9957 -1.2423
 8794TIP3   OH247872   0.877   0.590  14.685 -0.0898  0.7280 -0.5829
 8794TIP3    H147873   0.873   0.500  14.651 -1.2726 -1.1077  3.8129
 8794TIP3    H247874   0.970   0.612  14.681  0.4249 -1.2215 -0.6043
 8795TIP3   OH247875   5.891   4.791  16.040  0.0207 -0.0909 -0.1497
 8795TIP3    H147876   5.900   4.868  15.985  0.1210 -0.6332 -0.9182
 8795TIP3    H247877   5.980   4.761  16.056 -0.0230 -0.1559 -0.0254
 8796TIP3   OH247878   4.709   0.775  13.718 -0.5189 -0.2023  0.2861
 8796TIP3    H147879   4.620   0.757  13.686  0.0020 -0.4769 -1.0546
 8796TIP3    H247880   4.743   0.841  13.658 -0.3232  1.0363  1.6960
 8797TIP3   OH247881   3.070   4.751   0.892 -0.1682 -0.3894  0.1085
 8797TIP3    H147882   3.016   4.824   0.861 -1.5253 -0.6811  1.6218
 8797TIP3    H247883   3.035   4.674   0.847 -0.4890 -0.4550  0.4582
 8798TIP3   OH247884   4.687   3.129  15.510  0.2910 -0.3208 -0.1213
 8798TIP3    H147885   4.615   3.186  15.485  0.2215 -1.1369 -1.8638
 8798TIP3    H247886   4.670   3.046  15.466  2.1148 -0.6320 -0.3163
 8799TIP3   OH247887   4.912   2.182  16.859 -0.1230 -0.1247 -0.1720
 8799TIP3    H147888   4.918   2.146  16.770 -0.5800 -0.0058 -0.2563
 8799TIP3    H247889   4.849   2.126  16.904 -0.4905  0.2843 -0.1645
 8800TIP3   OH247890   1.307   2.927  10.936  0.3284 -0.1360 -0.0552
 8800TIP3    H147891   1.215   2.945  10.914  0.0936 -0.7026  0.4336
 8800TIP3    H247892   1.332   2.855  10.878  0.8872  0.8979 -1.1345
 8801TIP3   OH247893   4.573   2.071   4.844 -0.0714  0.8122 -0.3888
 8801TIP3    H147894   4.568   2.040   4.754 -2.4592 -0.2207 -0.0012
 8801TIP3    H247895   4.496   2.127   4.854  0.0541  0.7681  1.0291
 8802TIP3   OH247896   4.017   6.769  15.663 -0.0556 -0.4643 -0.1509
 8802TIP3    H147897   4.037   6.708  15.591 -0.1548 -0.2166 -0.3868
 8802TIP3    H247898   4.100   6.777  15.711 -0.0592 -0.8428 -0.0725
 8803TIP3   OH247899   4.987   1.332  15.814  0.2175  0.0350  0.2745
 8803TIP3    H147900   4.923   1.402  15.808  0.9417  0.7238  0.3216
 8803TIP3    H247901   4.943   1.254  15.780 -1.3743 -0.0334  2.3400
 8804TIP3   OH247902   3.567   1.867   0.571 -0.8051 -0.3620 -0.5176
 8804TIP3    H147903   3.543   1.870   0.478  0.1943 -0.7491 -0.7994
 8804TIP3    H247904   3.617   1.947   0.587  1.7336 -1.7360 -1.1235
 8805TIP3   OH247905   5.288   4.084   0.140  0.1816 -0.0612 -0.4859
 8805TIP3    H147906   5.228   4.062   0.069 -0.1011 -0.2523 -0.1900
 8805TIP3    H247907   5.232   4.110   0.212  0.4945  1.2663 -0.6936
 8806TIP3   OH247908   2.093   6.519  15.594 -0.2217 -0.5346 -0.0551
 8806TIP3    H147909   2.111   6.581  15.523 -1.5723  0.1396  0.1607
 8806TIP3    H247910   2.002   6.493  15.581 -0.1491 -1.2454  0.7994
 8807TIP3   OH247911   3.515   3.125  16.505  0.0441 -0.4107 -0.1300
 8807TIP3    H147912   3.586   3.154  16.563 -1.1796 -0.3828  1.4003
 8807TIP3    H247913   3.495   3.037  16.534 -2.1240  0.4149  1.0606
 8808TIP3   OH247914   5.528   1.955   2.540  0.5264 -0.0508  0.1748
 8808TIP3    H147915   5.478   1.879   2.568  2.1838 -1.7717 -1.2357
 8808TIP3    H247916   5.612   1.946   2.586  0.7930  0.8496 -0.1234
 8809TIP3   OH247917   2.736   5.678   5.528  0.1179  0.5680 -0.1670
 8809TIP3    H147918   2.699   5.717   5.449  0.1139  0.8089 -0.0468
 8809TIP3    H247919   2.757   5.588   5.503 -1.5829  0.0778  0.0584
 8810TIP3   OH247920   0.595   3.588   1.650 -1.1091 -0.9836  0.5969
 8810TIP3    H147921   0.625   3.636   1.727  0.6011 -2.2017  0.7430
 8810TIP3    H247922   0.604   3.650   1.578 -0.0656 -0.6976  0.9616
 8811TIP3   OH247923   4.786   5.662  11.259 -0.6100  0.2718  0.4501
 8811TIP3    H147924   4.756   5.600  11.192 -0.5592  0.8370 -0.1016
 8811TIP3    H247925   4.787   5.610  11.340  1.3833 -1.0439 -0.3233
 8812TIP3   OH247926   2.387   0.452  11.231  0.3422  0.2758  0.4061
 8812TIP3    H147927   2.468   0.403  11.216 -0.0098 -0.0275 -0.5041
 8812TIP3    H247928   2.317   0.388  11.224 -0.0933  0.8157 -0.3516
 8813TIP3   OH247929   3.715   3.200   1.264  0.3779  0.4425  0.0752
 8813TIP3    H147930   3.637   3.151   1.291  1.8406 -0.6411  2.7362
 8813TIP3    H247931   3.729   3.263   1.334  2.1453  0.2801 -0.0902
 8814TIP3   OH247932   2.548   6.650   0.962  0.2421  0.0151 -0.1173
 8814TIP3    H147933   2.513   6.681   0.879  0.4853  1.2423  0.2071
 8814TIP3    H247934   2.516   6.560   0.970 -1.3485  0.4933 -0.6572
 8815TIP3   OH247935   1.064   5.958   3.130 -0.8868  0.3729  1.0810
 8815TIP3    H147936   1.075   5.872   3.171  0.0854 -0.1429 -0.2060
 8815TIP3    H247937   1.144   6.006   3.152 -0.0540 -0.1409 -0.7040
 8816TIP3   OH247938   5.034   2.369  15.386  0.1012 -0.0175 -0.3733
 8816TIP3    H147939   5.000   2.307  15.450 -0.1016 -0.4313 -0.8816
 8816TIP3    H247940   5.126   2.347  15.378 -0.1852 -0.9144 -1.3017
 8817TIP3   OH247941   0.772   3.148  15.281  0.1663 -0.0881  0.0314
 8817TIP3    H147942   0.698   3.173  15.225  0.3205  1.2797  0.3918
 8817TIP3    H247943   0.732   3.097  15.351 -0.2914 -0.2470 -0.3388
 8818TIP3   OH247944   6.145   4.356   2.163  0.5023  0.2173  0.2622
 8818TIP3    H147945   6.155   4.447   2.193 -2.6685  1.0415 -0.8044
 8818TIP3    H247946   6.151   4.362   2.067  0.3638 -0.7152  0.1897
 8819TIP3   OH247947   2.808   2.624  16.286  0.5790  0.2851 -0.1717
 8819TIP3    H147948   2.734   2.569  16.257  0.1600  1.5680 -1.6434
 8819TIP3    H247949   2.845   2.576  16.360 -1.8848 -0.3030  0.8055
 8820TIP3   OH247950   3.062   4.111   2.624  0.0454  0.4570  0.3034
 8820TIP3    H147951   3.134   4.059   2.661  0.4575  0.5209 -0.3817
 8820TIP3    H247952   3.106   4.180   2.574 -0.4949  0.5744 -0.0207
 8821TIP3   OH247953   1.263   2.229  15.876  0.0336  0.1139  0.1739
 8821TIP3    H147954   1.225   2.269  15.954  1.5789  1.5721  0.2593
 8821TIP3    H247955   1.357   2.231  15.892  0.3284 -0.4305 -1.3280
 8822TIP3   OH247956   2.675   2.729  12.794  0.1053 -0.5085  0.4100
 8822TIP3    H147957   2.609   2.787  12.831  0.1104  0.8428 -1.5477
 8822TIP3    H247958   2.754   2.784  12.788  0.9720 -1.6119  1.1904
 8823TIP3   OH247959   1.904   5.723   5.604 -0.2262  0.1103 -0.4027
 8823TIP3    H147960   1.852   5.752   5.528 -1.7327 -0.3693  0.4057
 8823TIP3    H247961   1.933   5.635   5.580  0.0452  0.3014 -0.7835
 8824TIP3   OH247962   4.093   6.205  11.899 -0.3637 -0.0704 -0.4555
 8824TIP3    H147963   4.157   6.250  11.954  1.4759 -1.8712 -0.9911
 8824TIP3    H247964   4.094   6.253  11.816  1.1044 -0.6688 -0.8144
 8825TIP3   OH247965   5.884   2.612  15.676  0.8614 -0.3164  0.0596
 8825TIP3    H147966   5.976   2.610  15.701  0.6763 -1.9265  0.7336
 8825TIP3    H247967   5.868   2.527  15.635 -0.3580 -0.1437  0.1261
 8826TIP3   OH247968   4.744   1.746  13.441  0.1533  0.0241  0.4323
 8826TIP3    H147969   4.765   1.668  13.492 -2.2208 -1.3302 -0.4973
 8826TIP3    H247970   4.649   1.757  13.451 -0.0240  1.0878 -1.7395
 8827TIP3   OH247971   6.500   3.156   0.257 -0.5011  0.1775  0.5397
 8827TIP3    H147972   6.473   3.248   0.248 -1.6214 -0.2560 -0.9045
 8827TIP3    H247973   6.420   3.110   0.279 -0.3029 -0.6982 -0.5209
 8828TIP3   OH247974   1.321   2.499  16.547 -0.2545 -0.0569 -0.2064
 8828TIP3    H147975   1.385   2.428  16.542 -1.3849 -1.0772 -1.1298
 8828TIP3    H247976   1.341   2.554  16.471 -0.9409 -0.8183 -0.9574
 8829TIP3   OH247977   0.347   5.959   0.736  0.4613 -0.2983  0.1087
 8829TIP3    H147978   0.364   5.919   0.651 -0.1726 -1.0870  0.3447
 8829TIP3    H247979   0.308   6.044   0.715  1.8825  0.2673 -0.3922
 8830TIP3   OH247980   6.652   3.918  13.894 -0.3659 -0.0140 -0.4507
 8830TIP3    H147981   6.597   3.842  13.913 -1.2021  0.3863 -1.1815
 8830TIP3    H247982   6.692   3.941  13.978 -0.2702 -1.1224 -0.1799
 8831TIP3   OH247983   5.996   2.239   3.904  0.4141 -0.7664  0.0531
 8831TIP3    H147984   6.028   2.317   3.950  0.0959 -1.7574  2.0797
 8831TIP3    H247985   5.943   2.273   3.832  0.6900  0.8798  0.5915
 8832TIP3   OH247986   1.787   0.320  15.859 -0.0917  0.4517 -0.2221
 8832TIP3    H147987   1.732   0.376  15.806 -2.2379 -0.1898  1.1865
 8832TIP3    H247988   1.801   0.369  15.940  1.0913  0.4295 -0.3917
 8833TIP3   OH247989   3.416   3.388   1.601 -0.9804  0.5560 -0.0635
 8833TIP3    H147990   3.370   3.463   1.639 -0.4935  0.4656  0.7397
 8833TIP3    H247991   3.413   3.402   1.507 -0.2932  1.9323  0.1084
 8834TIP3   OH247992   6.679   5.420  11.408 -0.6502  0.2561 -0.2230
 8834TIP3    H147993   6.707   5.449  11.321 -0.1678 -0.6186 -0.3726
 8834TIP3    H247994   6.670   5.500  11.458  0.3436  0.6924 -0.7095
 8835TIP3   OH247995   0.372   5.618  12.526 -0.2650  0.3609  0.4291
 8835TIP3    H147996   0.393   5.644  12.615 -2.3374 -0.7123  1.3017
 8835TIP3    H247997   0.401   5.691  12.472  0.3534  1.3532  2.0304
 8836TIP3   OH247998   3.737   3.051  12.818 -0.5681 -0.2854 -0.0223
 8836TIP3    H147999   3.832   3.048  12.808 -0.6010 -1.4319 -0.1464
 8836TIP3    H248000   3.723   3.098  12.900  0.1472 -0.8135  0.4138
 8837TIP3   OH248001   0.971   3.259   1.579  0.4783 -0.1737 -0.0614
 8837TIP3    H148002   0.961   3.164   1.591  3.8390 -0.5314  0.7140
 8837TIP3    H248003   0.913   3.297   1.645  0.8976 -1.7688  1.3104
 8838TIP3   OH248004   5.780   0.666   3.008 -0.2063  0.1363 -0.4523
 8838TIP3    H148005   5.783   0.736   3.073 -0.5702 -1.1599  1.0224
 8838TIP3    H248006   5.719   0.602   3.045  0.4611 -1.1736 -1.5251
 8839TIP3   OH248007   4.392   1.719  11.445 -0.4634 -0.0610  0.0100
 8839TIP3    H148008   4.364   1.630  11.426  2.3173 -0.9666 -0.1950
 8839TIP3    H248009   4.354   1.738  11.531 -1.1495 -1.4042  0.0318
 8840TIP3   OH248010   4.365   0.942  13.950 -0.0482 -0.2116 -0.2464
 8840TIP3    H148011   4.429   0.880  13.985 -0.0679 -0.0891  0.0103
 8840TIP3    H248012   4.307   0.961  14.024  0.8758  1.3000  0.1244
 8841TIP3   OH248013   2.411   5.650   4.339  0.0253 -0.1027  0.0897
 8841TIP3    H148014   2.409   5.726   4.397  1.0535 -0.6989  0.9376
 8841TIP3    H248015   2.319   5.631   4.322 -0.2767  2.2669 -1.4434
 8842TIP3   OH248016   6.332   3.019   4.933  0.9637  0.5266  0.0244
 8842TIP3    H148017   6.393   2.952   4.962 -1.0745 -2.8708 -2.7141
 8842TIP3    H248018   6.353   3.031   4.840 -0.2658  1.9203 -0.1050
 8843TIP3   OH248019   0.299   2.267  11.920 -0.2558 -0.4273  0.1738
 8843TIP3    H148020   0.249   2.194  11.883  0.2381 -0.9954  0.6133
 8843TIP3    H248021   0.298   2.334  11.851 -0.4319 -0.9752 -0.3643
 8844TIP3   OH248022   3.843   6.445   2.525 -0.2585 -0.3438  0.9475
 8844TIP3    H148023   3.750   6.467   2.526 -0.3072 -0.1878 -1.3360
 8844TIP3    H248024   3.887   6.529   2.512  0.1089 -0.5943  0.5634
 8845TIP3   OH248025   0.455   1.969  16.543 -0.1494 -0.1422  0.0341
 8845TIP3    H148026   0.489   2.025  16.473 -2.7545 -0.2305 -1.4467
 8845TIP3    H248027   0.518   1.898  16.550  0.1837 -0.1462 -2.3022
 8846TIP3   OH248028   2.830   6.221  15.205 -0.8978 -0.1568  0.3447
 8846TIP3    H148029   2.879   6.187  15.130 -0.4322  1.9128 -0.3599
 8846TIP3    H248030   2.742   6.183  15.196 -0.0956 -2.1592  0.3865
 8847TIP3   OH248031   2.275   4.106  15.009 -0.0851 -0.0941  0.4851
 8847TIP3    H148032   2.328   4.132  14.934  0.8456 -1.3700  0.6691
 8847TIP3    H248033   2.199   4.165  15.006 -0.2132 -0.2856 -1.6030
 8848TIP3   OH248034   5.028   2.803  14.671  0.2169  0.2372 -0.0279
 8848TIP3    H148035   5.005   2.716  14.703  1.5868 -0.2522 -0.3140
 8848TIP3    H248036   5.120   2.814  14.696 -0.3670  2.2933  1.5244
 8849TIP3   OH248037   0.985   4.111   3.389 -0.3911  0.1691  0.1040
 8849TIP3    H148038   0.953   4.147   3.472  0.4999 -0.1530  0.5988
 8849TIP3    H248039   1.078   4.097   3.403 -0.6182 -1.9298 -0.2033
 8850TIP3   OH248040   5.944   4.535   5.275 -0.5586 -0.5668  0.4145
 8850TIP3    H148041   5.852   4.558   5.261  0.2096  2.1255 -0.8675
 8850TIP3    H248042   5.949   4.515   5.369 -2.1326  0.9659  0.8933
 8851TIP3   OH248043   5.305   1.158   2.499 -0.4782  0.1441  0.1443
 8851TIP3    H148044   5.287   1.190   2.587 -0.3140  0.0234  0.2225
 8851TIP3    H248045   5.229   1.184   2.448 -1.5286 -1.5050  0.7653
 8852TIP3   OH248046   3.329   6.636  15.182 -0.5398 -0.0926 -0.3428
 8852TIP3    H148047   3.365   6.600  15.263 -1.0677 -0.0732 -0.0919
 8852TIP3    H248048   3.350   6.729  15.186  0.2105 -0.2400 -0.6569
 8853TIP3   OH248049   1.126   3.216  11.642  0.3096  0.5151 -0.5975
 8853TIP3    H148050   1.190   3.161  11.688 -0.7296 -0.0655  0.2097
 8853TIP3    H248051   1.100   3.165  11.566 -0.8552 -0.2821  0.2947
 8854TIP3   OH248052   4.656   4.181   1.487 -0.1353  0.0917 -0.1635
 8854TIP3    H148053   4.723   4.150   1.548  1.0754  0.2129 -1.3857
 8854TIP3    H248054   4.586   4.214   1.543 -0.5589 -2.8049  1.1903
 8855TIP3   OH248055   0.987   5.185  12.798  0.5539 -0.0810 -0.1619
 8855TIP3    H148056   0.985   5.180  12.894  0.5853  0.0217 -0.1564
 8855TIP3    H248057   1.080   5.190  12.776  0.8001 -3.1008 -0.3312
 8856TIP3   OH248058   0.351   0.425   5.643 -0.5627 -0.0042  0.1907
 8856TIP3    H148059   0.289   0.472   5.699 -0.5218  0.2689  0.0091
 8856TIP3    H248060   0.353   0.337   5.679 -1.4232 -0.1505 -0.0875
 8857TIP3   OH248061   5.729   5.993   5.241 -0.3490 -0.5447  0.2173
 8857TIP3    H148062   5.820   5.962   5.240 -0.1288  0.1055 -0.6637
 8857TIP3    H248063   5.684   5.931   5.299  0.4682 -1.4034 -0.0307
 8858TIP3   OH248064   5.639   0.327   6.273 -0.0815  0.3637 -0.2542
 8858TIP3    H148065   5.557   0.361   6.236 -0.1022  0.1826 -0.3758
 8858TIP3    H248066   5.640   0.360   6.362 -1.2759 -1.2434  0.4170
 8859TIP3   OH248067   4.732   6.706   4.295  0.5261 -0.5264  0.3698
 8859TIP3    H148068   4.705   6.690   4.204 -1.3471  0.6444  0.6798
 8859TIP3    H248069   4.819   6.744   4.287  0.4895 -0.6512 -0.9371
 8860TIP3   OH248070   1.669   2.922   2.596  0.0915  0.8257 -0.0196
 8860TIP3    H148071   1.658   2.883   2.509  0.6688 -2.0996  1.0808
 8860TIP3    H248072   1.763   2.922   2.611 -0.0763 -0.8021  1.3834
 8861TIP3   OH248073   1.148   1.020  16.099  0.6860  0.5499  0.2380
 8861TIP3    H148074   1.092   0.970  16.158 -0.8097 -0.1399 -1.6750
 8861TIP3    H248075   1.104   1.105  16.091  1.2907  0.9183  0.6376
 8862TIP3   OH248076   1.689   0.295   5.247 -0.0970  0.5843  0.0713
 8862TIP3    H148077   1.615   0.333   5.200 -0.6149 -0.0608  0.3549
 8862TIP3    H248078   1.761   0.357   5.232 -0.6552  1.1560 -0.3060
 8863TIP3   OH248079   1.593   2.492  13.713  0.5800 -0.0437 -0.0432
 8863TIP3    H148080   1.606   2.397  13.713 -0.0087 -0.1752  1.7540
 8863TIP3    H248081   1.544   2.510  13.632 -1.5929 -1.6796  0.7956
 8864TIP3   OH248082   4.956   3.967   1.219 -0.1066  0.1381 -0.0581
 8864TIP3    H148083   4.869   3.957   1.259 -1.4312 -0.8175 -2.8524
 8864TIP3    H248084   4.941   4.027   1.146  1.4176 -0.6308 -1.0397
 8865TIP3   OH248085   1.592   6.656  14.985  0.1565  0.3107  0.0431
 8865TIP3    H148086   1.673   6.704  14.973  1.4237 -1.1176  2.1709
 8865TIP3    H248087   1.528   6.723  15.011  0.9912  1.2646 -0.2948
 8866TIP3   OH248088   6.007   5.456  10.655  0.6468  0.6503  0.5609
 8866TIP3    H148089   5.954   5.377  10.659  0.2093  0.6847 -2.1267
 8866TIP3    H248090   6.095   5.428  10.680  0.0725 -0.1677  1.7527
 8867TIP3   OH248091   0.049   5.415  16.258 -0.7166  0.1029 -0.0711
 8867TIP3    H148092  -0.042   5.445  16.252 -0.9206 -0.2320  1.1244
 8867TIP3    H248093   0.094   5.461  16.187 -1.8852 -0.0044 -0.9280
 8868TIP3   OH248094   3.070   2.489  14.771  0.0320 -0.1200 -0.0198
 8868TIP3    H148095   3.027   2.444  14.843  0.7995 -0.7832  0.0452
 8868TIP3    H248096   3.005   2.491  14.701 -0.7211  0.5430  0.6872
 8869TIP3   OH248097   6.061   5.361   4.497  0.6018 -0.5529 -0.9080
 8869TIP3    H148098   6.071   5.445   4.543  2.1034 -0.7040 -0.9149
 8869TIP3    H248099   5.998   5.312   4.550  2.0214 -0.5895  0.8363
 8870TIP3   OH248100   1.341   4.836   1.761 -0.6135 -0.7053  0.0524
 8870TIP3    H148101   1.426   4.849   1.802  0.2346 -1.7837 -1.2781
 8870TIP3    H248102   1.357   4.772   1.691 -1.7435  1.7320 -2.6272
 8871TIP3   OH248103   2.423   6.129   5.532 -0.0427  0.4111 -0.4607
 8871TIP3    H148104   2.451   6.156   5.444 -0.4921 -1.1275 -1.0962
 8871TIP3    H248105   2.329   6.115   5.524  0.1846 -1.4650 -0.2216
 8872TIP3   OH248106   5.442   1.887   1.800 -0.0474  0.6225  0.0418
 8872TIP3    H148107   5.370   1.931   1.755 -0.9726  1.4216  2.1954
 8872TIP3    H248108   5.519   1.939   1.778 -0.3136  0.5040 -1.2556
 8873TIP3   OH248109   1.153   5.754  12.875  0.0759  0.6208 -0.4693
 8873TIP3    H148110   1.216   5.697  12.918  0.2581 -0.7848 -2.4740
 8873TIP3    H248111   1.072   5.742  12.926  0.8303  0.7834  0.8174
 8874TIP3   OH248112   2.140   4.671  10.826  0.3882  0.1023 -0.0810
 8874TIP3    H148113   2.045   4.657  10.829  0.5502 -0.8583  1.8517
 8874TIP3    H248114   2.150   4.758  10.787 -1.2961  0.3859  0.0408
 8875TIP3   OH248115   3.158   0.099   0.585 -0.1571 -0.0146  0.0096
 8875TIP3    H148116   3.212   0.075   0.660 -0.8833 -1.0314  0.2290
 8875TIP3    H248117   3.205   0.063   0.510  0.9782  1.6819 -0.1493
 8876TIP3   OH248118   1.830   0.617  14.835  0.2061  0.4190  0.5291
 8876TIP3    H148119   1.795   0.577  14.755  3.1104 -0.7317 -0.3042
 8876TIP3    H248120   1.809   0.710  14.827 -0.2418  0.2089 -1.2202
 8877TIP3   OH248121   3.500   3.064  11.697  0.1223 -0.3489 -0.2440
 8877TIP3    H148122   3.460   3.139  11.742  0.1777  0.1337 -0.9852
 8877TIP3    H248123   3.427   3.024  11.649  0.2528 -0.3013 -0.4803
 8878TIP3   OH248124   6.737   3.660   2.166  0.5358 -0.1241  0.3264
 8878TIP3    H148125   6.788   3.662   2.085  0.6757 -0.0732  0.4162
 8878TIP3    H248126   6.735   3.568   2.192  0.4707 -0.1438  0.2535
 8879TIP3   OH248127   2.318   4.489   3.432  0.0192 -0.1712  0.0683
 8879TIP3    H148128   2.347   4.548   3.501  0.9376 -0.2296 -0.2550
 8879TIP3    H248129   2.394   4.479   3.375  0.2647 -2.5436  0.6963
 8880TIP3   OH248130   2.308   3.134  15.595  0.0007 -0.6078 -0.1410
 8880TIP3    H148131   2.367   3.080  15.543  0.5563  1.2126 -1.5026
 8880TIP3    H248132   2.233   3.150  15.537 -0.7234 -0.9132  0.6937
 8881TIP3   OH248133   1.435   4.475  16.095  0.0918 -0.1476  0.3296
 8881TIP3    H148134   1.506   4.410  16.100  0.2041  0.0733  2.5734
 8881TIP3    H248135   1.357   4.428  16.123  0.5090  1.0174  3.9304
 8882TIP3   OH248136   2.927   3.204   4.875  0.3866 -0.0365  0.4542
 8882TIP3    H148137   3.001   3.260   4.899  1.5976 -1.8370  1.2413
 8882TIP3    H248138   2.966   3.117   4.866 -1.3654 -0.7474 -0.8747
 8883TIP3   OH248139   6.151   3.645  16.540  0.5649 -0.1904 -0.6225
 8883TIP3    H148140   6.112   3.730  16.519  1.8257  0.6742  0.3224
 8883TIP3    H248141   6.123   3.627  16.630  2.9705  0.9200  0.4445
 8884TIP3   OH248142   0.501   3.535   2.119  0.0389 -0.6372  0.1254
 8884TIP3    H148143   0.565   3.512   2.186 -0.9031  0.4702  1.4630
 8884TIP3    H248144   0.420   3.552   2.167 -0.4730  0.9245 -1.1921
 8885TIP3   OH248145   3.176   0.705   1.850 -0.1711  0.4751 -0.1398
 8885TIP3    H148146   3.235   0.699   1.925  1.2340 -0.5692 -1.2739
 8885TIP3    H248147   3.167   0.799   1.834  1.6808  0.6564 -0.2839
 8886TIP3   OH248148   3.548   1.845  12.930 -0.8194 -0.4082 -0.7150
 8886TIP3    H148149   3.471   1.899  12.946  1.1301  2.5322 -0.5255
 8886TIP3    H248150   3.590   1.885  12.853  3.4038  1.8618  2.3459
 8887TIP3   OH248151   6.247   0.937  14.168  0.4600 -0.1116 -0.2668
 8887TIP3    H148152   6.179   0.932  14.101  2.1184  1.0061 -2.1547
 8887TIP3    H248153   6.328   0.951  14.118  2.0836 -1.3522  1.8827
 8888TIP3   OH248154   6.417   5.100   6.119  0.5731 -0.1758 -1.2582
 8888TIP3    H148155   6.381   5.011   6.120 -0.4705  0.2273 -0.2443
 8888TIP3    H248156   6.357   5.148   6.062 -0.9520  0.6360  0.8939
 8889TIP3   OH248157   3.663   3.573   1.589  0.2068 -0.1909  0.0779
 8889TIP3    H148158   3.697   3.637   1.651 -0.4294  0.6515 -0.4244
 8889TIP3    H248159   3.594   3.619   1.541  1.1927 -0.5695 -1.7999
 8890TIP3   OH248160   1.582   0.878   5.269  0.3103  0.0021  0.1010
 8890TIP3    H148161   1.494   0.878   5.305 -0.6296  0.0708 -2.0237
 8890TIP3    H248162   1.630   0.943   5.320 -0.8297 -0.1005  1.3454
 8891TIP3   OH248163   4.828   1.283   0.414 -0.2213 -0.0827 -0.2174
 8891TIP3    H148164   4.801   1.364   0.459  2.4032 -0.8710  3.1411
 8891TIP3    H248165   4.867   1.314   0.332 -0.0570  2.0177  0.5703
 8892TIP3   OH248166   1.356   5.720   5.272 -0.3337 -0.2075 -0.0862
 8892TIP3    H148167   1.364   5.761   5.186 -0.3690  1.1296  0.5184
 8892TIP3    H248168   1.446   5.716   5.305 -0.4002 -0.0389  0.1158
 8893TIP3   OH248169   6.728   6.305   1.788  0.0437 -0.0221  0.1203
 8893TIP3    H148170   6.821   6.318   1.808 -0.3160  3.4015  0.2186
 8893TIP3    H248171   6.687   6.288   1.873  0.4563 -0.7542  0.1799
 8894TIP3   OH248172   2.119   4.611   1.843 -0.5594  0.1169  0.7772
 8894TIP3    H148173   2.069   4.565   1.777 -0.4700  0.8548  0.1813
 8894TIP3    H248174   2.062   4.612   1.920 -0.7865 -0.4755  0.6211
 8895TIP3   OH248175   1.751   4.169  12.710  0.2360 -0.1846 -0.2981
 8895TIP3    H148176   1.713   4.165  12.622  0.4316  1.5165 -0.4966
 8895TIP3    H248177   1.698   4.234  12.756 -1.4839 -2.8347  1.7196
 8896TIP3   OH248178   3.240   4.283   2.236  0.5658 -0.6147 -0.1200
 8896TIP3    H148179   3.181   4.321   2.172  0.2204 -0.3588  0.3453
 8896TIP3    H248180   3.320   4.265   2.187  0.2816 -0.4934 -0.6364
 8897TIP3   OH248181   0.687   0.102   6.670  0.2953 -0.2052 -0.4392
 8897TIP3    H148182   0.780   0.109   6.692  0.4007 -1.6640 -0.3549
 8897TIP3    H248183   0.642   0.122   6.751  0.5629 -0.3033 -0.2634
 8898TIP3   OH248184   2.469   6.230   2.146 -0.4338 -0.1713 -0.7872
 8898TIP3    H148185   2.513   6.289   2.208 -0.4340  0.1896 -1.1272
 8898TIP3    H248186   2.425   6.289   2.084 -0.8642 -0.5302 -0.8289
 8899TIP3   OH248187   5.788   1.833  14.805 -0.5769 -0.0065  0.1276
 8899TIP3    H148188   5.770   1.919  14.843 -1.6407  0.7117 -1.9013
 8899TIP3    H248189   5.737   1.830  14.724 -1.9079 -3.2093  0.9218
 8900TIP3   OH248190   3.016   4.143  16.985 -0.1778 -0.1974 -0.3893
 8900TIP3    H148191   3.062   4.102  16.912  0.3871 -0.7095  0.2335
 8900TIP3    H248192   2.935   4.093  16.993 -0.1466 -0.2718 -0.5401
 8901TIP3   OH248193   2.606   2.405  10.483  0.0819  0.0541 -0.1060
 8901TIP3    H148194   2.660   2.340  10.437 -0.4699  0.1388 -0.8916
 8901TIP3    H248195   2.542   2.353  10.532 -0.8060 -0.0060 -1.2878
 8902TIP3   OH248196   3.076   0.869   4.966  0.5716  0.6924 -0.0268
 8902TIP3    H148197   3.088   0.789   5.017  0.0108  0.7897  0.2738
 8902TIP3    H248198   3.144   0.866   4.899 -1.0063 -1.3215 -1.6601
 8903TIP3   OH248199   1.229   4.194   4.159  0.4531  0.0536 -0.2164
 8903TIP3    H148200   1.139   4.175   4.188  0.2487 -2.2940 -2.0995
 8903TIP3    H248201   1.273   4.225   4.238 -1.5842 -0.3287  1.1538
 8904TIP3   OH248202   5.046   1.618  16.816  0.3068 -0.4763 -1.0119
 8904TIP3    H148203   4.963   1.584  16.784 -0.6452  3.0274 -2.7545
 8904TIP3    H248204   5.028   1.709  16.840  2.9741 -0.4750  1.7016
 8905TIP3   OH248205   3.996   1.230   0.593  0.6590 -0.5640  0.2870
 8905TIP3    H148206   3.906   1.229   0.626  0.8195  0.5089  0.8084
 8905TIP3    H248207   4.034   1.148   0.623  0.5852  0.0661  2.2471
 8906TIP3   OH248208   1.290   1.907   5.785 -0.1767 -0.3950  0.4170
 8906TIP3    H148209   1.332   1.912   5.871  1.5294 -2.5508 -0.2019
 8906TIP3    H248210   1.283   1.998   5.757  1.0747  0.2337  1.9758
 8907TIP3   OH248211   6.791   3.900  14.144  0.4224  0.2283 -0.3190
 8907TIP3    H148212   6.731   3.906  14.218  0.7887  1.8133 -0.1047
 8907TIP3    H248213   6.874   3.934  14.178  0.5784  1.0545 -1.4560
 8908TIP3   OH248214   5.204   6.396   1.827 -0.2957 -0.1731  0.6287
 8908TIP3    H148215   5.205   6.489   1.852  3.6039  0.1135  0.0435
 8908TIP3    H248216   5.232   6.349   1.905  0.4136 -0.5261  0.1747
 8909TIP3   OH248217   5.188   4.634   6.192 -0.1254  0.3182 -0.0791
 8909TIP3    H148218   5.252   4.651   6.123  1.2424 -2.7612  0.3132
 8909TIP3    H248219   5.239   4.628   6.273 -0.8019 -2.1803  0.2513
 8910TIP3   OH248220   4.477   4.621   3.196  0.1050  0.2644  0.0313
 8910TIP3    H148221   4.525   4.604   3.115 -0.1552  0.9619 -0.2791
 8910TIP3    H248222   4.386   4.597   3.175  0.2929 -1.0155  0.6026
 8911TIP3   OH248223   3.063   6.653   1.130  0.6495 -0.1844 -0.1963
 8911TIP3    H148224   3.060   6.738   1.085 -1.4890  0.4503  0.9751
 8911TIP3    H248225   2.971   6.628   1.139  1.2230 -2.5428 -0.2634
 8912TIP3   OH248226   5.592   3.905   4.182  0.3641 -0.1580 -0.2568
 8912TIP3    H148227   5.512   3.920   4.133 -0.5579  0.0417  1.2336
 8912TIP3    H248228   5.567   3.846   4.253  1.4443  0.1795  0.4442
 8913TIP3   OH248229   0.285   2.308   4.049 -0.0648  0.2747 -0.0287
 8913TIP3    H148230   0.320   2.241   3.990 -0.2519 -0.3734  0.5803
 8913TIP3    H248231   0.351   2.316   4.118 -0.8300 -0.5386  0.8200
 8914TIP3   OH248232   3.990   0.516   6.549  0.1095 -0.0578  0.0567
 8914TIP3    H148233   3.995   0.427   6.514 -0.1921  0.0003 -0.1391
 8914TIP3    H248234   4.080   0.549   6.545  0.4385 -0.7522  1.1945
 8915TIP3   OH248235   6.161   4.305  17.287 -0.2255 -0.2680 -0.6131
 8915TIP3    H148236   6.106   4.271  17.358 -0.1675  1.3884  0.2635
 8915TIP3    H248237   6.231   4.353  17.332 -0.2065  0.8410 -1.7874
 8916TIP3   OH248238   0.987   2.857  14.641  0.3968  0.2065 -0.1990
 8916TIP3    H148239   1.042   2.913  14.696 -1.5532  2.0933 -0.0310
 8916TIP3    H248240   0.920   2.823  14.701  0.6255 -1.0573 -0.6318
 8917TIP3   OH248241   3.434   0.690   2.045 -0.3420 -0.2078 -0.4414
 8917TIP3    H148242   3.403   0.695   2.135  0.7339 -1.3044  0.0228
 8917TIP3    H248243   3.463   0.599   2.035  1.7890  0.4923 -1.1318
 8918TIP3   OH248244   0.855   2.704   0.916 -0.0240 -0.3044 -0.0530
 8918TIP3    H148245   0.950   2.691   0.927 -0.2781 -1.6563  0.8140
 8918TIP3    H248246   0.847   2.748   0.831  1.3640 -0.3175 -0.2252
 8919TIP3   OH248247   1.963   2.742   4.662 -0.0794 -0.0089 -0.0762
 8919TIP3    H148248   2.022   2.687   4.715 -2.3145 -1.5000  1.0682
 8919TIP3    H248249   1.929   2.683   4.595  0.5330  1.1180 -1.4210
 8920TIP3   OH248250   6.702   5.605  10.744  0.1088  0.1204  0.3022
 8920TIP3    H148251   6.724   5.542  10.675  0.6919  0.3375  0.2810
 8920TIP3    H248252   6.769   5.589  10.812  1.0784  1.5937 -0.2631
 8921TIP3   OH248253   2.785   5.817  11.953  0.1676  0.2059  0.3588
 8921TIP3    H148254   2.698   5.852  11.933  0.4117  0.2884 -0.5904
 8921TIP3    H248255   2.792   5.826  12.048 -0.3798  1.3268  0.3169
 8922TIP3   OH248256   6.579   1.232  15.223  0.5981 -0.7788  0.3707
 8922TIP3    H148257   6.558   1.285  15.299  0.8535 -2.4518  1.6654
 8922TIP3    H248258   6.575   1.142  15.254 -0.6154 -1.6081 -1.9217
 8923TIP3   OH248259   2.216   4.114   4.559 -0.2055  0.3620  0.6913
 8923TIP3    H148260   2.178   4.030   4.583 -1.5585  0.8045  0.1513
 8923TIP3    H248261   2.305   4.092   4.529  0.2025 -0.6240  2.4383
 8924TIP3   OH248262   6.055   3.075  11.686 -0.0051 -0.1320  0.2294
 8924TIP3    H148263   6.092   3.163  11.679  1.1825 -0.4095  2.2822
 8924TIP3    H248264   5.978   3.077  11.628  0.8964  1.7317 -0.9983
 8925TIP3   OH248265   6.798   1.953  14.615  0.9002  0.1941  0.3847
 8925TIP3    H148266   6.881   1.983  14.651  0.0202 -0.3410  3.0858
 8925TIP3    H248267   6.769   2.024  14.558  1.6743  1.8579  1.9778
 8926TIP3   OH248268   4.160   5.680   4.356  0.3431 -0.4474 -0.2363
 8926TIP3    H148269   4.211   5.730   4.420  0.2357 -1.5255  0.7022
 8926TIP3    H248270   4.076   5.726   4.351  0.7098  0.2233 -0.3765
 8927TIP3   OH248271   6.738   4.172  14.154  0.0240  0.2400  0.0824
 8927TIP3    H148272   6.754   4.092  14.103 -0.6927  0.2605 -0.1840
 8927TIP3    H248273   6.786   4.158  14.236 -0.8372 -0.8594  0.4204
 8928TIP3   OH248274   3.410   0.488  13.055 -0.2538  0.4434 -0.4715
 8928TIP3    H148275   3.346   0.481  13.126 -0.0468  0.2371 -0.3042
 8928TIP3    H248276   3.403   0.579  13.025  0.2829  0.7864  0.4051
 8929TIP3   OH248277   1.811   2.809   1.569  0.7893  0.3101  0.0104
 8929TIP3    H148278   1.854   2.880   1.521 -0.4702 -0.3437 -2.2644
 8929TIP3    H248279   1.718   2.833   1.569  0.2870 -1.4601 -1.1352
 8930TIP3   OH248280   3.493   3.415  13.715  0.7288 -0.1856 -0.0686
 8930TIP3    H148281   3.434   3.353  13.672 -0.3161 -0.7689  2.0591
 8930TIP3    H248282   3.578   3.371  13.715  0.7359 -0.2046 -1.4107
 8931TIP3   OH248283   6.489   4.802  14.536  0.3031  0.2243 -0.6146
 8931TIP3    H148284   6.414   4.860  14.552  0.7756  0.6191  0.2461
 8931TIP3    H248285   6.489   4.743  14.611  1.2717  0.6888 -0.2383
 8932TIP3   OH248286   6.460   3.581   5.937  0.0918 -0.5734 -0.3228
 8932TIP3    H148287   6.438   3.656   5.992 -0.3266 -0.6935 -0.3291
 8932TIP3    H248288   6.376   3.542   5.913  0.2550 -0.3927 -1.2353
 8933TIP3   OH248289   0.512   0.863  16.824 -0.1844  0.3001  0.5516
 8933TIP3    H148290   0.574   0.869  16.896 -0.1469  0.4344  0.5068
 8933TIP3    H248291   0.515   0.949  16.782 -0.4383  0.3252  0.5825
 8934TIP3   OH248292   4.135   6.178  14.264 -0.2730 -0.5489 -0.3720
 8934TIP3    H148293   4.073   6.167  14.193 -0.4938  0.4377 -0.3477
 8934TIP3    H248294   4.217   6.203  14.221 -0.4215  0.1056 -0.2911
 8935TIP3   OH248295   2.146   2.610   3.953 -0.3097 -0.7491  0.1418
 8935TIP3    H148296   2.199   2.686   3.928 -0.4294 -0.9104 -0.6354
 8935TIP3    H248297   2.164   2.598   4.046  1.4646 -1.1282 -0.2109
 8936TIP3   OH248298   6.057   3.441   0.249 -0.3776 -0.1987 -0.6508
 8936TIP3    H148299   6.061   3.526   0.205 -0.8354  0.4197  0.4801
 8936TIP3    H248300   6.099   3.381   0.187 -1.3168  0.5606 -2.0993
 8937TIP3   OH248301   0.169   4.429   0.603 -0.2464  0.2875 -0.0858
 8937TIP3    H148302   0.252   4.392   0.635 -0.6686  1.6680  2.9686
 8937TIP3    H248303   0.103   4.390   0.661 -1.7686 -0.5484 -2.2661
 8938TIP3   OH248304   5.640   6.203   3.142 -0.7546  0.3777  0.0450
 8938TIP3    H148305   5.619   6.279   3.196  0.1223  1.3014 -0.8702
 8938TIP3    H248306   5.699   6.150   3.196  0.2637  1.3795 -0.0624
 8939TIP3   OH248307   3.718   6.523   4.041 -0.4371 -0.1495 -0.1960
 8939TIP3    H148308   3.747   6.439   4.077 -0.0189  0.3241  0.6004
 8939TIP3    H248309   3.671   6.500   3.961 -3.8589 -1.5132  1.9875
 8940TIP3   OH248310   0.524   0.003  15.382 -0.1796  0.4087  0.1393
 8940TIP3    H148311   0.494   0.050  15.460 -0.9514  0.4052 -0.1525
 8940TIP3    H248312   0.594   0.058  15.346 -0.7956  1.1377  0.0359
 8941TIP3   OH248313   6.772   5.149  11.369  0.0261  0.1858  0.2603
 8941TIP3    H148314   6.736   5.238  11.368  1.4724  0.8234 -2.2627
 8941TIP3    H248315   6.712   5.100  11.425 -2.1959  2.2078 -0.1880
 8942TIP3   OH248316   3.193   1.080  13.604 -0.0911 -0.1486 -0.7825
 8942TIP3    H148317   3.160   1.126  13.682  0.9521 -0.9642  0.1821
 8942TIP3    H248318   3.267   1.134  13.575 -1.4757  1.0392 -2.2271
 8943TIP3   OH248319   1.969   2.093  14.584  0.3917 -0.3596  0.2233
 8943TIP3    H148320   1.919   2.082  14.503  1.1915  4.2809 -1.1951
 8943TIP3    H248321   2.061   2.084  14.557  0.6826  1.5756  0.3797
 8944TIP3   OH248322   2.659   1.950  16.882 -0.5647 -0.1021 -0.1581
 8944TIP3    H148323   2.654   2.043  16.904 -0.7801 -0.4011  1.0871
 8944TIP3    H248324   2.733   1.918  16.933 -0.7742 -0.7132 -0.2375
 8945TIP3   OH248325   3.602   0.918   2.053 -0.1826 -0.5380  0.1363
 8945TIP3    H148326   3.673   0.924   1.989  1.4095 -1.1677  1.7425
 8945TIP3    H248327   3.542   0.853   2.016  0.7535 -0.9859 -0.6424
 8946TIP3   OH248328   6.386   6.185   1.950 -0.4301 -0.0561 -0.4772
 8946TIP3    H148329   6.366   6.102   1.993  2.1359 -0.0234  0.9750
 8946TIP3    H248330   6.426   6.238   2.018 -1.4781  2.2271 -1.5225
 8947TIP3   OH248331   5.176   5.207   2.761  0.2078  0.2285 -0.0658
 8947TIP3    H148332   5.268   5.210   2.734  0.1990  0.8528 -0.0329
 8947TIP3    H248333   5.128   5.189   2.680  0.4609 -1.7589  0.1605
 8948TIP3   OH248334   4.754   0.607   2.230  0.1277  0.1895 -0.0663
 8948TIP3    H148335   4.812   0.531   2.221  0.5121  0.6310 -1.6438
 8948TIP3    H248336   4.704   0.608   2.149  1.3738  2.6132 -0.8858
 8949TIP3   OH248337   2.117   4.375   5.826 -0.1467  0.5965  0.8580
 8949TIP3    H148338   2.071   4.459   5.837 -0.3406  0.6780 -0.4238
 8949TIP3    H248339   2.064   4.313   5.877 -0.8102  0.9849  0.6618
 8950TIP3   OH248340   2.680   5.196   0.715 -0.1059 -0.1882 -0.4921
 8950TIP3    H148341   2.765   5.158   0.735 -0.1555 -0.3452 -0.5794
 8950TIP3    H248342   2.654   5.242   0.795 -0.3723 -0.9265 -0.1487
 8951TIP3   OH248343   2.606   0.450   5.071 -0.3948 -0.1889  0.4234
 8951TIP3    H148344   2.573   0.535   5.043  0.0021 -0.1004  0.2217
 8951TIP3    H248345   2.545   0.422   5.140 -0.8902 -0.0278  0.0571
 8952TIP3   OH248346   6.305   2.303  16.789 -0.0679 -0.6442 -0.2992
 8952TIP3    H148347   6.331   2.375  16.731 -0.3792 -0.1840  0.1188
 8952TIP3    H248348   6.220   2.275  16.756 -1.2141  0.9530  1.0866
 8953TIP3   OH248349   6.581   0.600   6.646  0.3151 -0.2001  0.0342
 8953TIP3    H148350   6.634   0.526   6.617 -0.9247 -0.8951 -0.5242
 8953TIP3    H248351   6.599   0.669   6.582 -0.4104 -0.8536 -0.8911
 8954TIP3   OH248352   2.903   3.162  15.470 -0.0597 -0.4563  0.2506
 8954TIP3    H148353   2.935   3.141  15.383  0.3560  1.4464 -0.1044
 8954TIP3    H248354   2.819   3.207  15.455  0.4189  0.6433  0.7384
 8955TIP3   OH248355   0.218   2.560  16.276 -0.7878 -0.3737 -0.0788
 8955TIP3    H148356   0.161   2.484  16.270  0.4056 -1.2925 -0.2207
 8955TIP3    H248357   0.213   2.588  16.367 -4.4679  2.0361 -0.8068
 8956TIP3   OH248358   4.232   5.544  16.452 -0.2278 -0.3980 -0.4577
 8956TIP3    H148359   4.299   5.477  16.440 -0.7089 -0.8133 -0.8791
 8956TIP3    H248360   4.170   5.505  16.513 -0.0520  0.0162 -0.0085
 8957TIP3   OH248361   4.338   4.205   3.160  0.3884 -0.0873 -0.6229
 8957TIP3    H148362   4.253   4.186   3.118  0.5222 -1.1685 -0.4235
 8957TIP3    H248363   4.355   4.129   3.215 -0.2144  1.6733  2.1743
 8958TIP3   OH248364   5.793   5.895  11.867 -0.2991 -0.1789 -0.2018
 8958TIP3    H148365   5.762   5.916  11.780 -1.4450 -1.4974 -0.1333
 8958TIP3    H248366   5.861   5.829  11.853 -0.4112 -0.3145 -0.1120
 8959TIP3   OH248367   6.256   0.525   3.854  0.1480  0.0744  0.4248
 8959TIP3    H148368   6.273   0.457   3.789 -1.2838  0.3570 -0.2953
 8959TIP3    H248369   6.240   0.604   3.802  1.3361  0.8920  1.2279
 8960TIP3   OH248370   0.223   2.376  11.307 -0.5455  0.2559 -0.3172
 8960TIP3    H148371   0.176   2.381  11.223  2.0432  1.8200 -1.8189
 8960TIP3    H248372   0.252   2.285  11.313 -0.8779  0.0908 -1.0747
 8961TIP3   OH248373   4.643   4.622   0.660  0.4137  0.3894  0.1538
 8961TIP3    H148374   4.628   4.704   0.614  1.5633  1.7022  1.9837
 8961TIP3    H248375   4.738   4.612   0.662  0.3233 -0.4670  0.8041
 8962TIP3   OH248376   4.491   0.647   3.188 -0.2023  0.2179  0.2871
 8962TIP3    H148377   4.431   0.655   3.114  1.3573  2.0565 -0.8978
 8962TIP3    H248378   4.504   0.737   3.218  1.6635 -0.1473  0.7051
 8963TIP3   OH248379   6.352   5.884   3.409  1.1130 -0.1387  0.3012
 8963TIP3    H148380   6.343   5.934   3.490 -0.7034  2.1207 -1.1643
 8963TIP3    H248381   6.371   5.950   3.342 -2.1524 -1.1173 -1.8806
 8964TIP3   OH248382   1.045   1.334  15.088  0.2428 -0.0635  0.2947
 8964TIP3    H148383   1.004   1.420  15.080  1.8085  0.5842 -1.7464
 8964TIP3    H248384   1.012   1.285  15.013 -0.1938 -1.0725  1.1294
 8965TIP3   OH248385   6.724   3.578   0.924  0.5159  0.4373 -0.7232
 8965TIP3    H148386   6.677   3.639   0.868 -0.3853  0.1207 -0.3330
 8965TIP3    H248387   6.770   3.633   0.988  0.1092  0.7245 -0.6781
 8966TIP3   OH248388   0.136   4.533  17.289 -0.2377 -0.6563 -0.0394
 8966TIP3    H148389   0.090   4.607  17.250  0.2243 -0.5685 -0.4262
 8966TIP3    H248390   0.180   4.569  17.366  2.1456  0.1092 -1.6428
 8967TIP3   OH248391   2.776   5.444   5.423  0.1648  0.0624  0.4607
 8967TIP3    H148392   2.700   5.398   5.388  2.1211 -1.9411 -1.4846
 8967TIP3    H248393   2.824   5.377   5.472  1.5353  0.8014  0.1767
 8968TIP3   OH248394   0.687   0.294   3.008 -0.0437 -0.8835 -0.3454
 8968TIP3    H148395   0.620   0.312   2.942  0.3090  1.2078 -0.2259
 8968TIP3    H248396   0.656   0.341   3.086  1.8875  0.8251 -0.5169
 8969TIP3   OH248397   1.808   2.396  11.998  0.1465  0.5292 -0.0421
 8969TIP3    H148398   1.804   2.451  12.077 -2.2364  1.5485 -0.7676
 8969TIP3    H248399   1.718   2.395  11.966  1.2320  1.3988 -3.5708
 8970TIP3   OH248400   4.402   1.899   1.597 -0.0668 -0.3263  0.4632
 8970TIP3    H148401   4.481   1.952   1.590  0.7768 -1.5005  0.7130
 8970TIP3    H248402   4.347   1.928   1.525  0.2090  1.1013  0.7905
 8971TIP3   OH248403   1.697   4.056   2.474 -0.3343 -0.3438 -0.7690
 8971TIP3    H148404   1.709   4.079   2.566 -0.8622 -0.3582 -0.6897
 8971TIP3    H248405   1.728   4.133   2.426  2.4895 -1.3450 -0.7046
 8972TIP3   OH248406   6.549   4.933  15.817 -0.0697  0.2441  0.1903
 8972TIP3    H148407   6.504   5.017  15.826 -2.4862 -0.8000 -1.1357
 8972TIP3    H248408   6.552   4.917  15.723 -0.5169 -1.5691  0.4458
 8973TIP3   OH248409   4.801   5.975   6.120 -0.5962  0.3396 -0.2867
 8973TIP3    H148410   4.844   6.017   6.194 -1.6364  1.2422 -0.1686
 8973TIP3    H248411   4.709   5.998   6.129 -0.9706 -0.7237 -1.0777
 8974TIP3   OH248412   1.222   5.267   6.134  0.0714  0.1897 -0.0142
 8974TIP3    H148413   1.277   5.198   6.173  2.2346  0.8950 -1.6171
 8974TIP3    H248414   1.234   5.342   6.192 -0.6740 -0.1676  0.6209
 8975TIP3   OH248415   6.440   0.197   4.027 -0.1162  0.1741 -0.5645
 8975TIP3    H148416   6.385   0.207   4.105  0.7368 -1.0132  0.2243
 8975TIP3    H248417   6.501   0.271   4.031 -1.9374  1.8559 -1.7650
 8976TIP3   OH248418   4.175   2.560  15.304 -0.0805 -0.0714 -0.3535
 8976TIP3    H148419   4.186   2.605  15.387  0.3549  1.2028 -1.0633
 8976TIP3    H248420   4.081   2.561  15.287 -0.1290  0.0194 -0.0664
 8977TIP3   OH248421   1.873   4.580   1.127  0.5244  0.6404  0.7748
 8977TIP3    H148422   1.929   4.546   1.058  0.5719  1.3727  0.4464
 8977TIP3    H248423   1.894   4.673   1.132 -2.5040  1.5780 -1.1954
 8978TIP3   OH248424   3.797   6.630  15.780  0.2908 -0.2637 -0.3560
 8978TIP3    H148425   3.850   6.707  15.757  0.4549 -0.6256 -1.2431
 8978TIP3    H248426   3.720   6.666  15.823 -0.6789  0.6074 -2.6616
 8979TIP3   OH248427   5.497   4.193  13.519  0.3532 -0.2818 -0.2586
 8979TIP3    H148428   5.433   4.123  13.507  0.2819 -0.3149  0.2801
 8979TIP3    H248429   5.565   4.176  13.454  0.6198 -1.1885  0.2433
 8980TIP3   OH248430   1.639   0.376  14.917  0.1424  0.7796 -0.6026
 8980TIP3    H148431   1.592   0.448  14.960  1.2259  0.2714  1.5874
 8980TIP3    H248432   1.732   0.400  14.925  0.5139 -0.7152 -0.0167
 8981TIP3   OH248433   0.364   0.228   3.379 -0.1838  0.2382 -0.3870
 8981TIP3    H148434   0.305   0.199   3.449 -1.0131 -0.2140 -1.2561
 8981TIP3    H248435   0.320   0.303   3.340 -0.2251 -0.1460 -1.0917
 8982TIP3   OH248436   3.095   6.264  12.777  0.4084 -0.1036  0.0812
 8982TIP3    H148437   3.186   6.294  12.766  0.9875 -1.0647  1.8645
 8982TIP3    H248438   3.080   6.268  12.872 -1.1412 -0.7409 -0.1146
 8983TIP3   OH248439   4.809   0.099  12.367  0.6284  0.1113 -0.3632
 8983TIP3    H148440   4.767   0.154  12.301 -1.7411  1.2834  1.9436
 8983TIP3    H248441   4.846   0.161  12.430  0.8162 -0.9314  0.5933
 8984TIP3   OH248442   6.484   2.879  12.307 -0.1438  0.2921 -0.2777
 8984TIP3    H148443   6.547   2.843  12.369 -0.5908  0.4335  0.2646
 8984TIP3    H248444   6.455   2.803  12.256  1.0231  0.3398 -1.0557
 8985TIP3   OH248445   5.050   3.352  10.463 -0.0830 -0.2048  0.3476
 8985TIP3    H148446   5.122   3.324  10.520 -1.7274 -0.6557  2.2962
 8985TIP3    H248447   5.026   3.273  10.414 -0.4536 -0.5450  1.0656
 8986TIP3   OH248448   1.466   3.110   0.494 -0.6459  0.1526 -0.0112
 8986TIP3    H148449   1.387   3.068   0.529 -0.5536 -0.1684 -0.1797
 8986TIP3    H248450   1.512   3.039   0.448 -0.6986  0.5305 -0.6649
 8987TIP3   OH248451   1.490   1.181  14.263 -0.0607  0.1315  0.1382
 8987TIP3    H148452   1.478   1.173  14.358  0.4722  1.1573  0.3050
 8987TIP3    H248453   1.474   1.273  14.245  0.3817  0.0528 -0.6898
 8988TIP3   OH248454   0.805   1.764   3.411 -0.3041 -0.2095 -0.7883
 8988TIP3    H148455   0.731   1.772   3.471 -0.6067 -1.0754 -1.0262
 8988TIP3    H248456   0.866   1.833   3.438 -0.6076 -0.3357  0.2646
 8989TIP3   OH248457   2.869   3.069   5.975 -0.6320  0.5237 -0.4017
 8989TIP3    H148458   2.851   2.976   5.988 -1.2158  0.5727 -0.8020
 8989TIP3    H248459   2.872   3.080   5.880  0.4369  0.7356 -0.3496
 8990TIP3   OH248460   6.220   1.104   0.774  0.1080  0.3964  0.5919
 8990TIP3    H148461   6.225   1.015   0.810 -2.1106 -1.4789 -3.1523
 8990TIP3    H248462   6.126   1.125   0.777  0.6395  2.9433  1.8534
 8991TIP3   OH248463   5.973   3.134  12.982  0.1957  0.2640  0.1951
 8991TIP3    H148464   5.956   3.054  12.932  0.9810  0.6098 -0.6701
 8991TIP3    H248465   6.067   3.130  13.002  0.3865  1.2671 -0.4300
 8992TIP3   OH248466   3.576   5.591   2.535 -0.0364  0.2626 -0.9521
 8992TIP3    H148467   3.522   5.512   2.549 -0.6756  0.8719  0.1721
 8992TIP3    H248468   3.518   5.651   2.487  0.2068  0.3182 -1.1769
 8993TIP3   OH248469   5.496   3.748   2.265  0.4954  0.3498  0.1582
 8993TIP3    H148470   5.416   3.793   2.293  0.3713 -0.1436  0.6136
 8993TIP3    H248471   5.465   3.677   2.209  0.7052  0.9367 -0.7267
 8994TIP3   OH248472   4.912   3.014   4.777 -0.6761 -0.3307  0.4922
 8994TIP3    H148473   5.005   2.993   4.768 -0.2726  0.7443  1.8225
 8994TIP3    H248474   4.910   3.102   4.813 -2.2852  0.9204 -2.3458
 8995TIP3   OH248475   1.485   3.880   2.546 -0.3981  0.3988 -0.2300
 8995TIP3    H148476   1.560   3.935   2.525  0.1350 -0.4128 -0.5149
 8995TIP3    H248477   1.429   3.884   2.469 -0.5228  0.7882 -0.1230
 8996TIP3   OH248478   1.550   0.251   4.367 -0.4694  0.8916  0.0509
 8996TIP3    H148479   1.539   0.157   4.382  0.8615  0.9352  1.6513
 8996TIP3    H248480   1.533   0.291   4.453  0.0472  2.0088 -0.3408
 8997TIP3   OH248481   0.190   1.899   1.283 -0.5097 -0.5377  0.1846
 8997TIP3    H148482   0.175   1.983   1.327 -1.5219 -1.5793  1.9451
 8997TIP3    H248483   0.285   1.886   1.287 -0.5783 -0.7315  2.4267
 8998TIP3   OH248484   0.935   2.610   1.182  0.2128  0.1566 -0.1652
 8998TIP3    H148485   0.883   2.678   1.139 -0.9487  0.0248  0.9877
 8998TIP3    H248486   0.962   2.649   1.265 -0.9375 -0.9499  0.7643
 8999TIP3   OH248487   2.272   2.309   6.082  0.6426 -0.0473 -0.4522
 8999TIP3    H148488   2.262   2.217   6.057  1.0485 -0.0327 -0.6824
 8999TIP3    H248489   2.246   2.358   6.004 -1.6183  0.1054  0.3282
 9000TIP3   OH248490   2.782   2.422   1.099 -0.5055 -0.8013  0.2619
 9000TIP3    H148491   2.760   2.486   1.167  1.5621 -0.2102  0.4272
 9000TIP3    H248492   2.761   2.466   1.017  1.1538  0.2651  0.3620
 9001TIP3   OH248493   1.581   1.008   4.581  0.7163 -0.1018  0.2686
 9001TIP3    H148494   1.486   1.015   4.586  0.6610 -1.0391  0.7735
 9001TIP3    H248495   1.598   0.914   4.578  1.5328  0.0552 -2.1322
 9002TIP3   OH248496   5.143   1.574  12.430  0.0798 -0.7338  0.4982
 9002TIP3    H148497   5.151   1.646  12.368 -0.3039 -0.7800  0.3889
 9002TIP3    H248498   5.217   1.585  12.490  0.3445 -0.5813  0.1459
 9003TIP3   OH248499   0.897   2.303  11.451 -0.3581  0.2711  0.0404
 9003TIP3    H148500   0.940   2.220  11.471 -1.1122  0.4812  2.9606
 9003TIP3    H248501   0.805   2.288  11.471 -0.2204  2.2960  2.7273
 9004TIP3   OH248502   2.889   2.088  13.603 -0.5215  0.1341  0.0161
 9004TIP3    H148503   2.804   2.119  13.573 -0.0918  2.3869  0.9404
 9004TIP3    H248504   2.931   2.053  13.524 -1.7017  0.3710 -0.7462
 9005TIP3   OH248505   5.347   3.951   0.766  0.5260 -0.2613 -0.0636
 9005TIP3    H148506   5.377   4.042   0.769  0.2138 -0.1497 -0.2275
 9005TIP3    H248507   5.413   3.905   0.715 -0.0204  0.1602 -1.1730
 9006TIP3   OH248508   3.236   0.610   3.960  0.0104  0.3756  0.4104
 9006TIP3    H148509   3.318   0.577   3.923  1.2647  0.7930  2.5976
 9006TIP3    H248510   3.170   0.545   3.936  1.5888 -1.5537  1.0677
 9007TIP3   OH248511   1.450   0.548   5.459  0.0171  0.1044 -0.5892
 9007TIP3    H148512   1.492   0.548   5.545 -0.0170  1.8305 -0.5487
 9007TIP3    H248513   1.523   0.557   5.397 -0.1756  2.1370 -0.5641
 9008TIP3   OH248514   0.946   5.563   6.169 -0.3416  0.5594  0.4039
 9008TIP3    H148515   0.909   5.634   6.222 -2.2090 -0.3543  0.3814
 9008TIP3    H248516   0.877   5.498   6.163  1.7548 -1.9648  1.5849
 9009TIP3   OH248517   6.512   2.857   0.879 -0.0901  0.2480 -0.0400
 9009TIP3    H148518   6.573   2.930   0.881 -2.7102  2.5981  1.1516
 9009TIP3    H248519   6.468   2.864   0.794 -0.5599  0.2630  0.1975
 9010TIP3   OH248520   4.407   0.742   2.037 -0.1194  0.1082  0.0096
 9010TIP3    H148521   4.496   0.740   2.003  1.9292 -0.6627  4.5924
 9010TIP3    H248522   4.397   0.831   2.073 -1.9670  0.7317 -1.7946
 9011TIP3   OH248523   2.590   3.129   4.864  0.3160 -0.1104  0.1179
 9011TIP3    H148524   2.570   3.222   4.852 -3.4757 -0.4626  2.1764
 9011TIP3    H248525   2.627   3.124   4.952  1.8023 -0.4729 -0.4975
 9012TIP3   OH248526   4.960   1.055   2.890  0.1801  0.0255 -0.3750
 9012TIP3    H148527   4.982   1.053   2.797  1.6032 -0.4900 -0.0677
 9012TIP3    H248528   5.041   1.025   2.934  0.4308  2.6334  1.1618
 9013TIP3   OH248529   0.583   3.612  16.378  0.4154 -0.3252  0.1914
 9013TIP3    H148530   0.501   3.566  16.393  0.0532  0.1364 -0.3464
 9013TIP3    H248531   0.560   3.705  16.387  0.6528 -0.1439 -0.9852
 9014TIP3   OH248532   1.544   5.288   7.143 -0.4242  0.2638 -0.2299
 9014TIP3    H148533   1.593   5.315   7.065 -0.0532  1.3269  0.3455
 9014TIP3    H248534   1.515   5.199   7.123  0.3793  0.2001 -1.2382
 9015TIP3   OH248535   3.568   2.913   0.710  1.0138  0.3908 -0.4278
 9015TIP3    H148536   3.512   2.841   0.682 -1.5593  2.1520 -0.1705
 9015TIP3    H248537   3.555   2.917   0.805 -0.7597  2.5193 -0.6703
 9016TIP3   OH248538   0.878   6.769   1.360 -0.3245  0.1597 -0.9802
 9016TIP3    H148539   0.972   6.756   1.369 -0.3900 -1.3538 -2.0487
 9016TIP3    H248540   0.848   6.691   1.314 -2.0368  0.8343 -1.0623
 9017TIP3   OH248541   1.956   1.602  13.294  0.2361 -0.1679  0.2249
 9017TIP3    H148542   1.996   1.587  13.208 -1.6538  1.3969 -1.0346
 9017TIP3    H248543   1.949   1.697  13.301 -0.4119 -0.3009  1.7427
 9018TIP3   OH248544   5.855   5.848   5.612  0.1485 -0.5947 -0.6161
 9018TIP3    H148545   5.847   5.756   5.586  1.0180 -1.1786  1.0070
 9018TIP3    H248546   5.856   5.846   5.707 -2.4381  1.3809 -0.4495
 9019TIP3   OH248547   3.552   5.843   3.912 -0.1031 -0.0745  0.4311
 9019TIP3    H148548   3.632   5.854   3.963 -0.0215  0.8865  0.1046
 9019TIP3    H248549   3.495   5.791   3.969 -0.0263  1.0054  1.5274
 9020TIP3   OH248550   0.262   3.266  14.892 -0.2311  0.3527  0.6852
 9020TIP3    H148551   0.201   3.192  14.884  0.8281 -0.5361  0.5501
 9020TIP3    H248552   0.338   3.229  14.938  2.2674  0.0601 -3.2285
 9021TIP3   OH248553   4.031   0.304  11.281  0.3435 -0.0329  0.2714
 9021TIP3    H148554   3.979   0.364  11.228 -1.1183  0.0100  1.6833
 9021TIP3    H248555   4.090   0.262  11.218 -0.4300  0.9329 -1.1657
 9022TIP3   OH248556   0.287   2.620  14.330 -0.1699  0.1910  0.2446
 9022TIP3    H148557   0.342   2.556  14.375 -2.4308 -1.6935  0.5261
 9022TIP3    H248558   0.349   2.684  14.293  1.9406  0.6450  4.0777
 9023TIP3   OH248559   0.847   5.840   4.849 -0.2414 -0.1191  0.4500
 9023TIP3    H148560   0.816   5.753   4.823 -0.5591  0.3931 -0.9924
 9023TIP3    H248561   0.932   5.824   4.890 -0.3185 -1.1157  0.2464
 9024TIP3   OH248562   1.424   1.150   3.094  0.4599 -0.3329 -0.9004
 9024TIP3    H148563   1.437   1.110   3.180 -0.7962  1.5958  0.2587
 9024TIP3    H248564   1.335   1.125   3.070  0.7303 -0.6842 -1.5435
 9025TIP3   OH248565   4.789   4.874   3.885  0.3894  0.1912  0.3659
 9025TIP3    H148566   4.839   4.871   3.804  0.4678  1.1573  0.3707
 9025TIP3    H248567   4.697   4.869   3.856  0.4495 -0.9709  0.3231
 9026TIP3   OH248568   1.989   5.239   5.970  0.2417 -0.4332 -0.1798
 9026TIP3    H148569   2.048   5.269   6.040  1.3707 -0.4025 -1.1190
 9026TIP3    H248570   1.945   5.163   6.008  0.4766 -0.1285  0.7349
 9027TIP3   OH248571   1.083   3.036   2.815  0.7100  0.2449 -0.2677
 9027TIP3    H148572   1.011   2.994   2.768  1.4479 -2.9731  1.2010
 9027TIP3    H248573   1.045   3.115   2.852 -1.6098 -0.5359 -0.8525
 9028TIP3   OH248574   1.201   2.244  14.160 -0.0527 -0.4271  0.4352
 9028TIP3    H148575   1.232   2.218  14.073 -0.2993 -0.5768  0.3885
 9028TIP3    H248576   1.118   2.197  14.170 -0.7586  0.7367  0.1482
 9029TIP3   OH248577   2.099   4.202  11.776 -0.1748 -0.2968 -0.5562
 9029TIP3    H148578   2.143   4.146  11.841 -1.2564  1.0280  1.4275
 9029TIP3    H248579   2.044   4.142  11.726  0.1848 -1.2884  0.2068
 9030TIP3   OH248580   2.708   2.291   5.848 -0.0853  0.3905  0.5881
 9030TIP3    H148581   2.667   2.373   5.819 -0.5955 -0.2155 -0.4558
 9030TIP3    H248582   2.770   2.269   5.778 -1.3791 -1.1360 -0.1358
 9031TIP3   OH248583   4.110   5.847  14.835  0.4414 -0.5531 -0.1384
 9031TIP3    H148584   4.065   5.832  14.918  0.2606 -0.0534 -0.1417
 9031TIP3    H248585   4.067   5.788  14.774  1.0618 -1.4628  0.2773
 9032TIP3   OH248586   1.076   3.053   6.262  0.0690  0.2560 -0.0960
 9032TIP3    H148587   0.992   3.007   6.251 -0.4350  0.8011  1.2505
 9032TIP3    H248588   1.136   2.987   6.296 -0.5037  0.4267  1.3064
 9033TIP3   OH248589   1.306   2.727  14.534  0.5681  0.5279  0.2690
 9033TIP3    H148590   1.248   2.669  14.583  1.5784 -0.3170  0.5036
 9033TIP3    H248591   1.274   2.724  14.444  0.6102 -0.3942  0.2811
 9034TIP3   OH248592   4.635   0.640   1.944  0.9178  1.0635 -0.6168
 9034TIP3    H148593   4.652   0.553   1.908  2.1463  0.9692  0.1368
 9034TIP3    H248594   4.699   0.697   1.902  0.7015  1.4427 -0.4457
 9035TIP3   OH248595   4.519   6.253  14.671 -0.1014 -0.0227  0.1159
 9035TIP3    H148596   4.494   6.221  14.584 -1.3120  0.4776  0.2562
 9035TIP3    H248597   4.517   6.348  14.663  0.5700  0.0226  0.4794
 9036TIP3   OH248598   2.707   3.803  10.441  0.5087 -0.8252 -0.0923
 9036TIP3    H148599   2.635   3.800  10.378  0.6425 -1.7742 -0.2234
 9036TIP3    H248600   2.703   3.890  10.479  0.6869 -0.0741 -1.7177
 9037TIP3   OH248601   0.129   5.872   6.857  0.2395  0.3944  0.1672
 9037TIP3    H148602   0.218   5.900   6.837 -0.1478  0.9603 -0.8431
 9037TIP3    H248603   0.073   5.926   6.800 -0.7817  0.4451  1.1789
 9038TIP3   OH248604   0.075   2.259  11.680  0.3753  0.1189 -0.3245
 9038TIP3    H148605   0.117   2.188  11.630 -0.3861 -0.5007 -0.0963
 9038TIP3    H248606   0.137   2.332  11.674  1.5295 -0.8015  0.0866
 9039TIP3   OH248607   4.537   2.827   5.837 -0.0294 -0.2954  0.0618
 9039TIP3    H148608   4.505   2.857   5.752 -0.9156  1.1494  0.8783
 9039TIP3    H248609   4.620   2.873   5.850  0.1929 -0.6476 -0.0800
 9040TIP3   OH248610   2.148   1.789   2.451  0.0872  0.0439  0.1660
 9040TIP3    H148611   2.165   1.754   2.538  1.8561 -0.0302 -0.1834
 9040TIP3    H248612   2.116   1.714   2.401  0.3872 -0.2292  0.3808
 9041TIP3   OH248613   0.111   0.594   1.332  0.1779  0.6369  0.1004
 9041TIP3    H148614   0.135   0.502   1.324 -1.6912  0.1460 -0.1924
 9041TIP3    H248615   0.153   0.636   1.257 -1.4395 -0.5361 -1.5221
 9042TIP3   OH248616   5.106   2.443  11.534  0.1231  0.1452 -0.0704
 9042TIP3    H148617   5.122   2.499  11.610 -0.9009 -0.3546  0.5395
 9042TIP3    H248618   5.192   2.410  11.509  0.4672  0.3010  0.8838
 9043TIP3   OH248619   3.079   6.629   5.382 -0.1105 -0.3306  0.4638
 9043TIP3    H148620   3.163   6.640   5.337 -0.4420  0.7773  0.0810
 9043TIP3    H248621   3.014   6.658   5.318 -0.6378  0.7257  1.4463
 9044TIP3   OH248622   2.692   6.516  14.785  0.2039 -0.4864  0.2942
 9044TIP3    H148623   2.729   6.602  14.763  1.7717 -1.2054  0.0109
 9044TIP3    H248624   2.648   6.530  14.869 -0.6651  0.8766 -0.3393
 9045TIP3   OH248625   0.670   3.376  12.312 -0.6065  0.5741 -0.0334
 9045TIP3    H148626   0.637   3.425  12.237 -0.0329  1.6651  0.4023
 9045TIP3    H248627   0.703   3.443  12.372 -0.7205 -0.2984  1.0372
 9046TIP3   OH248628   4.591   3.826  11.813 -0.1208  0.1169 -0.4107
 9046TIP3    H148629   4.509   3.777  11.810 -0.6777  1.0192 -0.5213
 9046TIP3    H248630   4.594   3.862  11.902 -0.1324  0.5398 -0.5761
 9047TIP3   OH248631   4.733   2.081  12.812 -0.1044 -0.0779 -0.3403
 9047TIP3    H148632   4.676   2.019  12.767 -1.1885  1.7264 -1.5878
 9047TIP3    H248633   4.764   2.034  12.889 -1.9818 -1.6831 -0.4912
 9048TIP3   OH248634   2.857   1.347  13.799 -0.4719 -0.7225  0.4219
 9048TIP3    H148635   2.903   1.392  13.870 -1.2244  2.1527 -0.7953
 9048TIP3    H248636   2.922   1.341  13.729 -1.0427  0.6568 -0.2486
 9049TIP3   OH248637   3.118   4.197   4.697 -0.3496 -0.2017 -0.1847
 9049TIP3    H148638   3.028   4.166   4.707 -1.0877  1.9282  0.3258
 9049TIP3    H248639   3.163   4.168   4.776 -0.7326 -0.8195 -0.1911
 9050TIP3   OH248640   5.145   0.724  14.136 -0.7365  0.3709 -0.4561
 9050TIP3    H148641   5.104   0.640  14.115  1.1311 -1.1281  1.3420
 9050TIP3    H248642   5.207   0.739  14.065 -0.6913 -0.0697 -0.5126
 9051TIP3   OH248643   0.247   6.415  14.537 -0.0169 -0.7241  0.0236
 9051TIP3    H148644   0.156   6.404  14.510 -1.1870 -0.7953  3.4115
 9051TIP3    H248645   0.254   6.508  14.561  1.1021 -0.5203 -1.0020
 9052TIP3   OH248646   1.230   1.903   0.835 -0.8284  0.5003  0.0506
 9052TIP3    H148647   1.317   1.905   0.876 -1.6588 -1.7790  2.2090
 9052TIP3    H248648   1.188   1.983   0.865  0.2082  1.1822 -0.2757
 9053TIP3   OH248649   5.030   2.637  15.299  0.2963  0.4307  0.2186
 9053TIP3    H148650   5.033   2.542  15.311  2.3046  0.2901 -0.9213
 9053TIP3    H248651   5.119   2.667  15.321 -0.1840  2.0054  0.1718
 9054TIP3   OH248652   5.100   4.456  12.210 -0.0661 -0.1773 -0.0352
 9054TIP3    H148653   5.144   4.514  12.272  1.5481  0.7761 -1.9777
 9054TIP3    H248654   5.170   4.405  12.170 -1.0681 -0.8181 -1.0456
 9055TIP3   OH248655   6.815   1.790  17.029  0.4810  0.2324  0.0023
 9055TIP3    H148656   6.869   1.855  16.984 -1.0040  0.4328 -1.5995
 9055TIP3    H248657   6.726   1.823  17.021 -0.2691 -1.7481 -0.4667
 9056TIP3   OH248658   3.934   2.621  12.424  0.6450 -0.1941 -0.0659
 9056TIP3    H148659   3.918   2.715  12.427  1.1526 -0.1285  1.3644
 9056TIP3    H248660   4.028   2.612  12.440  0.9522 -0.8752 -2.0007
 9057TIP3   OH248661   4.472   3.642  16.056 -0.1974 -0.4062 -0.8851
 9057TIP3    H148662   4.525   3.589  16.115 -0.0788 -0.3282 -0.9204
 9057TIP3    H248663   4.393   3.663  16.107 -0.2839 -0.6903 -0.9026
 9058TIP3   OH248664   2.971   2.723   5.420  0.2243  0.1061  0.1143
 9058TIP3    H148665   2.887   2.711   5.376  0.6273  0.1390 -0.6890
 9058TIP3    H248666   2.999   2.811   5.395  1.2334 -0.4801 -0.9486
 9059TIP3   OH248667   2.603   6.604  15.284 -0.7746  0.0687  0.4527
 9059TIP3    H148668   2.601   6.532  15.347 -0.4235 -0.8523 -0.5600
 9059TIP3    H248669   2.696   6.624  15.273 -0.8455  0.3574  0.3696
 9060TIP3   OH248670   1.506   1.059   0.631 -0.1889  0.4456  0.1049
 9060TIP3    H148671   1.600   1.056   0.612  0.3016 -0.6160  2.3465
 9060TIP3    H248672   1.469   1.111   0.560  1.9300  0.0036 -1.4295
 9061TIP3   OH248673   5.233   2.550   0.016 -0.0090 -0.2026 -0.1155
 9061TIP3    H148674   5.325   2.569   0.031  0.3645 -1.7633 -0.2380
 9061TIP3    H248675   5.200   2.626  -0.032  1.1733  0.4320  0.0378
 9062TIP3   OH248676   2.836   3.557   0.462 -0.0476  0.1568 -0.4417
 9062TIP3    H148677   2.758   3.611   0.454 -0.4244 -0.3657 -0.3193
 9062TIP3    H248678   2.907   3.619   0.479 -0.4155  0.6399 -0.6721
 9063TIP3   OH248679   6.167   2.816   0.105 -0.2825  0.8266 -0.6755
 9063TIP3    H148680   6.086   2.824   0.157  1.0778  1.8839  1.4060
 9063TIP3    H248681   6.161   2.729   0.065 -2.3406  0.8044 -0.4218
 9064TIP3   OH248682   3.538   4.455   6.505  0.0738 -0.3982 -0.3554
 9064TIP3    H148683   3.459   4.450   6.559  0.3582  0.8395  0.2100
 9064TIP3    H248684   3.560   4.364   6.486 -0.4180 -0.8409  1.0695
 9065TIP3   OH248685   3.570   5.789  12.280 -0.2090  0.7300  0.4195
 9065TIP3    H148686   3.523   5.788  12.364  0.9975  1.0049  1.1127
 9065TIP3    H248687   3.535   5.713  12.233 -0.2018 -0.0039  1.5618
 9066TIP3   OH248688   3.044   0.337  14.267 -0.2366  0.6856 -0.2755
 9066TIP3    H148689   2.999   0.402  14.321  0.9374  0.1334  1.4324
 9066TIP3    H248690   3.006   0.253  14.293  0.2770  0.4193 -0.3728
 9067TIP3   OH248691   3.138   2.956   1.895  0.3152  0.3348 -0.0814
 9067TIP3    H148692   3.103   2.978   1.808  0.5270  0.4264 -0.1437
 9067TIP3    H248693   3.153   2.862   1.891 -0.0867  0.2627  0.0053
 9068TIP3   OH248694   4.055   0.243   4.953  0.0090  0.1300  0.1401
 9068TIP3    H148695   3.970   0.281   4.976 -1.9707 -2.0639 -2.8096
 9068TIP3    H248696   4.058   0.160   5.000 -0.1694 -0.4631 -0.8797
 9069TIP3   OH248697   4.274   5.735  10.574 -0.1357  0.0477  0.1449
 9069TIP3    H148698   4.345   5.685  10.534 -0.3074  0.3517 -0.5499
 9069TIP3    H248699   4.213   5.668  10.606 -2.3910 -0.3961 -4.2655
 9070TIP3   OH248700   6.813   5.849   1.342 -0.1676  0.6363 -0.2912
 9070TIP3    H148701   6.853   5.933   1.363  0.7505  0.6404 -1.8864
 9070TIP3    H248702   6.832   5.835   1.249  2.2117 -2.5890  0.4704
 9071TIP3   OH248703   4.467   1.463  12.081 -0.2293  0.3242 -0.3180
 9071TIP3    H148704   4.449   1.512  12.161 -1.2446  1.0405 -0.9761
 9071TIP3    H248705   4.381   1.446  12.043  0.2308 -0.1931 -1.1543
 9072TIP3   OH248706   4.147   0.892  16.950  0.2071  0.2873  0.5514
 9072TIP3    H148707   4.225   0.928  16.909  0.3202  0.6830  1.1125
 9072TIP3    H248708   4.114   0.829  16.886  0.2751  1.0257 -0.2285
 9073TIP3   OH248709   2.335   3.408  16.342  0.2545  0.0210 -0.3055
 9073TIP3    H148710   2.271   3.440  16.279  0.2476 -0.4293 -0.5343
 9073TIP3    H248711   2.282   3.367  16.411  0.3215 -2.4503 -1.6303
 9074TIP3   OH248712   1.550   5.093   0.301 -0.6594  0.0923 -0.6648
 9074TIP3    H148713   1.521   5.129   0.217 -2.5334  1.3777  0.4659
 9074TIP3    H248714   1.528   5.161   0.365  2.4639 -0.0255  0.6842
 9075TIP3   OH248715   5.865   6.545   6.063 -0.1353 -0.0971 -0.3291
 9075TIP3    H148716   5.956   6.515   6.065 -0.4851 -1.4563 -2.1328
 9075TIP3    H248717   5.830   6.520   6.149  1.7274  2.6125  1.3988
 9076TIP3   OH248718   3.355   5.597   4.094 -0.1031  0.3874 -0.1445
 9076TIP3    H148719   3.442   5.562   4.115  0.7962  2.3717 -0.2937
 9076TIP3    H248720   3.348   5.584   3.999  0.0358  0.2472 -0.1379
 9077TIP3   OH248721   4.750   3.986  14.852 -0.3979 -0.0275 -0.5897
 9077TIP3    H148722   4.833   4.031  14.867 -0.6792  0.9839 -1.8779
 9077TIP3    H248723   4.694   4.051  14.810 -2.3280 -0.2527  1.4171
 9078TIP3   OH248724   2.723   5.085   1.057  0.3003  0.3861 -0.2924
 9078TIP3    H148725   2.636   5.046   1.061 -0.0632  1.2289  0.2717
 9078TIP3    H248726   2.755   5.081   1.147 -0.0498  2.0338 -0.0736
 9079TIP3   OH248727   5.371   1.884  15.402  0.3798  0.1834 -0.3442
 9079TIP3    H148728   5.392   1.792  15.418 -0.4827  0.3652  2.4214
 9079TIP3    H248729   5.289   1.883  15.354 -0.4976 -0.5388  1.1099
 9080TIP3   OH248730   5.824   5.578  11.683 -0.7737 -0.0133 -0.7476
 9080TIP3    H148731   5.841   5.518  11.610 -0.4187  0.9827 -1.5129
 9080TIP3    H248732   5.886   5.551  11.751 -0.3085 -0.2324 -1.2520
 9081TIP3   OH248733   5.752   3.561  15.523  0.2515 -0.2660 -0.0529
 9081TIP3    H148734   5.780   3.512  15.599  0.1933 -0.6873 -0.2998
 9081TIP3    H248735   5.693   3.628  15.558 -0.6581 -1.1564  0.1557
 9082TIP3   OH248736   2.408   6.581   3.685 -0.0554 -0.3745 -0.6087
 9082TIP3    H148737   2.312   6.587   3.683 -0.0441  0.0966  0.0662
 9082TIP3    H248738   2.427   6.531   3.764  0.2863  0.3296 -0.2350
 9083TIP3   OH248739   1.806   4.613  16.600 -0.2151  0.0082 -0.4354
 9083TIP3    H148740   1.781   4.522  16.614 -0.3324  0.0559 -0.3349
 9083TIP3    H248741   1.765   4.661  16.673  0.7742 -0.0161  0.1570
 9084TIP3   OH248742   4.087   4.627  12.699  0.1110  0.0952  0.5526
 9084TIP3    H148743   4.076   4.571  12.622 -0.7776  0.3412  0.4873
 9084TIP3    H248744   4.125   4.571  12.765 -0.9938 -0.6729  0.5664
 9085TIP3   OH248745   6.273   6.795  15.990  0.7317 -0.6344 -0.3729
 9085TIP3    H148746   6.200   6.737  16.011 -0.1351  0.7521  0.6782
 9085TIP3    H248747   6.295   6.835  16.074  1.0990  0.7423 -1.1038
 9086TIP3   OH248748   0.544   2.876  13.324  0.8498  0.0201  0.2980
 9086TIP3    H148749   0.584   2.854  13.239 -1.3680 -2.1431 -0.3045
 9086TIP3    H248750   0.488   2.952  13.305 -0.4521 -1.0869 -0.5108
 9087TIP3   OH248751   1.306   6.133   4.507  0.2208  0.1039 -0.0729
 9087TIP3    H148752   1.277   6.055   4.460 -2.0513 -0.8217  2.5520
 9087TIP3    H248753   1.228   6.188   4.512  0.4911  0.3928  2.0143
 9088TIP3   OH248754   1.831   0.716  12.589 -0.3644 -0.0588  0.8572
 9088TIP3    H148755   1.839   0.626  12.619 -2.5143 -0.9810 -0.9408
 9088TIP3    H248756   1.858   0.713  12.497 -0.3993  1.1415  0.7874
 9089TIP3   OH248757   3.908   4.042   2.491  0.1788  0.0198  0.3324
 9089TIP3    H148758   3.932   4.128   2.456 -0.3624 -0.5317 -1.4717
 9089TIP3    H248759   3.857   4.062   2.570  1.5410  1.2957  0.9452
 9090TIP3   OH248760   4.139   3.775   0.624  0.5804  0.2349  1.0688
 9090TIP3    H148761   4.104   3.687   0.639 -1.9315  1.2802  1.8203
 9090TIP3    H248762   4.165   3.775   0.531 -1.9169 -0.5396  0.2879
 9091TIP3   OH248763   5.775   1.655   0.835  0.1009  0.1291 -0.5269
 9091TIP3    H148764   5.797   1.730   0.891 -0.2837 -1.7364  2.2869
 9091TIP3    H248765   5.700   1.614   0.878  0.2159 -1.8350 -2.0479
 9092TIP3   OH248766   2.646   2.181   1.043  0.2605  0.0421 -0.3199
 9092TIP3    H148767   2.552   2.198   1.034  0.0445 -1.5078 -1.4558
 9092TIP3    H248768   2.682   2.261   1.080 -1.4380  0.8458 -0.3330
 9093TIP3   OH248769   2.512   6.061  15.943  0.3451 -0.2579  0.5347
 9093TIP3    H148770   2.572   6.127  15.908 -0.8321  0.2648 -0.5906
 9093TIP3    H248771   2.568   5.988  15.968  1.4494  0.1732 -0.5878
 9094TIP3   OH248772   4.685   4.672   2.819  0.1328 -0.1146 -0.6111
 9094TIP3    H148773   4.613   4.733   2.801  1.2057  1.1845 -0.6389
 9094TIP3    H248774   4.683   4.611   2.746 -1.0582 -0.2391 -0.5076
 9095TIP3   OH248775   1.213   5.731   0.467 -0.3378 -0.1332  0.7015
 9095TIP3    H148776   1.258   5.810   0.439 -0.6060 -0.3354 -0.3682
 9095TIP3    H248777   1.280   5.678   0.510  0.1690  0.0774  0.1809
 9096TIP3   OH248778   5.724   0.586  13.146  0.3301 -0.5411 -0.2309
 9096TIP3    H148779   5.705   0.677  13.123 -0.5300 -0.4204  0.8513
 9096TIP3    H248780   5.820   0.583  13.152  0.4055  0.1331 -0.8821
 9097TIP3   OH248781   3.378   0.913   5.815  0.0829  0.4418 -0.5065
 9097TIP3    H148782   3.393   0.901   5.908  0.6317 -0.9056 -0.7505
 9097TIP3    H248783   3.443   0.978   5.789 -1.3512  2.3242  0.3865
 9098TIP3   OH248784   0.965   0.965   4.412 -0.8361  0.4416  0.5664
 9098TIP3    H148785   0.987   0.932   4.499 -1.6316 -0.4073  0.4716
 9098TIP3    H248786   1.017   1.044   4.402  0.2936 -0.1749  1.2774
 9099TIP3   OH248787   4.764   5.231   3.696 -0.1160  0.6292  0.4425
 9099TIP3    H148788   4.703   5.253   3.767  0.5230  0.3054  1.1036
 9099TIP3    H248789   4.714   5.173   3.639 -0.7236  1.1017  0.4883
 9100TIP3   OH248790   1.725   3.439   5.487  0.1995 -0.3056  1.0928
 9100TIP3    H148791   1.811   3.422   5.527  0.5941  0.6361  0.6724
 9100TIP3    H248792   1.724   3.384   5.408 -0.0810 -1.2301  1.7299
 9101TIP3   OH248793   1.981   0.460  12.302 -0.2145  0.2607 -0.1878
 9101TIP3    H148794   1.888   0.445  12.283 -0.9412  1.4202  2.0640
 9101TIP3    H248795   1.993   0.425  12.391  1.9959 -1.4999 -1.0677
 9102TIP3   OH248796   2.902   3.856  15.801  0.1678 -0.5058 -0.1454
 9102TIP3    H148797   2.817   3.812  15.806  1.0421 -2.1760  1.1127
 9102TIP3    H248798   2.930   3.845  15.710 -1.1793  0.5970 -0.7388
 9103TIP3   OH248799   0.183   5.560   6.537 -0.2320 -0.4011  0.7507
 9103TIP3    H148800   0.132   5.480   6.530  1.1638 -1.1953 -1.3252
 9103TIP3    H248801   0.138   5.623   6.480 -0.4581 -0.2076  1.1429
 9104TIP3   OH248802   3.560   0.097  14.010 -0.1726 -0.2804 -0.1245
 9104TIP3    H148803   3.491   0.095  13.943 -1.9337  2.3739  1.3708
 9104TIP3    H248804   3.605   0.014  14.001 -1.3752 -0.7448 -3.4574
 9105TIP3   OH248805   0.899   2.166  16.295  0.8011 -0.3888  0.3801
 9105TIP3    H148806   0.882   2.148  16.387  0.4484 -0.1385  0.3674
 9105TIP3    H248807   0.973   2.226  16.294  0.5872 -0.1256  0.5116
 9106TIP3   OH248808   4.518   5.346   6.551  0.4162 -0.1270  0.2127
 9106TIP3    H148809   4.448   5.295   6.592  0.1239  0.2565  0.1962
 9106TIP3    H248810   4.480   5.377   6.469  1.3929 -1.8966 -0.9566
 9107TIP3   OH248811   5.812   2.751   1.618  0.2201  0.2674  0.2464
 9107TIP3    H148812   5.736   2.771   1.563  0.0092 -0.2843  0.3338
 9107TIP3    H248813   5.874   2.821   1.599  0.1767  0.0549 -0.7577
 9108TIP3   OH248814   2.937   1.136   1.945 -0.3008  0.7836  0.0279
 9108TIP3    H148815   3.013   1.083   1.919 -1.5712  0.0757 -2.6617
 9108TIP3    H248816   2.958   1.167   2.033  2.6898 -0.1052 -0.2585
 9109TIP3   OH248817   5.391   3.629   5.519 -0.3139 -0.5903  0.2539
 9109TIP3    H148818   5.408   3.583   5.600  1.1037 -1.2859 -0.4153
 9109TIP3    H248819   5.476   3.640   5.478 -0.9843 -0.1888 -1.1157
 9110TIP3   OH248820   1.323   6.672   1.798 -0.6000  0.0358  0.3208
 9110TIP3    H148821   1.255   6.639   1.740 -0.8330 -1.4636  1.3820
 9110TIP3    H248822   1.391   6.604   1.798 -1.3089 -0.8232  2.9407
 9111TIP3   OH248823   3.878   2.638  16.453  0.0665  0.2659  0.3105
 9111TIP3    H148824   3.829   2.699  16.398  0.0702  0.8922  0.9876
 9111TIP3    H248825   3.835   2.643  16.538  2.1313  1.9504  1.3613
 9112TIP3   OH248826   3.734   3.825   2.477 -0.1556 -0.0910  0.6424
 9112TIP3    H148827   3.804   3.889   2.466  0.1560 -0.1382  2.2375
 9112TIP3    H248828   3.663   3.857   2.421  0.3139  1.1636  0.7487
 9113TIP3   OH248829   6.772   2.922  13.420  0.1504  0.0455 -0.5421
 9113TIP3    H148830   6.748   3.008  13.454  0.6704  0.3725 -0.9772
 9113TIP3    H248831   6.706   2.863  13.455  0.1968  0.4996  0.3521
 9114TIP3   OH248832   2.017   2.910   3.877  0.2019  0.0837 -0.1310
 9114TIP3    H148833   1.930   2.882   3.905  0.8526 -0.1836  1.7627
 9114TIP3    H248834   2.023   3.001   3.905  0.1336  0.4716 -1.3113
 9115TIP3   OH248835   3.071   2.940   4.894  0.6646  0.0474  0.7229
 9115TIP3    H148836   3.154   2.893   4.891  0.5094 -0.2595  1.2048
 9115TIP3    H248837   3.036   2.923   4.981  0.6090  1.0618  0.9119
 9116TIP3   OH248838   2.716   1.712  11.355  0.4225 -0.1116 -0.2879
 9116TIP3    H148839   2.708   1.658  11.434 -1.6660  1.2107  0.4973
 9116TIP3    H248840   2.648   1.679  11.296  0.2616  0.5562 -0.4847
 9117TIP3   OH248841   3.565   0.586   5.485  0.0214 -0.6855 -0.0283
 9117TIP3    H148842   3.543   0.658   5.544  2.2870 -0.2561  0.3848
 9117TIP3    H248843   3.607   0.629   5.410 -0.6651 -1.4094 -0.8427
 9118TIP3   OH248844   2.111   1.976   4.474  0.1773  0.0604 -0.3177
 9118TIP3    H148845   2.135   2.037   4.405  2.0491 -0.0669  0.1671
 9118TIP3    H248846   2.123   2.025   4.555 -0.1110 -0.3968  0.0117
 9119TIP3   OH248847   4.146   4.871  15.872  0.1486  0.5637  0.3084
 9119TIP3    H148848   4.236   4.903  15.863  0.5290 -0.4701  0.2430
 9119TIP3    H248849   4.141   4.798  15.810 -1.5670  2.2576 -1.7062
 9120TIP3   OH248850   6.444   1.007   5.412 -0.1420  0.1359 -0.0819
 9120TIP3    H148851   6.387   0.976   5.483  1.5376 -0.4231  1.0963
 9120TIP3    H248852   6.397   0.987   5.332 -1.6337 -0.2091  0.8503
 9121TIP3   OH248853   4.657   5.917   3.636 -0.1789  0.5723  0.3724
 9121TIP3    H148854   4.688   6.006   3.647  0.5348  0.6071 -1.4853
 9121TIP3    H248855   4.563   5.926   3.619 -0.3079  0.8659  1.1991
 9122TIP3   OH248856   3.997   4.001  12.955 -0.0845  0.4697  0.5092
 9122TIP3    H148857   4.017   4.095  12.950 -0.6517  0.5209 -1.1759
 9122TIP3    H248858   4.081   3.958  12.938  0.3404  0.6336  2.0198
 9123TIP3   OH248859   2.758   6.732   2.077  0.1133 -0.3467  0.6360
 9123TIP3    H148860   2.784   6.798   2.012  2.9856 -1.1614  0.7831
 9123TIP3    H248861   2.669   6.707   2.052  0.4575  0.6491 -1.9177
 9124TIP3   OH248862   3.572   1.877  14.845 -0.0503  0.1052 -0.2055
 9124TIP3    H148863   3.658   1.887  14.886 -0.5434 -1.8104  1.4851
 9124TIP3    H248864   3.579   1.794  14.797 -0.9919 -0.1838  0.1339
 9125TIP3   OH248865   2.655   3.726   0.366  0.6037 -0.2637 -0.0109
 9125TIP3    H148866   2.668   3.790   0.296  0.1106 -0.0032  0.1311
 9125TIP3    H248867   2.603   3.773   0.432 -0.8816 -1.1862 -0.4729
 9126TIP3   OH248868   2.449   2.722  16.144  0.2235 -0.5687 -0.3908
 9126TIP3    H148869   2.513   2.710  16.215  1.5729  1.2349 -1.2261
 9126TIP3    H248870   2.472   2.656  16.079  0.5533 -0.6353 -0.2064
 9127TIP3   OH248871   3.246   3.503   2.748  0.4667  0.1112  0.1953
 9127TIP3    H148872   3.182   3.470   2.684  0.0151  1.2907  0.0093
 9127TIP3    H248873   3.210   3.478   2.833 -0.0677  0.4556  0.0758
 9128TIP3   OH248874   0.612   6.822  15.694 -0.2945 -0.1812 -0.2445
 9128TIP3    H148875   0.566   6.741  15.718 -3.4363  1.0066 -1.6490
 9128TIP3    H248876   0.658   6.800  15.614  1.9998 -1.4636  1.3033
 9129TIP3   OH248877   2.923   3.236   0.442  0.0063  0.1334 -0.6631
 9129TIP3    H148878   2.840   3.281   0.423  0.3815  0.4115 -1.7803
 9129TIP3    H248879   2.913   3.201   0.530 -1.4653 -0.2121 -0.9505
 9130TIP3   OH248880   2.983   3.791   5.909 -0.0881  0.3135  0.1764
 9130TIP3    H148881   3.022   3.842   5.838  0.3253  0.7107  0.6722
 9130TIP3    H248882   2.898   3.763   5.875  0.5772 -0.4722 -0.8837
 9131TIP3   OH248883   2.618   5.794   1.408  0.7768  0.0040  0.0560
 9131TIP3    H148884   2.558   5.739   1.357 -0.3447  0.0217  1.3106
 9131TIP3    H248885   2.690   5.814   1.347 -0.1642 -0.5504 -1.2795
 9132TIP3   OH248886   0.170   6.772  11.292  0.1951 -0.7630  0.6934
 9132TIP3    H148887   0.177   6.864  11.320  2.1077 -0.4681 -0.5647
 9132TIP3    H248888   0.077   6.760  11.275  0.0170  1.2953 -0.1367
 9133TIP3   OH248889   3.695   2.502  12.459  0.1117 -0.3669  0.1029
 9133TIP3    H148890   3.778   2.525  12.418  0.5815  0.1711  1.3046
 9133TIP3    H248891   3.720   2.444  12.532 -0.2310  1.9163  2.1712
 9134TIP3   OH248892   1.417   1.848  16.716 -0.2861  0.0520 -0.1198
 9134TIP3    H148893   1.411   1.860  16.811 -2.1998  1.4893 -0.3600
 9134TIP3    H248894   1.346   1.901  16.680  0.1355 -0.7620 -2.3561
 9135TIP3   OH248895   3.574   4.037  14.487  0.3414 -0.1935 -0.1046
 9135TIP3    H148896   3.515   4.031  14.412  1.1529  1.0298 -0.8794
 9135TIP3    H248897   3.578   4.130  14.507  3.3548  0.0176 -1.2365
 9136TIP3   OH248898   3.412   2.684   0.204  0.2003 -0.5168 -0.4699
 9136TIP3    H148899   3.351   2.695   0.130 -0.2874 -1.4880 -0.2368
 9136TIP3    H248900   3.385   2.750   0.268  0.1967 -0.1152 -0.8833
 9137TIP3   OH248901   6.307   4.216  10.491  0.2926  0.6751  0.5898
 9137TIP3    H148902   6.257   4.215  10.410  1.9705 -0.8822 -0.5032
 9137TIP3    H248903   6.274   4.141  10.540 -1.3539  2.1325  1.8349
 9138TIP3   OH248904   6.179   2.379  12.781  0.9170 -0.4997 -0.1896
 9138TIP3    H148905   6.263   2.337  12.759 -0.3007 -1.5996 -3.3781
 9138TIP3    H248906   6.178   2.459  12.728  0.0132 -0.4395 -0.0872
 9139TIP3   OH248907   0.449   0.962  11.713  0.2464  0.1958 -0.3306
 9139TIP3    H148908   0.521   0.958  11.777  0.2346 -3.5388 -0.3198
 9139TIP3    H248909   0.486   0.923  11.634 -0.4665  2.5846 -1.9350
 9140TIP3   OH248910   3.647   6.618   1.843 -0.0424  0.5698  0.3581
 9140TIP3    H148911   3.569   6.564   1.830  1.1735 -1.0298 -0.6271
 9140TIP3    H248912   3.647   6.677   1.767 -0.4763  0.8454  0.5642
 9141TIP3   OH248913   5.046   4.208  16.540  0.1579  0.0566  0.3133
 9141TIP3    H148914   5.117   4.145  16.543  0.3223  0.2655  2.1405
 9141TIP3    H248915   5.079   4.285  16.586 -0.9911  0.4172  0.5908
 9142TIP3   OH248916   1.555   5.933  13.065  0.7237 -0.3247  0.0412
 9142TIP3    H148917   1.532   6.007  13.121  0.9951 -0.2376  0.0408
 9142TIP3    H248918   1.602   5.973  12.992  1.0378 -0.5154  0.1375
 9143TIP3   OH248919   5.092   0.663   3.234 -0.5592 -0.2466 -0.3268
 9143TIP3    H148920   5.084   0.709   3.150  0.7605 -0.5706 -0.6525
 9143TIP3    H248921   5.077   0.571   3.212  0.4128 -0.4163 -0.3503
 9144TIP3   OH248922   5.632   1.201  11.865 -0.2209  0.2537  0.5396
 9144TIP3    H148923   5.699   1.158  11.811 -0.2098  0.1185  0.6600
 9144TIP3    H248924   5.562   1.135  11.871 -0.3208  0.3558  0.4999
 9145TIP3   OH248925   1.291   6.738  15.038  0.1279 -0.2544  0.0054
 9145TIP3    H148926   1.260   6.792  15.111 -0.2144  2.4461 -1.9732
 9145TIP3    H248927   1.213   6.690  15.010 -1.0401  2.2776 -1.4290
 9146TIP3   OH248928   0.473   2.760   6.148 -0.0076  0.2184 -0.3183
 9146TIP3    H148929   0.443   2.691   6.089 -1.4452  0.5184  0.0450
 9146TIP3    H248930   0.543   2.719   6.199 -2.4590 -1.8451  1.6662
 9147TIP3   OH248931   5.385   1.058  13.872  0.0249 -0.2211  0.2007
 9147TIP3    H148932   5.429   1.037  13.790 -0.1167  0.1181  0.0336
 9147TIP3    H248933   5.446   1.117  13.917  0.0068 -0.2317  0.2384
 9148TIP3   OH248934   4.299   2.526   2.193 -0.3967  0.0329 -0.4736
 9148TIP3    H148935   4.376   2.547   2.245 -0.9031  1.0241 -0.0956
 9148TIP3    H248936   4.323   2.550   2.104 -0.9567  2.3692 -0.0620
 9149TIP3   OH248937   1.236   0.345  13.600 -0.6234  0.1603  0.3266
 9149TIP3    H148938   1.268   0.258  13.622 -2.2007 -0.3156  0.9196
 9149TIP3    H248939   1.187   0.333  13.518 -0.3632  0.6043  0.1008
 9150TIP3   OH248940   1.304   0.269   0.777 -0.5083 -0.7873 -0.3413
 9150TIP3    H148941   1.250   0.331   0.826 -0.1265  0.2920 -1.2528
 9150TIP3    H248942   1.390   0.312   0.772 -0.1103 -1.5992 -0.5937
 9151TIP3   OH248943   1.939   0.501   3.759 -0.4790 -0.1604  0.8621
 9151TIP3    H148944   1.946   0.596   3.752 -0.1178 -0.2269  0.2147
 9151TIP3    H248945   1.865   0.486   3.817 -1.2248  0.5071  0.0948
 9152TIP3   OH248946   1.030   2.458  16.781  0.2930 -0.6067  0.2027
 9152TIP3    H148947   1.053   2.551  16.786  0.6421 -0.7216  1.0166
 9152TIP3    H248948   1.017   2.441  16.688 -0.6523  0.4617  0.1242
 9153TIP3   OH248949   4.659   1.143   6.545  0.0206 -0.0905  0.6102
 9153TIP3    H148950   4.722   1.150   6.616 -0.6316  0.2047  1.1665
 9153TIP3    H248951   4.648   1.048   6.532  1.6178 -0.1823 -0.4525
 9154TIP3   OH248952   3.999   0.048   5.804  0.5564  0.5409  0.2852
 9154TIP3    H148953   4.010   0.046   5.709  1.3226  1.1763  0.3471
 9154TIP3    H248954   4.007   0.141   5.827 -0.4015  0.4936  0.8923
 9155TIP3   OH248955   3.596   2.847   5.566  0.1764 -0.6409 -0.4491
 9155TIP3    H148956   3.671   2.837   5.508  1.0877 -2.5853  0.9562
 9155TIP3    H248957   3.525   2.799   5.522  0.6333 -1.4097 -0.3675
 9156TIP3   OH248958   1.655   6.261   1.282 -0.6956 -0.2580 -0.2406
 9156TIP3    H148959   1.739   6.232   1.319 -1.2653 -2.7339 -0.7359
 9156TIP3    H248960   1.668   6.254   1.187 -1.5393 -0.9948 -0.3140
 9157TIP3   OH248961   4.339   2.626   6.460  0.6041 -0.2325 -0.7367
 9157TIP3    H148962   4.345   2.717   6.488 -0.0749 -0.1463 -0.8577
 9157TIP3    H248963   4.429   2.593   6.466  0.6581  0.0885  0.5005
 9158TIP3   OH248964   5.825   2.747  14.213  0.2453 -0.7151  0.4443
 9158TIP3    H148965   5.869   2.758  14.297  0.2898 -1.4861  0.5232
 9158TIP3    H248966   5.749   2.805  14.218 -0.4056 -1.6341  1.4813
 9159TIP3   OH248967   3.318   3.401   6.061  0.6631 -0.2721 -0.7225
 9159TIP3    H148968   3.265   3.366   6.133 -0.6193  0.0205 -1.4993
 9159TIP3    H248969   3.275   3.484   6.038  0.5426 -0.7621 -2.3715
 9160TIP3   OH248970   1.096   0.188   1.145 -0.2710  0.3463 -0.2016
 9160TIP3    H148971   1.124   0.276   1.119 -0.3044 -0.1822 -2.1880
 9160TIP3    H248972   1.173   0.150   1.188  0.2502  0.8172 -0.7046
 9161TIP3   OH248973   5.541   0.031  17.198  0.0856 -0.0794 -0.7347
 9161TIP3    H148974   5.460   0.013  17.245 -0.1138  0.6755 -0.7695
 9161TIP3    H248975   5.558  -0.049  17.148  0.2757 -0.8721  0.5496
 9162TIP3   OH248976   4.344   3.144  15.136 -0.6368  0.5090  0.5333
 9162TIP3    H148977   4.255   3.112  15.151 -0.9310  0.6044 -0.8670
 9162TIP3    H248978   4.396   3.065  15.120 -0.4328  0.4474  1.4222
 9163TIP3   OH248979   0.711   2.429  12.033 -0.7928 -0.4449 -0.3126
 9163TIP3    H148980   0.632   2.480  12.054 -0.9675 -1.4844  1.8330
 9163TIP3    H248981   0.762   2.487  11.977 -1.5255  1.6669  1.0519
 9164TIP3   OH248982   3.850   3.035  10.775  0.4001 -0.2662  0.4852
 9164TIP3    H148983   3.822   3.094  10.705  2.1048 -0.3747 -0.3588
 9164TIP3    H248984   3.849   3.088  10.854  0.2808  0.4105  0.0379
 9165TIP3   OH248985   6.767   5.562  14.439  0.4498  0.1008 -0.0881
 9165TIP3    H148986   6.830   5.566  14.512 -1.2308 -1.5737  1.5628
 9165TIP3    H248987   6.700   5.627  14.462  0.1373 -0.1264 -0.3573
 9166TIP3   OH248988   0.650   5.108   3.434 -0.1295 -0.0729 -0.6189
 9166TIP3    H148989   0.642   5.201   3.456  1.7815  0.1048 -0.5167
 9166TIP3    H248990   0.641   5.106   3.338  0.9937  0.3876 -0.7457
 9167TIP3   OH248991   5.197   0.517  11.171  0.3382 -0.3227 -0.3395
 9167TIP3    H148992   5.164   0.500  11.082 -0.6197  2.6364 -0.6475
 9167TIP3    H248993   5.291   0.500  11.164  0.2410 -0.4243 -1.8491
 9168TIP3   OH248994   0.819   2.448   6.095 -0.2756  0.2266  0.0196
 9168TIP3    H148995   0.775   2.379   6.144 -0.8412  0.5774  0.0064
 9168TIP3    H248996   0.802   2.427   6.003  1.0796 -0.6295 -0.0593
 9169TIP3   OH248997   5.500   4.415   5.189 -0.0871 -0.5343 -0.1876
 9169TIP3    H148998   5.564   4.348   5.163 -1.9457 -1.7776 -1.8113
 9169TIP3    H248999   5.525   4.438   5.279  1.2521 -2.6453  0.0597
 9170TIP3   OH249000   5.377   2.538  14.731 -0.1400  0.6986 -0.1604
 9170TIP3    H149001   5.422   2.550  14.647 -0.6924  0.8434 -0.4422
 9170TIP3    H249002   5.298   2.489  14.709 -0.5367  1.1676  0.1926
 9171TIP3   OH249003   2.975   5.717  15.480  0.5786 -0.5865 -1.2237
 9171TIP3    H149004   3.069   5.703  15.466  0.8492 -2.6233  1.8059
 9171TIP3    H249005   2.957   5.679  15.565 -3.1579 -0.7540 -1.9130
 9172TIP3   OH249006   2.850   2.481  10.261  0.4221  0.6255 -0.1284
 9172TIP3    H149007   2.774   2.538  10.271  0.4233  0.9193 -1.5215
 9172TIP3    H249008   2.824   2.399  10.303 -0.8915  0.5306 -1.0519
 9173TIP3   OH249009   6.673   1.016  13.508  0.1733  0.5551  0.3829
 9173TIP3    H149010   6.761   1.031  13.473 -0.6594  1.4418 -1.4659
 9173TIP3    H249011   6.632   1.102  13.506 -1.3591 -0.1535 -0.6667
 9174TIP3   OH249012   5.743   3.489   3.476  0.3473  0.0753 -0.2114
 9174TIP3    H149013   5.832   3.452   3.478  0.1721 -0.3314  0.9007
 9174TIP3    H249014   5.721   3.501   3.568  0.3865  2.9857 -0.4761
 9175TIP3   OH249015   0.448   4.486  12.430 -0.0470  0.6050  0.5836
 9175TIP3    H149016   0.509   4.483  12.503  0.4632 -0.4126  0.1309
 9175TIP3    H249017   0.394   4.408  12.441  0.6421 -0.0598 -0.6352
 9176TIP3   OH249018   1.792   3.838  15.478 -0.1614  0.0940  0.2845
 9176TIP3    H149019   1.762   3.929  15.485  1.6371  0.9272 -1.5141
 9176TIP3    H249020   1.775   3.814  15.387  0.2076 -1.0526  0.5026
 9177TIP3   OH249021   5.378   2.479  11.749  0.6513  0.1164 -0.1798
 9177TIP3    H149022   5.328   2.539  11.693  1.9231  0.7450 -0.6619
 9177TIP3    H249023   5.423   2.421  11.688 -0.1384 -1.0272  0.2704
 9178TIP3   OH249024   3.901   2.443  15.359 -0.0768  0.3477 -0.2128
 9178TIP3    H149025   3.865   2.418  15.274  1.0831  0.8337 -0.8629
 9178TIP3    H249026   3.985   2.397  15.364  0.0018  0.5557  0.5531
 9179TIP3   OH249027   4.240   0.607   6.544  0.1853 -0.0992 -0.1472
 9179TIP3    H149028   4.217   0.700   6.539  0.2960 -0.1560 -3.0073
 9179TIP3    H249029   4.335   0.605   6.544  0.1845 -0.2394 -1.1130
 9180TIP3   OH249030   6.625   6.690  15.800 -0.5656 -0.3781  0.0488
 9180TIP3    H149031   6.565   6.760  15.776 -1.0981 -0.5165  0.9305
 9180TIP3    H249032   6.644   6.644  15.718  1.0869  1.7629 -0.8665
 9181TIP3   OH249033   3.583   5.878   2.722  0.7505  0.0612  0.3925
 9181TIP3    H149034   3.598   5.907   2.812  1.4082 -0.5177  0.4793
 9181TIP3    H249035   3.494   5.905   2.702  0.5307  0.0204  1.2904
 9182TIP3   OH249036   0.956   5.706  13.475 -0.1886 -0.0927  0.0149
 9182TIP3    H149037   1.014   5.640  13.514  0.5719 -0.1905 -1.2461
 9182TIP3    H249038   0.958   5.779  13.537  0.7891 -0.3455  0.2953
 9183TIP3   OH249039   6.562   0.976  16.394  0.3259  0.3492  0.2406
 9183TIP3    H149040   6.600   0.974  16.307  2.2247  2.5190  0.9186
 9183TIP3    H249041   6.617   0.917  16.446 -0.0567 -0.0016  0.2560
 9184TIP3   OH249042   2.375   0.683   2.145 -0.4538 -0.4321  0.0416
 9184TIP3    H149043   2.448   0.685   2.207 -0.5994 -0.0528  0.2073
 9184TIP3    H249044   2.389   0.605   2.093 -0.4362 -0.8717  0.6958
 9185TIP3   OH249045   5.584   5.468  13.257  0.1216  0.7707 -0.2205
 9185TIP3    H149046   5.504   5.515  13.282 -0.1842  0.8120 -1.2305
 9185TIP3    H249047   5.613   5.512  13.177 -0.7347 -1.3659 -1.7915
 9186TIP3   OH249048   5.620   3.807  13.088  0.1750 -0.0913  0.0225
 9186TIP3    H149049   5.642   3.726  13.044  0.3272 -0.9358  1.5764
 9186TIP3    H249050   5.704   3.840  13.121 -0.0556 -0.0325  0.5715
 9187TIP3   OH249051   0.834   4.163  17.126 -0.1721 -0.3127  0.0424
 9187TIP3    H149052   0.829   4.129  17.036  0.6430  1.5639 -0.7667
 9187TIP3    H249053   0.862   4.254  17.115 -1.4307  0.3855  2.1374
 9188TIP3   OH249054   3.122   4.784  13.602 -0.2085  0.3731  0.1694
 9188TIP3    H149055   3.131   4.689  13.616 -2.2144  0.2216  0.6980
 9188TIP3    H249056   3.128   4.794  13.507 -0.3164 -0.3388  0.0799
 9189TIP3   OH249057   4.260   1.746   5.525 -0.2141  0.7215  0.1913
 9189TIP3    H149058   4.291   1.781   5.608  0.2937 -1.8762  1.2172
 9189TIP3    H249059   4.250   1.652   5.541 -1.1529  0.2858 -2.3896
 9190TIP3   OH249060   0.148   1.764  14.220  0.3752  0.5286  0.2712
 9190TIP3    H149061   0.118   1.689  14.271  0.8672 -0.4520 -0.8314
 9190TIP3    H249062   0.241   1.750  14.208  0.2509  0.6552 -0.9932
 9191TIP3   OH249063   5.532   0.816   2.548  0.0089  0.7357 -0.0000
 9191TIP3    H149064   5.533   0.866   2.467  1.1602 -0.9062 -1.0761
 9191TIP3    H249065   5.459   0.755   2.539 -0.1003  0.8045  0.3798
 9192TIP3   OH249066   5.994   0.615   1.698 -0.0073  0.0715  0.0009
 9192TIP3    H149067   5.964   0.698   1.734 -0.2954  0.7536 -1.7327
 9192TIP3    H249068   6.060   0.639   1.633  0.5031 -1.1151  0.0560
 9193TIP3   OH249069   4.222   0.774  10.240  0.6962 -0.4314  0.1954
 9193TIP3    H149070   4.312   0.777  10.272  1.6940 -1.9982 -2.2254
 9193TIP3    H249071   4.199   0.681  10.243 -0.4878 -0.1628 -0.1608
 9194TIP3   OH249072   4.627   5.569   1.135  0.3736  0.0595 -0.0024
 9194TIP3    H149073   4.692   5.577   1.204  0.6418  0.4470 -0.2979
 9194TIP3    H249074   4.673   5.527   1.063  0.0668 -0.4381  0.0879
 9195TIP3   OH249075   5.183   4.565  15.937 -0.6172  0.7201 -0.1844
 9195TIP3    H149076   5.232   4.647  15.935  1.4150 -0.4083 -0.5527
 9195TIP3    H249077   5.244   4.501  15.899 -1.4247 -1.3078  1.7413
 9196TIP3   OH249078   6.674   0.601  14.653 -0.6229 -0.7558  0.0653
 9196TIP3    H149079   6.728   0.618  14.730 -1.7904 -0.0350  0.7542
 9196TIP3    H249080   6.607   0.669  14.655 -1.3469 -1.4092 -0.9667
 9197TIP3   OH249081   4.067   0.012   5.078 -0.3430 -0.1856  0.2110
 9197TIP3    H149082   4.098  -0.022   5.162  1.1364  1.3257  0.3290
 9197TIP3    H249083   3.989  -0.041   5.058 -0.0048 -1.4117  1.9025
 9198TIP3   OH249084   5.985   6.331  12.807  0.0368 -0.3518  0.5192
 9198TIP3    H149085   6.034   6.316  12.726  0.1375  1.4120  0.2249
 9198TIP3    H249086   5.902   6.287  12.792  0.4112 -0.8624 -0.1591
 9199TIP3   OH249087   5.040   4.202  15.687 -0.2650 -0.2579  0.4408
 9199TIP3    H149088   4.954   4.161  15.682 -0.4394  0.2211 -1.5156
 9199TIP3    H249089   5.094   4.152  15.626  0.7474 -0.3047  1.3495
 9200TIP3   OH249090   4.166   4.396   3.456 -0.0247  0.8106 -0.0369
 9200TIP3    H149091   4.071   4.390   3.468 -0.1964  0.6612 -1.3069
 9200TIP3    H249092   4.199   4.313   3.490 -0.4931  0.3379 -0.6982
 9201TIP3   OH249093   6.211   1.231  15.389  0.1061 -0.0609 -0.1300
 9201TIP3    H149094   6.139   1.290  15.411 -0.6396 -0.7515 -0.6614
 9201TIP3    H249095   6.216   1.233  15.294  0.3504 -0.5257 -0.1315
 9202TIP3   OH249096   4.088   4.508  13.378 -0.1497  0.6334 -0.5403
 9202TIP3    H149097   4.174   4.504  13.336 -0.6188  1.2012 -1.5842
 9202TIP3    H249098   4.027   4.524  13.306 -1.0190  1.2641  0.3199
 9203TIP3   OH249099   1.430   2.341   4.471 -0.0638 -0.1923  0.3005
 9203TIP3    H149100   1.460   2.258   4.432 -0.1278  0.3193 -0.8813
 9203TIP3    H249101   1.487   2.407   4.432 -0.2140  0.3602  1.0100
 9204TIP3   OH249102   2.112   1.764  14.605 -0.2451  0.1486  0.1382
 9204TIP3    H149103   2.158   1.843  14.576 -0.9141  0.3870 -0.3109
 9204TIP3    H249104   2.041   1.753  14.541  0.4195 -1.3808 -0.3654
 9205TIP3   OH249105   5.439   2.554   0.542 -0.1122  0.5591 -0.7493
 9205TIP3    H149106   5.356   2.581   0.582 -0.3516  0.5609 -1.2411
 9205TIP3    H249107   5.483   2.636   0.520 -0.0392  0.5573 -0.6115
 9206TIP3   OH249108   3.558   3.571   6.345 -0.3068  0.3258  0.2111
 9206TIP3    H149109   3.627   3.628   6.310  0.4562 -0.3448  0.5953
 9206TIP3    H249110   3.489   3.631   6.371 -0.9525  0.9046 -2.4492
 9207TIP3   OH249111   1.238   2.237   3.776 -0.1811 -0.5671 -0.1303
 9207TIP3    H149112   1.237   2.219   3.682 -2.0915 -2.6297  0.2045
 9207TIP3    H249113   1.174   2.307   3.788 -0.0990 -0.4572 -0.3236
 9208TIP3   OH249114   6.057   3.572  12.538  0.0069  0.1170 -0.1543
 9208TIP3    H149115   6.130   3.547  12.594  0.1001 -0.8678 -0.6936
 9208TIP3    H249116   6.096   3.586  12.451 -0.2968  0.5525 -0.2249
 9209TIP3   OH249117   3.394   6.112  11.414  0.8408 -0.3162  0.3501
 9209TIP3    H149118   3.392   6.067  11.498  2.4311 -0.3051  0.4171
 9209TIP3    H249119   3.477   6.159  11.413  0.7675 -0.1543 -1.1439
 9210TIP3   OH249120   3.705   5.202   3.232  0.8366 -0.4795  0.6223
 9210TIP3    H149121   3.714   5.230   3.141 -0.7548 -1.7626  0.0263
 9210TIP3    H249122   3.714   5.282   3.283  1.6219  0.2812 -0.6565
 9211TIP3   OH249123   6.406   3.094   0.530 -0.3660 -0.1670 -0.3635
 9211TIP3    H149124   6.363   3.098   0.444  0.1100 -0.2381 -0.6116
 9211TIP3    H249125   6.446   3.181   0.540 -0.8225  0.0024  0.0013
 9212TIP3   OH249126   4.627   6.610   2.427 -0.7123  0.2980  0.3920
 9212TIP3    H149127   4.571   6.535   2.410 -0.1014 -0.0708 -0.0401
 9212TIP3    H249128   4.618   6.626   2.521  0.4962 -1.4426  0.8426
 9213TIP3   OH249129   5.805   2.614   4.985 -0.1525  0.3057 -0.0180
 9213TIP3    H149130   5.716   2.584   5.004  0.3888 -1.0570  0.4690
 9213TIP3    H249131   5.855   2.591   5.063  1.2952 -1.9428 -1.4901
 9214TIP3   OH249132   1.087   4.443   3.664 -0.4798  0.6792  0.1017
 9214TIP3    H149133   1.140   4.506   3.616 -0.6218  0.3321 -0.5165
 9214TIP3    H249134   1.120   4.447   3.754  1.4599 -0.4513 -0.5050
 9215TIP3   OH249135   4.068   0.356  13.672 -0.1916  0.0993  0.2951
 9215TIP3    H149136   4.034   0.402  13.748 -0.2154  0.4853  0.0523
 9215TIP3    H249137   4.046   0.412  13.597  1.2956  0.5672  0.1598
 9216TIP3   OH249138   4.112   2.118   2.919  0.2523 -0.1041  0.2053
 9216TIP3    H149139   4.077   2.039   2.959 -5.6714  1.3072 -1.1912
 9216TIP3    H249140   4.115   2.182   2.990 -2.5530  0.2985  0.0648
 9217TIP3   OH249141   2.589   4.170  12.221  0.3816  0.0266  0.0033
 9217TIP3    H149142   2.606   4.102  12.285 -0.2160 -0.8124 -0.7103
 9217TIP3    H249143   2.498   4.156  12.194  0.0703  1.4193  0.2019
 9218TIP3   OH249144   6.342   0.939  16.934  0.0005  0.5625  0.4137
 9218TIP3    H149145   6.332   1.034  16.937  0.3854  0.5783  1.5054
 9218TIP3    H249146   6.257   0.906  16.964  0.7599  0.6298  2.9199
 9219TIP3   OH249147   0.504   1.211  15.758  1.0166 -0.7732  0.8387
 9219TIP3    H149148   0.566   1.167  15.700  1.5810 -0.2322  1.0286
 9219TIP3    H249149   0.476   1.142  15.818  2.3908 -0.7540  1.5440
 9220TIP3   OH249150   5.644   4.677   2.274 -0.0575  0.4806 -0.4349
 9220TIP3    H149151   5.646   4.755   2.330 -1.7287  0.8093 -0.7876
 9220TIP3    H249152   5.572   4.625   2.308  0.4295 -0.4645 -0.8193
 9221TIP3   OH249153   4.889   6.260   5.557 -0.0763 -0.0458  0.1929
 9221TIP3    H149154   4.822   6.192   5.563  1.0410 -1.1166  1.3023
 9221TIP3    H249155   4.845   6.340   5.585 -0.8616 -0.7551  1.0619
 9222TIP3   OH249156   6.172   1.710   2.441 -0.4261  0.3295 -0.6608
 9222TIP3    H149157   6.251   1.658   2.454 -1.1680 -1.0128 -1.2409
 9222TIP3    H249158   6.194   1.797   2.474  0.3624 -0.7295  1.8689
 9223TIP3   OH249159   1.486   5.059   5.424 -0.6463  0.0781 -0.8053
 9223TIP3    H149160   1.462   5.105   5.504  2.9902  0.9008 -0.0116
 9223TIP3    H249161   1.495   4.967   5.451 -0.5272  0.1718 -0.5212
 9224TIP3   OH249162   0.495   6.346  16.766  0.5927  0.4099  0.2000
 9224TIP3    H149163   0.504   6.305  16.852 -1.9534 -1.8719 -0.4816
 9224TIP3    H249164   0.509   6.275  16.704 -1.0005  1.1837 -1.1373
 9225TIP3   OH249165   5.813   3.065  11.549  0.1757 -0.3750  0.3458
 9225TIP3    H149166   5.828   3.083  11.456 -2.6771  1.7685  0.1609
 9225TIP3    H249167   5.781   2.975  11.552 -1.2576  0.0681 -0.9864
 9226TIP3   OH249168   4.101   3.219   2.697 -0.7833  0.2235  0.4467
 9226TIP3    H149169   4.017   3.176   2.680 -1.0129  1.2345 -1.2052
 9226TIP3    H249170   4.155   3.195   2.622  0.4174 -0.4105  1.4957
 9227TIP3   OH249171   3.957   0.297   4.696 -0.0142  0.5377  0.0238
 9227TIP3    H149172   3.976   0.297   4.790 -0.5744 -3.6971  0.3325
 9227TIP3    H249173   3.862   0.289   4.691 -0.0579  1.5001 -0.9697
 9228TIP3   OH249174   1.547   3.570  12.448  0.4975  0.0227 -0.2185
 9228TIP3    H149175   1.604   3.610  12.514  0.3826  3.1670 -1.8440
 9228TIP3    H249176   1.461   3.609  12.463  0.2971  0.2387 -1.7357
 9229TIP3   OH249177   4.382   3.949  15.788 -0.4144 -0.3746 -0.2503
 9229TIP3    H149178   4.301   3.977  15.747  0.5752  0.3003 -1.8216
 9229TIP3    H249179   4.439   4.025  15.784  0.1060 -0.6279  1.4361
 9230TIP3   OH249180   2.654   5.649  16.387  0.6499 -0.4282 -0.0225
 9230TIP3    H149181   2.607   5.566  16.386  0.2154 -0.2006  0.6216
 9230TIP3    H249182   2.719   5.641  16.317  0.9538 -1.5050  0.3701
 9231TIP3   OH249183   0.713   6.751   2.854  0.4661 -0.5645 -0.0656
 9231TIP3    H149184   0.757   6.666   2.867  0.0324 -0.6515  0.8865
 9231TIP3    H249185   0.620   6.731   2.866  0.3374 -0.0147 -0.1636
 9232TIP3   OH249186   5.885   1.092  11.664 -0.1025  0.2281  0.0619
 9232TIP3    H149187   5.867   1.088  11.570 -3.0463  0.0162  0.5355
 9232TIP3    H249188   5.977   1.116  11.669  0.0588  0.7026 -2.8642
 9233TIP3   OH249189   2.259   1.340  16.157 -0.3949  0.1868 -0.5746
 9233TIP3    H149190   2.312   1.336  16.077  3.0712 -1.7702  1.5751
 9233TIP3    H249191   2.199   1.266  16.149 -0.2394  0.1366 -1.4230
 9234TIP3   OH249192   6.818   0.826   5.864 -0.5148  0.7193 -0.4146
 9234TIP3    H149193   6.743   0.770   5.844  0.1642 -0.6961  0.8328
 9234TIP3    H249194   6.867   0.778   5.931  2.1695  0.9781 -2.0370
 9235TIP3   OH249195   4.177   0.913   4.051 -0.2888  0.0896 -0.7037
 9235TIP3    H149196   4.102   0.854   4.041  1.8519 -2.8127 -0.9607
 9235TIP3    H249197   4.205   0.900   4.141  0.7193  0.0725 -1.0128
 9236TIP3   OH249198   6.713   6.326   2.861 -0.1359  0.2379 -0.0989
 9236TIP3    H149199   6.643   6.385   2.835 -0.5020 -0.3726 -0.5304
 9236TIP3    H249200   6.669   6.256   2.910  0.1242 -0.3053 -0.6251
 9237TIP3   OH249201   0.550   1.255   3.066  0.1397  0.3988 -0.2329
 9237TIP3    H149202   0.498   1.178   3.087  2.4628 -1.1010  0.4801
 9237TIP3    H249203   0.612   1.224   3.000  0.9804  1.7076 -0.0938
 9238TIP3   OH249204   1.369   2.691  16.074  0.2091  0.2418 -0.1959
 9238TIP3    H149205   1.318   2.725  16.001  2.1019  1.7330 -0.9167
 9238TIP3    H249206   1.417   2.767  16.107  0.1122 -0.5992  2.0187
 9239TIP3   OH249207   1.087   4.323   4.961 -0.1281 -0.2140 -0.1219
 9239TIP3    H149208   1.066   4.266   4.887  0.0427  1.7890 -1.8047
 9239TIP3    H249209   1.006   4.371   4.978 -0.1319 -0.5806  0.9461
 9240TIP3   OH249210   0.402   0.643   4.949  0.4224 -0.1022 -0.0993
 9240TIP3    H149211   0.477   0.661   5.005  0.3210  0.7670 -0.2214
 9240TIP3    H249212   0.350   0.724   4.952  0.9779  0.4005 -2.3249
 9241TIP3   OH249213   6.804   2.990  16.057 -0.5817  0.2085 -0.0269
 9241TIP3    H149214   6.817   2.896  16.069  0.9569  0.3272 -0.5702
 9241TIP3    H249215   6.722   3.009  16.102  0.1308 -1.0150  1.8764
 9242TIP3   OH249216   0.750   1.019   6.559  0.0193 -0.5034  0.0146
 9242TIP3    H149217   0.822   1.054   6.507  0.0013  0.4333  0.5959
 9242TIP3    H249218   0.789   1.000   6.644 -0.4521  0.1517  0.3783
 9243TIP3   OH249219   6.619   5.844   0.430 -0.0953  0.2102  0.2004
 9243TIP3    H149220   6.621   5.748   0.428  2.3727  0.1986 -0.1644
 9243TIP3    H249221   6.612   5.865   0.523  0.8268 -0.3689  0.4203
 9244TIP3   OH249222   5.764   6.182  12.715  0.2583  0.1189 -0.4851
 9244TIP3    H149223   5.693   6.216  12.661  2.0555  1.8682 -1.9168
 9244TIP3    H249224   5.793   6.103  12.670 -0.8290 -0.7127  0.2102
 9245TIP3   OH249225   6.343   5.015   5.847  0.0432 -0.5311 -0.0449
 9245TIP3    H149226   6.290   4.935   5.843 -0.2690 -0.3472  0.3733
 9245TIP3    H249227   6.289   5.077   5.895  0.5143 -0.2409  0.1167
 9246TIP3   OH249228   6.327   3.985  13.682  1.1154 -0.5598  0.2162
 9246TIP3    H149229   6.305   4.067  13.727  1.2216 -0.6236  0.3857
 9246TIP3    H249230   6.335   3.921  13.752  3.4037 -0.2188  0.3592
 9247TIP3   OH249231   2.262   4.911  12.180 -0.1375  0.3549  0.2384
 9247TIP3    H149232   2.336   4.855  12.159 -0.9021 -0.5802 -0.0092
 9247TIP3    H249233   2.299   4.999  12.184  0.7778  0.0468 -0.9898
 9248TIP3   OH249234   6.135   5.560   3.076 -0.0636 -0.0720 -0.0720
 9248TIP3    H149235   6.190   5.597   3.145 -1.3136  0.9769  0.4183
 9248TIP3    H249236   6.192   5.500   3.028  0.9396 -0.5477  1.6440
 9249TIP3   OH249237   4.203   6.341   2.215 -0.2611  0.7539  0.1889
 9249TIP3    H149238   4.138   6.407   2.192  0.3601  1.1772 -0.3710
 9249TIP3    H249239   4.165   6.296   2.291  0.1322  2.9876  1.8007
 9250TIP3   OH249240   2.661   0.726  12.959  0.3110  0.2765 -0.1093
 9250TIP3    H149241   2.606   0.675  13.018 -0.5655  0.0467 -1.0930
 9250TIP3    H249242   2.748   0.722  12.998  0.4047 -2.4265 -0.3980
 9251TIP3   OH249243   6.587   0.743   4.193 -0.6649 -0.3529  0.0022
 9251TIP3    H149244   6.619   0.800   4.123  1.7479 -2.0324 -0.3839
 9251TIP3    H249245   6.530   0.681   4.149  0.9131 -1.4573 -0.5561
 9252TIP3   OH249246   4.223   2.445  11.453 -0.0342 -0.8973  0.2827
 9252TIP3    H149247   4.176   2.458  11.371  0.9253 -1.7183 -0.4114
 9252TIP3    H249248   4.315   2.437  11.428 -0.0093 -4.7925  0.9975
 9253TIP3   OH249249   4.592   3.637   3.633 -0.1448 -0.1275 -0.0386
 9253TIP3    H149250   4.667   3.584   3.608 -0.3288 -0.3633 -0.1001
 9253TIP3    H249251   4.519   3.601   3.582  0.1410  1.5738 -1.7579
 9254TIP3   OH249252   6.449   2.532   5.949  0.1822 -0.4009 -0.0114
 9254TIP3    H149253   6.454   2.437   5.958 -1.2717 -0.4042  1.0477
 9254TIP3    H249254   6.356   2.551   5.942  0.2460  1.0988  2.1720
 9255TIP3   OH249255   5.157   6.606  16.446 -0.1733 -0.3406 -0.0961
 9255TIP3    H149256   5.218   6.631  16.515 -0.5542  1.9002 -0.4792
 9255TIP3    H249257   5.084   6.563  16.491  0.4395 -0.5798  0.6700
 9256TIP3   OH249258   5.746   5.469   0.650 -0.4321  0.1900 -0.6823
 9256TIP3    H149259   5.777   5.541   0.705 -0.3291  1.0300 -1.8013
 9256TIP3    H249260   5.742   5.393   0.709  0.9776  0.7396  0.1676
 9257TIP3   OH249261   1.902   5.671  16.543 -0.4070 -0.6552  0.4814
 9257TIP3    H149262   1.914   5.612  16.469 -0.8030  0.3662 -0.4138
 9257TIP3    H249263   1.847   5.742  16.509  2.2518  1.6803  0.7406
 9258TIP3   OH249264   3.217   3.386  16.402 -0.2851 -0.3961  0.2828
 9258TIP3    H149265   3.253   3.395  16.490  0.4972 -2.1584  0.1818
 9258TIP3    H249266   3.139   3.443  16.402 -0.4728 -0.5845  2.2002
 9259TIP3   OH249267   2.600   4.052   3.079 -0.0671 -0.0288 -0.4645
 9259TIP3    H149268   2.647   3.970   3.097 -1.0327 -0.0960  2.2987
 9259TIP3    H249269   2.586   4.090   3.165 -0.3489  2.7080 -1.6277
 9260TIP3   OH249270   0.790   2.798  14.188  0.4077 -0.4407  0.0992
 9260TIP3    H149271   0.765   2.706  14.178  0.4813 -0.4787  0.2690
 9260TIP3    H249272   0.852   2.798  14.261 -0.9837  0.0002  1.3318
 9261TIP3   OH249273   5.062   2.232   5.923  0.2104 -0.2351  0.1660
 9261TIP3    H149274   5.110   2.265   5.847  0.6133 -0.7894  0.1700
 9261TIP3    H249275   5.108   2.151   5.946 -1.3767 -1.3906 -0.5102
 9262TIP3   OH249276   2.288   4.261  16.793  0.8531  0.5875  0.4379
 9262TIP3    H149277   2.341   4.195  16.839  0.7599  0.3012  0.1413
 9262TIP3    H249278   2.339   4.342  16.800  1.6323  0.1858 -0.3625
 9263TIP3   OH249279   0.894   6.743   4.677  0.0146 -0.6319  0.3810
 9263TIP3    H149280   0.814   6.701   4.645  0.6310 -1.0836 -0.6487
 9263TIP3    H249281   0.875   6.836   4.675 -0.6628 -0.7577  0.6575
 9264TIP3   OH249282   4.388   3.389   5.923  0.3328 -0.0202 -0.7519
 9264TIP3    H149283   4.411   3.482   5.920 -1.5936  0.6539  1.7031
 9264TIP3    H249284   4.315   3.385   5.985  0.4806 -3.2100 -0.6425
 9265TIP3   OH249285   6.467   0.582  12.166 -0.2606 -0.9485 -0.4100
 9265TIP3    H149286   6.551   0.620  12.140 -1.6041  2.0742 -0.8234
 9265TIP3    H249287   6.465   0.592  12.261  0.9683 -3.7603 -0.0021
 9266TIP3   OH249288   5.468   2.328  11.197  0.7971 -0.2159 -0.1498
 9266TIP3    H149289   5.401   2.268  11.164 -0.7505  0.2851  1.9132
 9266TIP3    H249290   5.551   2.289  11.167 -0.1984 -2.6959  0.0542
 9267TIP3   OH249291   5.117   3.854  16.932 -0.4334 -0.0716  0.6128
 9267TIP3    H149292   5.208   3.879  16.918 -0.9182  0.3599 -2.4016
 9267TIP3    H249293   5.079   3.926  16.982  0.8678 -0.3426  2.0535
 9268TIP3   OH249294   3.885   6.449  14.872  0.2317 -0.2017 -0.9444
 9268TIP3    H149295   3.939   6.445  14.951  1.4504 -1.1802 -1.7903
 9268TIP3    H249296   3.815   6.510  14.895 -0.0123 -1.1709  1.2295
 9269TIP3   OH249297   0.675   0.625  12.056 -0.0445 -0.2447  0.0301
 9269TIP3    H149298   0.668   0.685  12.131 -0.1209 -0.9126  0.5640
 9269TIP3    H249299   0.769   0.621  12.038  0.0904 -0.9531  0.8214
 9270TIP3   OH249300   1.083   2.791  15.937 -0.4179  0.0138 -0.9415
 9270TIP3    H149301   1.093   2.790  15.842  0.4797  0.7883 -0.8667
 9270TIP3    H249302   0.999   2.746  15.952 -0.0789 -1.0423 -2.0146
 9271TIP3   OH249303   0.464   1.760  13.758  0.5427  0.0142  0.4088
 9271TIP3    H149304   0.524   1.821  13.715  1.1261  0.8393  2.2940
 9271TIP3    H249305   0.520   1.708  13.816 -0.1210 -1.5381 -0.2826
 9272TIP3   OH249306   3.180   0.306   0.274 -0.1414 -0.9563  0.4482
 9272TIP3    H149307   3.113   0.340   0.333 -0.5869 -0.2759 -0.4308
 9272TIP3    H249308   3.259   0.300   0.328 -0.7094 -1.0283  1.2860
 9273TIP3   OH249309   4.600   2.719  16.204 -0.6127  0.0298 -0.1398
 9273TIP3    H149310   4.538   2.650  16.181 -0.2488  0.3952 -2.3987
 9273TIP3    H249311   4.571   2.795  16.154  1.2071  0.4291 -0.6543
 9274TIP3   OH249312   1.495   4.017   1.437 -0.1946  0.0331 -0.2412
 9274TIP3    H149313   1.402   4.033   1.420  0.0053 -0.2767 -1.8317
 9274TIP3    H249314   1.535   4.104   1.434 -0.1934  0.0122 -1.3752
 9275TIP3   OH249315   2.175   2.200  16.243  0.0732  0.2425  0.2460
 9275TIP3    H149316   2.254   2.246  16.214 -1.2214  1.2533 -1.9701
 9275TIP3    H249317   2.108   2.228  16.180 -2.0270 -0.6387  2.0051
 9276TIP3   OH249318   0.834   5.068   0.225 -0.0515  0.2556 -0.8032
 9276TIP3    H149319   0.797   5.098   0.142 -0.4172  0.2400 -0.6447
 9276TIP3    H249320   0.800   5.128   0.291 -1.6258 -1.0727 -0.3343
 9277TIP3   OH249321   5.599   3.433   6.803  0.1559  0.1345 -0.2776
 9277TIP3    H149322   5.675   3.486   6.783  0.1790  0.2905  0.2058
 9277TIP3    H249323   5.630   3.342   6.796  0.3647  0.1976 -0.1574
 9278TIP3   OH249324   5.588   2.127  11.820 -0.7280 -0.1329  0.0421
 9278TIP3    H149325   5.608   2.207  11.869 -2.7853  0.9507 -0.7452
 9278TIP3    H249326   5.495   2.111  11.838 -0.0933 -3.1936  1.2838
 9279TIP3   OH249327   6.515   5.883  11.961  0.5688  0.1362  0.1048
 9279TIP3    H149328   6.610   5.874  11.964  0.3943 -2.1407  0.3833
 9279TIP3    H249329   6.482   5.809  12.012 -1.3729  0.9357  0.1036
 9280TIP3   OH249330   5.497   2.539  13.595  0.0943 -0.5269  0.3512
 9280TIP3    H149331   5.521   2.454  13.559 -0.8999 -0.5144 -0.3663
 9280TIP3    H249332   5.558   2.601  13.556 -0.5438 -0.6111 -0.8370
 9281TIP3   OH249333   2.158   1.481  14.378  0.3519 -0.5335  0.1843
 9281TIP3    H149334   2.226   1.477  14.312  0.0121 -0.3078 -0.1820
 9281TIP3    H249335   2.199   1.448  14.457  1.1834  0.5608  0.2264
 9282TIP3   OH249336   5.656   0.119  14.942  0.6309  0.4063 -0.2850
 9282TIP3    H149337   5.573   0.098  14.984  2.4012 -1.4676  2.5866
 9282TIP3    H249338   5.659   0.215  14.941 -1.5935  0.5316 -0.6823
 9283TIP3   OH249339   5.248   2.640   2.803 -0.5066  0.3451  0.4253
 9283TIP3    H149340   5.253   2.680   2.716 -1.3902 -1.0102 -0.2886
 9283TIP3    H249341   5.194   2.562   2.790 -0.3161 -0.1030  2.1204
 9284TIP3   OH249342   1.065   0.118  15.848 -0.2214 -0.1779  0.5777
 9284TIP3    H149343   1.040   0.209  15.866 -0.7373 -0.4154  1.0793
 9284TIP3    H249344   1.152   0.125  15.809 -0.8309  0.6189 -0.6812
 9285TIP3   OH249345   2.169   2.855  11.568 -0.1006  0.3203 -0.2300
 9285TIP3    H149346   2.170   2.947  11.541 -0.3497  0.6523  0.8675
 9285TIP3    H249347   2.228   2.812  11.505 -0.4628  1.1041 -1.1382
 9286TIP3   OH249348   3.882   0.239  13.104  0.3424 -0.3360 -0.6007
 9286TIP3    H149349   3.920   0.156  13.076  0.9760 -0.6044  0.9349
 9286TIP3    H249350   3.806   0.214  13.156 -0.0166  0.0918 -0.9106
 9287TIP3   OH249351   4.719   1.892  15.628 -0.1554  0.4150 -0.3893
 9287TIP3    H149352   4.783   1.906  15.699 -0.1283  0.6434 -0.4574
 9287TIP3    H249353   4.664   1.970  15.630 -1.3927 -0.4338  0.6547
 9288TIP3   OH249354   5.705   6.407   0.262 -0.0951 -0.7216  0.2758
 9288TIP3    H149355   5.792   6.384   0.229  0.2480  0.1442  0.5546
 9288TIP3    H249356   5.687   6.342   0.330 -0.7884 -2.5093 -1.4905
 9289TIP3   OH249357   0.968   0.876   4.690 -0.4785 -0.3780  0.3081
 9289TIP3    H149358   0.873   0.873   4.695 -0.4959 -0.4776 -0.0910
 9289TIP3    H249359   0.995   0.918   4.772 -1.0217  2.3202 -0.8079
 9290TIP3   OH249360   0.310   0.336   6.042  0.0671  0.0308 -0.2973
 9290TIP3    H149361   0.295   0.344   6.136  3.3799 -2.7732  0.6847
 9290TIP3    H249362   0.240   0.278   6.011 -1.1264  1.0812  0.3508
 9291TIP3   OH249363   5.679   4.417  10.410 -0.0312 -0.1593 -0.2010
 9291TIP3    H149364   5.585   4.403  10.423  0.1373 -1.7261 -0.4293
 9291TIP3    H249365   5.714   4.431  10.498 -0.5767  1.2603 -0.1908
 9292TIP3   OH249366   5.700   2.683   0.769 -0.3794  0.3771  0.7477
 9292TIP3    H149367   5.643   2.758   0.785 -0.9581 -0.4012  2.6438
 9292TIP3    H249368   5.751   2.673   0.849 -0.8840 -1.6851  0.8759
 9293TIP3   OH249369   4.912   2.196  13.453 -0.1651  0.5124  0.1412
 9293TIP3    H149370   4.931   2.129  13.518  1.8829  0.4147 -0.5042
 9293TIP3    H249371   4.874   2.268  13.503  0.3486  0.0218  1.2733
 9294TIP3   OH249372   5.441   4.652  16.764 -0.2913  0.2914 -0.1004
 9294TIP3    H149373   5.459   4.654  16.670  1.6677 -1.0292  0.1923
 9294TIP3    H249374   5.410   4.740  16.784 -0.5354  0.6670 -1.9300
 9295TIP3   OH249375   0.787   4.059  13.256 -0.1028  0.2582  0.3133
 9295TIP3    H149376   0.739   4.124  13.308  0.9014 -0.7029  2.6189
 9295TIP3    H249377   0.878   4.067  13.285  0.4091 -0.7171 -0.9360
 9296TIP3   OH249378   0.981   6.379   5.954  0.6825 -0.1217  0.2136
 9296TIP3    H149379   0.994   6.463   5.911 -0.3713  0.3558  0.7910
 9296TIP3    H249380   1.063   6.363   6.000  0.6159  0.9966  0.7625
 9297TIP3   OH249381   0.697   5.637   6.366 -0.2341  0.0791 -0.0005
 9297TIP3    H149382   0.701   5.556   6.417 -0.6182  0.2136  0.2486
 9297TIP3    H249383   0.608   5.670   6.380 -0.1319  0.4577 -0.2303
 9298TIP3   OH249384   2.450   0.296  13.517  0.3851  0.3829 -0.1372
 9298TIP3    H149385   2.357   0.273  13.527  0.6304 -0.2897  0.7974
 9298TIP3    H249386   2.479   0.313  13.607  1.0845  0.9416 -0.4639
 9299TIP3   OH249387   3.977   2.440   4.146  0.5343  0.0543  0.3169
 9299TIP3    H149388   4.028   2.426   4.227  1.1948 -1.2745 -0.2997
 9299TIP3    H249389   3.906   2.377   4.151  0.5140  0.0435 -0.0853
 9300TIP3   OH249390   3.572   6.465   3.482 -0.4145  0.5372  0.4053
 9300TIP3    H149391   3.632   6.535   3.454  2.7990 -2.7414 -1.8850
 9300TIP3    H249392   3.500   6.469   3.419  0.3383  1.0549 -0.4552
 9301TIP3   OH249393   0.038   0.748  12.419 -0.1355  0.0029 -0.2848
 9301TIP3    H149394  -0.036   0.808  12.415  1.2540  1.7829 -0.6156
 9301TIP3    H249395   0.047   0.716  12.330 -0.2713  0.0908 -0.3319
 9302TIP3   OH249396   4.542   4.392  16.515 -0.7734  0.3346 -0.7128
 9302TIP3    H149397   4.483   4.318  16.526  0.6628 -0.5555  2.0330
 9302TIP3    H249398   4.488   4.469  16.530 -1.6097 -0.3573 -0.1001
 9303TIP3   OH249399   5.605   1.606  11.547  0.3261  0.2994 -0.3906
 9303TIP3    H149400   5.558   1.583  11.627 -0.4793  2.1217 -0.2905
 9303TIP3    H249401   5.682   1.549  11.548  0.4415  0.3849  1.7853
 9304TIP3   OH249402   3.577   1.694  11.693  0.3456 -0.5469 -0.1160
 9304TIP3    H149403   3.528   1.618  11.661  2.6216 -1.4037 -1.7910
 9304TIP3    H249404   3.509   1.757  11.718 -1.6028 -2.3487 -0.5490
 9305TIP3   OH249405   4.463   6.822  10.951  0.0452  0.3949  0.3459
 9305TIP3    H149406   4.371   6.793  10.955  0.0347  0.4088  0.2183
 9305TIP3    H249407   4.464   6.888  10.881  0.1563  0.3787  0.3320
 9306TIP3   OH249408   6.558   1.396   5.478  0.0397  0.0678  0.1897
 9306TIP3    H149409   6.578   1.360   5.565  0.1785  0.5303  0.3544
 9306TIP3    H249410   6.603   1.338   5.417  0.0402 -0.1903  0.4320
 9307TIP3   OH249411   3.192   4.284   3.043 -0.0597  0.3850 -0.0838
 9307TIP3    H149412   3.149   4.369   3.052  1.2966  0.9269  2.1971
 9307TIP3    H249413   3.286   4.304   3.050  0.3007 -1.2587  0.3393
 9308TIP3   OH249414   2.887   3.196  12.966  0.0630  0.6254  0.5977
 9308TIP3    H149415   2.922   3.113  12.932  0.1955  0.8531  0.1784
 9308TIP3    H249416   2.852   3.241  12.890  2.1169  2.0099  0.3960
 9309TIP3   OH249417   0.139   3.051  13.031 -0.1049 -0.1098  0.0761
 9309TIP3    H149418   0.117   3.138  13.064  0.9599 -0.1231  0.8701
 9309TIP3    H249419   0.174   3.067  12.943 -0.8870  0.1484 -0.1982
 9310TIP3   OH249420   2.912   1.392  15.244 -0.4682 -0.3689  0.0897
 9310TIP3    H149421   2.986   1.413  15.302 -1.2957  0.6886  0.7924
 9310TIP3    H249422   2.954   1.366  15.161  0.6995  1.0447  0.1846
 9311TIP3   OH249423   0.065   3.299  14.386  0.3073  0.2024  0.4711
 9311TIP3    H149424   0.024   3.220  14.350  1.4489 -0.2030  0.0054
 9311TIP3    H249425   0.020   3.313  14.469 -1.2290  0.1787 -0.3240
 9312TIP3   OH249426   4.154   6.317  16.974  0.2758  0.3162  0.1105
 9312TIP3    H149427   4.135   6.254  16.905 -0.5209 -0.7550  1.2551
 9312TIP3    H249428   4.234   6.361  16.946  1.1419 -1.5560 -0.5123
 9313TIP3   OH249429   6.403   2.459  15.495 -0.3429 -0.4160  0.4049
 9313TIP3    H149430   6.412   2.550  15.468 -0.1097 -0.2502  1.0239
 9313TIP3    H249431   6.442   2.408  15.424  0.5324  0.0244  0.5642
 9314TIP3   OH249432   0.000   4.820  11.194 -0.1895 -0.4975 -0.3072
 9314TIP3    H149433   0.086   4.832  11.153  0.7560  0.7953  1.8566
 9314TIP3    H249434   0.020   4.815  11.288 -2.4650 -0.6235  0.2079
 9315TIP3   OH249435   1.295   4.397   2.273  0.0279 -0.1117 -0.1212
 9315TIP3    H149436   1.306   4.455   2.197  2.0355  0.8917  0.8644
 9315TIP3    H249437   1.288   4.456   2.348  0.1129 -1.1144  0.7019
 9316TIP3   OH249438   6.399   4.979  13.317 -0.1136 -0.0527 -0.1874
 9316TIP3    H149439   6.432   4.972  13.227  0.0284  2.2733 -0.3864
 9316TIP3    H249440   6.465   5.030  13.363 -1.2349  0.7357  0.6140
 9317TIP3   OH249441   4.131   0.979  13.806 -0.0594  0.2116 -0.6961
 9317TIP3    H149442   4.184   0.964  13.884  0.0838  1.4712 -0.5319
 9317TIP3    H249443   4.195   1.003  13.739 -0.3162  0.6228 -0.7970
 9318TIP3   OH249444   3.163   3.831  16.581  0.0909  0.2768  0.3076
 9318TIP3    H149445   3.105   3.907  16.575 -0.5137 -0.1068  1.1126
 9318TIP3    H249446   3.247   3.863  16.550 -0.1535  1.2827  0.6442
 9319TIP3   OH249447   5.174   4.446  15.467 -0.1300  0.1152  0.6585
 9319TIP3    H149448   5.087   4.474  15.496  0.6729  1.0039  2.3696
 9319TIP3    H249449   5.234   4.510  15.506  1.2538 -0.0136 -1.1321
 9320TIP3   OH249450   5.423   5.065   4.430 -0.7498 -0.1329 -0.3657
 9320TIP3    H149451   5.507   5.077   4.385 -0.5806  1.0091  0.2329
 9320TIP3    H249452   5.366   5.133   4.395 -1.0915 -0.2225  0.0072
 9321TIP3   OH249453   0.678   1.389  16.127 -0.3896  0.0022 -0.1930
 9321TIP3    H149454   0.703   1.298  16.143  1.2744  0.7686  2.0069
 9321TIP3    H249455   0.589   1.396  16.162  0.8284  0.0410  3.2206
 9322TIP3   OH249456   4.641   1.221  11.383 -0.0797 -0.1702  0.0900
 9322TIP3    H149457   4.716   1.164  11.398 -0.2402 -0.7071 -1.0390
 9322TIP3    H249458   4.598   1.184  11.306 -0.8053  0.8511 -0.0136
 9323TIP3   OH249459   0.016   0.572  14.868  0.2071 -0.3636  0.5263
 9323TIP3    H149460   0.009   0.667  14.873 -2.1342 -0.4311  0.0421
 9323TIP3    H249461   0.047   0.545  14.954  1.9076  0.8636  0.3425
 9324TIP3   OH249462   2.192   0.082  10.397 -0.2030 -0.5741 -0.3673
 9324TIP3    H149463   2.281   0.052  10.383 -0.6122 -1.7332 -0.5924
 9324TIP3    H249464   2.152   0.015  10.453 -0.6497  0.4365  0.5808
 9325TIP3   OH249465   4.497   5.669  14.581  0.6025  0.2039 -0.6296
 9325TIP3    H149466   4.514   5.751  14.627  0.2712 -0.4673  0.7200
 9325TIP3    H249467   4.402   5.665  14.572  0.3926 -1.1699  1.5473
 9326TIP3   OH249468   5.500   3.922  14.288  0.3229  0.5389 -0.6393
 9326TIP3    H149469   5.453   3.973  14.354 -1.0776  1.3592 -2.1652
 9326TIP3    H249470   5.542   3.988  14.233  0.9243 -0.0954 -0.9570
 9327TIP3   OH249471   2.275   0.912  11.332  0.0665  0.1687 -0.3733
 9327TIP3    H149472   2.305   0.850  11.265 -0.0565 -0.3494  0.0386
 9327TIP3    H249473   2.350   0.919  11.392 -0.7910 -1.6461  1.0267
 9328TIP3   OH249474   5.003   4.514   4.571 -0.1026  0.5217 -0.2172
 9328TIP3    H149475   5.046   4.439   4.611 -0.5074  0.0168 -0.7207
 9328TIP3    H249476   5.033   4.589   4.622  0.3380  0.0240  0.2600
 9329TIP3   OH249477   4.703   3.447  15.661  0.7278 -0.2808 -0.4055
 9329TIP3    H149478   4.736   3.367  15.703 -0.1041 -1.1417 -1.3203
 9329TIP3    H249479   4.758   3.517  15.697 -0.1959 -0.8659  2.4434
 9330TIP3   OH249480   4.662   3.268  16.433  0.1040 -0.5515 -0.1563
 9330TIP3    H149481   4.603   3.233  16.499  1.2149 -0.4937  0.9170
 9330TIP3    H249482   4.648   3.212  16.356 -1.9840  0.0493 -0.2650
 9331TIP3   OH249483   1.172   4.814  16.908  0.3979  0.4556 -0.3376
 9331TIP3    H149484   1.157   4.731  16.953  1.4198  0.0969 -0.6232
 9331TIP3    H249485   1.217   4.869  16.972  0.5248  0.4700 -0.4389
 9332TIP3   OH249486   1.217   5.463  12.175 -0.2348 -0.1897  0.0263
 9332TIP3    H149487   1.276   5.483  12.248 -0.2972 -0.5715  0.1791
 9332TIP3    H249488   1.205   5.547  12.131  0.1801 -0.0505  0.1765
 9333TIP3   OH249489   3.962   2.037  10.530 -0.1401  0.0561 -0.1910
 9333TIP3    H149490   4.002   1.951  10.520  0.0981  0.2583 -1.1153
 9333TIP3    H249491   3.888   2.023  10.589  0.3471 -0.6289  0.2686
 9334TIP3   OH249492   4.133   0.042  11.640 -0.4039  0.4519 -0.1700
 9334TIP3    H149493   4.100   0.112  11.698 -0.0474  0.7716 -0.3501
 9334TIP3    H249494   4.154   0.087  11.559 -0.0680  0.1468 -0.2508
 9335TIP3   OH249495   3.074   2.263  13.732 -0.1488 -0.1698 -0.2601
 9335TIP3    H149496   3.154   2.254  13.681  0.6436  0.8649  0.7321
 9335TIP3    H249497   3.016   2.194  13.700  1.3642 -1.3286 -0.5787
 9336TIP3   OH249498   2.699   1.607  13.248 -0.4780 -0.2300 -0.3520
 9336TIP3    H149499   2.667   1.587  13.336  2.7164  2.3096  1.6104
 9336TIP3    H249500   2.659   1.691  13.226  1.3561  0.8412  0.2572
 9337TIP3   OH249501   6.494   0.247   0.810 -0.0117  0.0659  0.1904
 9337TIP3    H149502   6.582   0.209   0.807 -0.7646 -1.7504 -0.7005
 9337TIP3    H249503   6.467   0.236   0.901  0.8015  0.9775  0.5594
 9338TIP3   OH249504   5.590   1.472   1.570  0.2849 -0.0721 -0.3898
 9338TIP3    H149505   5.598   1.456   1.476 -1.4957  0.9658 -0.7814
 9338TIP3    H249506   5.679   1.488   1.600  0.9096 -0.6342 -1.8564
 9339TIP3   OH249507   4.544   3.204   3.826 -0.3357 -0.1650 -0.3090
 9339TIP3    H149508   4.571   3.222   3.736 -0.1846 -0.7935 -0.3935
 9339TIP3    H249509   4.552   3.288   3.871 -0.5854  0.1925 -0.9246
 9340TIP3   OH249510   0.271   3.778  13.086  0.8210  0.1949  0.6178
 9340TIP3    H149511   0.319   3.859  13.105  0.8845  0.6207 -1.1507
 9340TIP3    H249512   0.335   3.709  13.099  1.7387  0.7034 -0.9928
 9341TIP3   OH249513   1.423   6.616  16.467  0.0954 -0.0478 -0.1225
 9341TIP3    H149514   1.407   6.667  16.546  1.3902 -0.3453  0.3547
 9341TIP3    H249515   1.509   6.645  16.436 -0.7894  0.7415 -1.9771
 9342TIP3   OH249516   2.007   0.279  16.460 -0.2808  0.2470 -0.5827
 9342TIP3    H149517   1.936   0.215  16.460  1.2890 -1.6081 -0.7114
 9342TIP3    H249518   1.994   0.329  16.540 -3.3709  2.0017 -2.0194
 9343TIP3   OH249519   6.746   6.548  13.275 -0.4455  0.3636 -0.6228
 9343TIP3    H149520   6.818   6.583  13.326  0.2579  0.3828 -1.6014
 9343TIP3    H249521   6.704   6.484  13.333  1.1998 -0.6653 -0.5113
 9344TIP3   OH249522   5.404   3.525  16.436 -0.4184  0.4361 -0.2595
 9344TIP3    H149523   5.332   3.549  16.494  0.3484  1.0958  0.4566
 9344TIP3    H249524   5.403   3.593  16.368 -0.5046  0.4152 -0.2793
 9345TIP3   OH249525   0.560   2.549  14.665  0.2813 -0.4346  0.0538
 9345TIP3    H149526   0.474   2.585  14.688  0.0730 -0.1057 -1.1761
 9345TIP3    H249527   0.549   2.454  14.670  0.2308 -0.3757  1.2120
 9346TIP3   OH249528   3.351   6.743  13.390  0.4253  0.3284 -0.0829
 9346TIP3    H149529   3.268   6.754  13.437 -0.4538 -0.5667 -1.3543
 9346TIP3    H249530   3.383   6.833  13.377  1.4516  0.5808  3.3913
 9347TIP3   OH249531   2.343   4.323   1.606 -0.1785  0.0940 -0.3121
 9347TIP3    H149532   2.319   4.262   1.676 -0.5883  1.5900  0.9209
 9347TIP3    H249533   2.260   4.359   1.576  0.0630  0.1770 -0.8936
 9348TIP3   OH249534   3.462   0.747  14.690 -0.4055  0.4254  0.0086
 9348TIP3    H149535   3.475   0.658  14.723  0.3250  0.3445 -0.4634
 9348TIP3    H249536   3.420   0.735  14.605  1.7222  0.3869 -1.1001
 9349TIP3   OH249537   3.808   3.493   4.389  0.0480 -1.1366 -0.1383
 9349TIP3    H149538   3.875   3.514   4.454 -0.9921  1.0657  0.3289
 9349TIP3    H249539   3.834   3.541   4.311 -0.2502 -1.4296 -0.4233
 9350TIP3   OH249540   2.755   1.321  14.829  0.5481 -0.6448  0.1547
 9350TIP3    H149541   2.703   1.330  14.750 -2.8457  3.8808  2.4263
 9350TIP3    H249542   2.840   1.359  14.808 -1.1299  2.8992 -0.8708
 9351TIP3   OH249543   5.418   5.136   4.872  0.0156  0.2662  0.3302
 9351TIP3    H149544   5.451   5.049   4.847 -0.8056 -0.0301  0.2405
 9351TIP3    H249545   5.392   5.127   4.963 -1.3730  0.0014 -0.0657
 9352TIP3   OH249546   6.087   0.731  11.253  0.1091 -0.3146 -0.1715
 9352TIP3    H149547   6.139   0.687  11.186  1.3869  1.4457 -0.3933
 9352TIP3    H249548   6.037   0.660  11.294 -1.5900 -1.3709 -3.6318
 9353TIP3   OH249549   1.797   1.421  15.012  0.2334  0.2547  0.1044
 9353TIP3    H149550   1.836   1.509  15.018  1.3352 -0.2824  1.1716
 9353TIP3    H249551   1.863   1.369  14.966 -0.0330 -0.2398  0.2797
 9354TIP3   OH249552   6.622   0.434  15.350 -0.8044  0.5590 -0.0588
 9354TIP3    H149553   6.535   0.467  15.327 -1.2785 -0.4121  0.2600
 9354TIP3    H249554   6.605   0.371  15.420 -0.2350 -1.9742 -2.0312
 9355TIP3   OH249555   2.689   5.726   2.506  0.4788  0.3443  0.5381
 9355TIP3    H149556   2.667   5.791   2.573 -2.7974  0.0897 -0.1002
 9355TIP3    H249557   2.643   5.647   2.535 -0.6062  0.0868 -1.6766
 9356TIP3   OH249558   6.032   4.364  12.972 -0.0036 -0.4468 -0.4557
 9356TIP3    H149559   5.985   4.376  13.055 -0.1884 -0.4647 -0.5578
 9356TIP3    H249560   5.974   4.311  12.919 -0.1535  0.0709 -0.8199
 9357TIP3   OH249561   2.343   3.532  11.260 -0.0480  0.0272  0.1136
 9357TIP3    H149562   2.339   3.565  11.170  0.8950 -0.8231 -0.2534
 9357TIP3    H249563   2.390   3.600  11.309  1.0168 -0.3044 -0.4272
 9358TIP3   OH249564   4.958   2.729   1.597 -0.6551 -0.7894  0.7939
 9358TIP3    H149565   4.955   2.823   1.618  1.0316 -0.4585 -0.2627
 9358TIP3    H249566   4.924   2.724   1.508  1.6860 -0.7770 -0.1668
 9359TIP3   OH249567   5.742   0.627   6.373 -0.1989 -0.1904  0.4460
 9359TIP3    H149568   5.713   0.706   6.419  0.8712 -0.1800  1.1204
 9359TIP3    H249569   5.709   0.555   6.426  0.3193 -0.1832  0.7804
 9360TIP3   OH249570   0.763   1.867  17.081  0.1489 -0.6152 -0.4399
 9360TIP3    H149571   0.700   1.794  17.078 -1.0733  0.3217  0.9516
 9360TIP3    H249572   0.781   1.879  17.174  0.8571  0.4298 -0.7003
 9361TIP3   OH249573   1.624   0.039  16.878  0.2369  0.2401 -0.3110
 9361TIP3    H149574   1.699   0.070  16.928  1.3869 -0.5007 -1.5067
 9361TIP3    H249575   1.548   0.076  16.922  1.4041  3.4880 -0.7996
 9362TIP3   OH249576   5.547   3.915  15.257  0.1200  0.0902 -0.1389
 9362TIP3    H149577   5.475   3.908  15.194  1.4004  0.2621 -1.6654
 9362TIP3    H249578   5.529   3.996  15.305 -1.0362 -0.2009 -0.0503
 9363TIP3   OH249579   2.386   5.499   6.316 -0.1134  0.4132 -0.3336
 9363TIP3    H149580   2.308   5.498   6.372  0.6625  2.2343  0.8738
 9363TIP3    H249581   2.372   5.427   6.255 -0.3380 -2.7867  3.1044
 9364TIP3   OH249582   0.633   4.263   3.917 -0.0899  0.0592  0.3395
 9364TIP3    H149583   0.578   4.217   3.853 -0.7706 -2.9045  2.8506
 9364TIP3    H249584   0.702   4.304   3.864 -0.3879 -2.4939 -2.2665
 9365TIP3   OH249585   3.785   6.330   5.917 -0.3243  0.8731  0.7137
 9365TIP3    H149586   3.774   6.416   5.877  1.0053  0.0272 -1.6950
 9365TIP3    H249587   3.880   6.321   5.927 -0.5381  0.3093  2.4718
 9366TIP3   OH249588   1.452   0.546  15.068 -0.6508  0.2923 -0.3921
 9366TIP3    H149589   1.389   0.589  15.126 -0.6583 -0.0911 -0.1175
 9366TIP3    H249590   1.448   0.597  14.987  0.3595  1.7002  0.3917
 9367TIP3   OH249591   3.819   0.004  13.869  0.4473  0.5553 -0.2108
 9367TIP3    H149592   3.813   0.047  13.954 -0.4439 -0.2389  0.1437
 9367TIP3    H249593   3.770   0.061  13.810 -1.3205 -0.2551  0.3972
 9368TIP3   OH249594   3.509   4.799  10.826 -0.3813  0.2826  0.1768
 9368TIP3    H149595   3.460   4.781  10.746 -0.6639  1.0338  0.1798
 9368TIP3    H249596   3.443   4.821  10.891 -0.1935 -0.7640  0.7577
 9369TIP3   OH249597   4.068   1.711   3.554  0.4735  0.2882  0.1543
 9369TIP3    H149598   4.117   1.776   3.604  0.0781  0.6111  0.1204
 9369TIP3    H249599   4.096   1.724   3.464  0.1532  0.6289  0.1027
 9370TIP3   OH249600   1.897   3.676  13.671 -0.3415 -0.6169 -0.1197
 9370TIP3    H149601   1.956   3.682  13.746  0.3500  0.6190 -0.7378
 9370TIP3    H249602   1.922   3.594  13.628  1.0907 -0.0076 -0.4963
 9371TIP3   OH249603   5.338   3.528   0.395 -0.2883  0.3774 -0.1448
 9371TIP3    H149604   5.388   3.604   0.366  0.9086 -0.2464  0.1953
 9371TIP3    H249605   5.390   3.453   0.365 -2.1489 -0.3622 -1.7432
 9372TIP3   OH249606   5.648   5.443   5.878 -0.1891  0.5867 -0.4735
 9372TIP3    H149607   5.653   5.441   5.783  0.2233 -0.9992 -0.4360
 9372TIP3    H249608   5.570   5.497   5.897 -0.0667  1.2194 -1.6736
 9373TIP3   OH249609   2.962   1.263  14.070 -0.3037 -0.3152  0.1177
 9373TIP3    H149610   2.950   1.183  14.123  0.4081 -0.2699  0.3522
 9373TIP3    H249611   3.023   1.237  14.001 -0.4184 -0.0876 -0.0688
 9374TIP3   OH249612   6.346   4.721   0.235 -0.0862  0.2067 -0.5859
 9374TIP3    H149613   6.355   4.814   0.255  0.1486  0.0378  0.1189
 9374TIP3    H249614   6.435   4.691   0.219 -0.0875 -0.0526 -0.1063
 9375TIP3   OH249615   4.327   1.989   2.809  0.1402 -0.5044  0.2290
 9375TIP3    H149616   4.247   2.042   2.813  0.6291  0.2136  0.6709
 9375TIP3    H249617   4.383   2.026   2.877 -0.0694 -2.5276  1.5872
 9376TIP3   OH249618   5.717   3.829  15.650  0.3247  0.1970  0.0523
 9376TIP3    H149619   5.738   3.829  15.557 -2.5883 -1.2769 -0.7066
 9376TIP3    H249620   5.780   3.890  15.689  2.2701  0.0938 -2.6811
 9377TIP3   OH249621   4.426   2.838   5.005  0.3401  0.3703  0.6241
 9377TIP3    H149622   4.350   2.877   5.048  0.9521 -0.4124  2.5357
 9377TIP3    H249623   4.457   2.772   5.067  1.2344 -0.9141 -1.0967
 9378TIP3   OH249624   3.140   1.418   0.347  0.1949 -0.4924  0.0098
 9378TIP3    H149625   3.229   1.397   0.375  0.6945  0.9262 -0.4521
 9378TIP3    H249626   3.106   1.334   0.314  0.5744 -1.5554  2.1185
 9379TIP3   OH249627   4.116   2.084   0.448  1.0402  0.3410 -0.3829
 9379TIP3    H149628   4.185   2.087   0.513  0.6848 -0.4602  0.0481
 9379TIP3    H249629   4.129   2.001   0.403 -0.8633 -0.8557  1.1130
 9380TIP3   OH249630   6.282   2.449  14.928 -0.0883 -0.2889 -0.1449
 9380TIP3    H149631   6.226   2.379  14.961 -0.0151 -1.5042 -2.3994
 9380TIP3    H249632   6.371   2.415  14.938 -0.0641 -0.6427 -1.4690
 9381TIP3   OH249633   6.645   3.350  13.708  0.4247 -0.1283  0.6441
 9381TIP3    H149634   6.634   3.443  13.688  0.9116 -0.2305 -0.1424
 9381TIP3    H249635   6.690   3.350  13.793  0.1492  0.3436  0.7990
 9382TIP3   OH249636   0.033   1.353  15.610  0.5146 -0.1687 -0.0313
 9382TIP3    H149637   0.036   1.307  15.526  0.4974  0.4213 -0.3572
 9382TIP3    H249638   0.119   1.337  15.649  0.3212 -0.9232  0.1051
 9383TIP3   OH249639   4.493   6.244  11.816  0.0838  0.3555  0.2784
 9383TIP3    H149640   4.570   6.238  11.873 -0.3482  3.4018  1.4168
 9383TIP3    H249641   4.526   6.286  11.736 -0.0982  0.1771  0.1096
 9384TIP3   OH249642   6.107   5.902   1.734  0.1868  0.1199  0.2349
 9384TIP3    H149643   6.153   5.820   1.753  1.4761  0.7341 -0.1059
 9384TIP3    H249644   6.020   5.875   1.706  1.4426 -1.3248 -2.6843
 9385TIP3   OH249645   0.553   2.716   5.106 -0.2637  0.2709 -0.0922
 9385TIP3    H149646   0.561   2.656   5.180 -2.2162  0.6601  0.5119
 9385TIP3    H249647   0.532   2.660   5.031 -0.2171  0.0411  0.0655
 9386TIP3   OH249648   5.641   0.201  16.906  0.7866  0.5020 -0.0346
 9386TIP3    H149649   5.578   0.179  16.838 -2.1431  1.6229  2.0819
 9386TIP3    H249650   5.687   0.119  16.924 -1.2966 -0.8695 -0.5609
 9387TIP3   OH249651   4.605   5.400   0.642  0.2986 -0.2393  1.0149
 9387TIP3    H149652   4.548   5.349   0.700  0.5393 -0.3826  1.1246
 9387TIP3    H249653   4.604   5.353   0.559 -0.9199  0.5468  0.5470
 9388TIP3   OH249654   0.760   4.104   2.373  0.1934  0.7134  0.5732
 9388TIP3    H149655   0.765   4.111   2.278  0.2472 -0.0475  0.5081
 9388TIP3    H249656   0.844   4.066   2.399 -0.8964 -1.9007  0.5990
 9389TIP3   OH249657   0.557   5.054  13.949 -0.6388 -0.0625  0.2915
 9389TIP3    H149658   0.527   4.987  13.887 -2.6703  0.0669  1.0774
 9389TIP3    H249659   0.573   5.006  14.030  2.2358 -0.2719 -0.2732
 9390TIP3   OH249660   6.533   4.441  16.971  0.3739 -0.1466 -0.3112
 9390TIP3    H149661   6.513   4.388  17.048  0.0966  0.7208  0.2297
 9390TIP3    H249662   6.456   4.431  16.914  0.8364 -1.2748 -0.7743
 9391TIP3   OH249663   5.899   3.494   5.596  0.0731 -0.2326  0.4993
 9391TIP3    H149664   5.873   3.402   5.590 -2.1000  0.3118  0.7143
 9391TIP3    H249665   5.901   3.512   5.690  2.2147 -0.4465  0.5553
 9392TIP3   OH249666   6.335   2.163  16.164  0.6926 -0.4300  0.0612
 9392TIP3    H149667   6.284   2.235  16.125  1.0606  0.7756  1.6801
 9392TIP3    H249668   6.306   2.085  16.117  0.1060  0.7332 -1.6146
 9393TIP3   OH249669   5.135   6.610  12.318  0.1739  0.1149  0.1556
 9393TIP3    H149670   5.044   6.579  12.316 -0.0972  0.8177  0.9671
 9393TIP3    H249671   5.187   6.530  12.324 -0.3713 -0.3115 -0.5695
 9394TIP3   OH249672   0.577   4.451   2.940 -0.2610 -0.0620 -0.0558
 9394TIP3    H149673   0.581   4.381   3.005  1.0093 -0.0317 -0.0910
 9394TIP3    H249674   0.483   4.466   2.927 -0.5403 -1.2049  0.5399
 9395TIP3   OH249675   1.427   1.415   6.131  0.3354 -0.6308 -0.0664
 9395TIP3    H149676   1.358   1.385   6.072  0.4997 -0.8585 -0.1435
 9395TIP3    H249677   1.383   1.430   6.215 -0.4744  2.2682 -0.8703
 9396TIP3   OH249678   3.266   2.448   0.183  0.1219 -0.0628  0.5153
 9396TIP3    H149679   3.193   2.480   0.235  0.6668  0.8482  0.7325
 9396TIP3    H249680   3.332   2.517   0.187  0.5038 -0.3168 -0.7261
 9397TIP3   OH249681   2.418   2.109   1.973 -0.2864  0.3644 -0.2874
 9397TIP3    H149682   2.354   2.048   2.008  0.5225 -0.4530 -0.2129
 9397TIP3    H249683   2.480   2.055   1.925  1.2196  0.9397  0.9235
 9398TIP3   OH249684   2.898   3.695  10.301 -0.7920  0.2398 -0.1980
 9398TIP3    H149685   2.836   3.732  10.364 -0.5538 -0.1093  0.2440
 9398TIP3    H249686   2.876   3.739  10.218 -3.5800 -1.9390 -0.7652
 9399TIP3   OH249687   0.267   1.767  16.162 -0.1794 -0.3878 -0.4296
 9399TIP3    H149688   0.344   1.760  16.106  0.2910  2.5983 -0.3274
 9399TIP3    H249689   0.199   1.805  16.106 -0.5005  0.2247  0.3550
 9400TIP3   OH249690   2.830   0.807  15.276 -0.0265  0.2613  0.6313
 9400TIP3    H149691   2.841   0.761  15.193  2.0183 -0.3189  1.1698
 9400TIP3    H249692   2.907   0.864  15.282 -0.8706  1.3652  1.4964
 9401TIP3   OH249693   3.903   4.938   0.616 -0.7074  0.4513  0.3942
 9401TIP3    H149694   3.888   4.886   0.537 -1.4512  1.2937 -0.0376
 9401TIP3    H249695   3.833   5.003   0.615  0.5874  1.8985  0.5609
 9402TIP3   OH249696   4.785   1.502   3.347 -0.0908 -0.0232 -0.3401
 9402TIP3    H149697   4.714   1.519   3.284 -0.8172  0.5660  0.6069
 9402TIP3    H249698   4.834   1.584   3.351 -0.0872 -0.0351 -0.0974
 9403TIP3   OH249699   4.067   1.649  14.730  0.4813  0.4370 -0.1456
 9403TIP3    H149700   4.075   1.555  14.715  2.0861  0.2962  1.3265
 9403TIP3    H249701   3.977   1.660  14.763 -0.0392 -0.4157 -1.1957
 9404TIP3   OH249702   5.205   6.603   4.308  0.8571  0.2762 -0.1364
 9404TIP3    H149703   5.243   6.690   4.301  1.5079 -0.0187 -0.3821
 9404TIP3    H249704   5.178   6.595   4.399  2.2137  0.1697  0.2766
 9405TIP3   OH249705   1.191   2.408   4.384  0.0518  0.1450 -0.5287
 9405TIP3    H149706   1.274   2.401   4.431 -0.1207  0.8878 -0.0961
 9405TIP3    H249707   1.193   2.336   4.321  0.3766 -0.7520  0.4785
 9406TIP3   OH249708   4.370   5.567   0.461 -0.4889  0.2531  0.0038
 9406TIP3    H149709   4.309   5.627   0.416 -2.4363  0.3359  2.5492
 9406TIP3    H249710   4.325   5.543   0.542  2.3325 -0.8076  1.3884
 9407TIP3   OH249711   2.611   4.280   4.747  0.0270 -0.0012 -0.0210
 9407TIP3    H149712   2.601   4.185   4.736 -0.4800 -0.0817  1.0763
 9407TIP3    H249713   2.536   4.317   4.700  1.5077  0.0260 -2.5825
 9408TIP3   OH249714   0.780   0.481   3.748 -0.1352 -0.0387 -0.3853
 9408TIP3    H149715   0.840   0.408   3.765 -2.1270 -1.3890  1.3017
 9408TIP3    H249716   0.781   0.491   3.653  2.1699 -0.4563 -0.4796
 9409TIP3   OH249717   6.070   2.639  16.018  0.1161 -0.3234 -0.1264
 9409TIP3    H149718   5.975   2.632  16.031 -0.1693 -0.1235 -1.8193
 9409TIP3    H249719   6.087   2.591  15.937  1.1628  1.2227 -0.8831
 9410TIP3   OH249720   4.271   0.099  16.055 -0.1332 -0.4773 -0.3125
 9410TIP3    H149721   4.343   0.059  16.103 -0.3779 -1.9661 -1.1168
 9410TIP3    H249722   4.285   0.194  16.065 -0.0093 -0.6963  2.3718
 9411TIP3   OH249723   6.659   3.073  16.820 -0.6516 -0.1282  0.3092
 9411TIP3    H149724   6.625   3.081  16.732  1.9141  1.3815 -0.6679
 9411TIP3    H249725   6.711   2.992  16.819 -3.4234 -2.1141  1.6242
 9412TIP3   OH249726   6.540   1.323  12.177 -0.3150 -0.6219 -0.2821
 9412TIP3    H149727   6.480   1.250  12.163 -2.2160  0.9164 -0.5959
 9412TIP3    H249728   6.505   1.369  12.253  0.5422  0.2689 -0.3998
 9413TIP3   OH249729   4.892   5.439  14.247  0.1189 -0.3692  0.2897
 9413TIP3    H149730   4.852   5.520  14.214 -1.9237  0.1013  3.5459
 9413TIP3    H249731   4.986   5.453  14.237 -0.2471  1.6772 -0.7637
 9414TIP3   OH249732   0.511   0.504   0.826  0.0160  0.4918  0.0069
 9414TIP3    H149733   0.529   0.596   0.804 -1.0077  0.8514  0.6120
 9414TIP3    H249734   0.566   0.487   0.902 -0.4169  0.8650  0.4086
 9415TIP3   OH249735   1.412   6.138  15.853 -0.0539 -0.0904 -0.0165
 9415TIP3    H149736   1.484   6.140  15.916  0.4328 -0.2150 -0.5632
 9415TIP3    H249737   1.442   6.194  15.781 -0.3554 -0.4306 -0.4086
 9416TIP3   OH249738   4.181   5.924  13.242  0.4897 -0.2810  0.2387
 9416TIP3    H149739   4.126   5.889  13.312  0.0208  0.2356  0.1307
 9416TIP3    H249740   4.249   5.973  13.288  1.5198 -1.8131  0.4241
 9417TIP3   OH249741   3.381   2.016   0.387 -0.3453  0.0543  0.2257
 9417TIP3    H149742   3.326   1.949   0.428  0.6423 -1.3028 -0.5732
 9417TIP3    H249743   3.321   2.063   0.329 -0.6813 -1.5440 -0.8093
 9418TIP3   OH249744   3.938   4.406  15.091  0.6376 -0.4807 -0.3534
 9418TIP3    H149745   3.947   4.418  14.997  0.8586  0.3086 -0.2438
 9418TIP3    H249746   3.999   4.469  15.129  3.0546 -3.0597  0.3190
 9419TIP3   OH249747   0.268   2.024  11.703 -0.7918 -0.5087 -0.0301
 9419TIP3    H149748   0.196   2.009  11.764 -0.1388  1.1093  1.2045
 9419TIP3    H249749   0.340   1.970  11.737 -1.7987 -3.4967 -2.2249
 9420TIP3   OH249750   2.761   1.100   5.095 -0.0101  0.5679 -0.1475
 9420TIP3    H149751   2.776   1.038   5.166 -0.6275 -1.7525 -1.9146
 9420TIP3    H249752   2.704   1.166   5.133  1.2093  0.4845  2.0092
 9421TIP3   OH249753   4.386   1.260   2.658 -0.1371  0.0820  0.2068
 9421TIP3    H149754   4.414   1.303   2.577  0.4055  0.6567  0.6902
 9421TIP3    H249755   4.291   1.269   2.658 -0.0591  0.9828  0.1322
 9422TIP3   OH249756   4.091   4.686  16.197 -0.6630  0.4842 -0.1119
 9422TIP3    H149757   4.019   4.747  16.213 -0.3274  1.1429 -1.0900
 9422TIP3    H249758   4.164   4.741  16.170 -0.5887 -0.3771 -1.8149
 9423TIP3   OH249759   6.009   1.142  17.067  0.1915  0.0608  0.0483
 9423TIP3    H149760   6.000   1.093  16.986 -0.0502  1.3248 -0.7253
 9423TIP3    H249761   6.097   1.178  17.064 -0.8061  2.7129 -1.2629
 9424TIP3   OH249762   2.321   4.134  16.476  0.1652  0.0748 -0.4270
 9424TIP3    H149763   2.295   4.121  16.385  0.1666 -1.1467 -0.2811
 9424TIP3    H249764   2.416   4.125  16.475  0.2822  1.1736 -0.4562
 9425TIP3   OH249765   4.461   3.357   4.536 -0.1167 -0.1953  0.6581
 9425TIP3    H149766   4.432   3.327   4.622  0.0003 -0.7237  0.5136
 9425TIP3    H249767   4.489   3.278   4.490  0.4898  0.1661  0.3876
 9426TIP3   OH249768   6.384   1.924   0.158  0.1749 -0.1447  0.4977
 9426TIP3    H149769   6.420   1.999   0.110 -0.2848  0.6237  1.3262
 9426TIP3    H249770   6.318   1.886   0.100  2.4933 -1.8368 -1.2504
 9427TIP3   OH249771   5.145   2.718  17.121 -0.5838  0.0170  0.3458
 9427TIP3    H149772   5.149   2.795  17.064  1.3338  0.3991  0.9187
 9427TIP3    H249773   5.054   2.690  17.117 -0.5511 -0.1291 -3.1116
 9428TIP3   OH249774   3.804   2.237   2.088 -0.4898  0.2498 -0.3368
 9428TIP3    H149775   3.863   2.277   2.153  1.4365 -1.3146 -1.0028
 9428TIP3    H249776   3.716   2.252   2.123  0.3954  0.7464  1.8850
 9429TIP3   OH249777   0.740   2.671  14.483 -0.4258 -0.2616  0.6720
 9429TIP3    H149778   0.720   2.762  14.463 -0.9753 -0.0991  1.8523
 9429TIP3    H249779   0.666   2.642  14.536 -1.3334 -2.0441 -1.4057
 9430TIP3   OH249780   1.488   3.247   3.292  0.6270 -0.3087  0.3978
 9430TIP3    H149781   1.470   3.321   3.234  1.2671  0.0247  0.6095
 9430TIP3    H249782   1.454   3.275   3.377 -1.1293 -1.1564  0.0244
 9431TIP3   OH249783   6.702   6.153   3.103 -0.1676 -0.0876 -0.0249
 9431TIP3    H149784   6.717   6.061   3.078  0.6919 -0.1804  0.8006
 9431TIP3    H249785   6.608   6.166   3.089 -0.5583 -1.4706  1.0396
 9432TIP3   OH249786   6.597   2.661  10.887 -0.5831 -0.4468  0.4852
 9432TIP3    H149787   6.612   2.755  10.898  0.3305 -0.2186 -2.0481
 9432TIP3    H249788   6.667   2.620  10.938 -0.0125  0.2948  0.3264
 9433TIP3   OH249789   3.836   1.673  13.528 -0.4294  0.1644 -0.7169
 9433TIP3    H149790   3.826   1.620  13.449 -3.5357  1.2721 -1.1835
 9433TIP3    H249791   3.830   1.763  13.498 -2.1112  0.6109  0.8034
 9434TIP3   OH249792   1.677   6.708  16.440  0.3508 -0.8558 -0.6507
 9434TIP3    H149793   1.758   6.757  16.459  0.9989 -1.8499 -0.7683
 9434TIP3    H249794   1.708   6.623  16.411 -0.7640 -1.8378  0.9094
 9435TIP3   OH249795   0.572   1.660  15.141  0.5630 -0.2043 -0.4739
 9435TIP3    H149796   0.491   1.711  15.143 -1.1343 -2.7075  1.6351
 9435TIP3    H249797   0.577   1.625  15.052 -0.6389  0.0816 -0.6648
 9436TIP3   OH249798   2.824   5.226  15.115  0.0614  0.2665 -0.3490
 9436TIP3    H149799   2.877   5.297  15.151  0.8283 -0.0960 -0.7443
 9436TIP3    H249800   2.776   5.191  15.191  1.8350 -0.6430  0.4086
 9437TIP3   OH249801   1.572   3.074   3.066  0.2693 -0.0935  0.3742
 9437TIP3    H149802   1.579   2.979   3.057 -1.2936 -0.1565 -0.3536
 9437TIP3    H249803   1.546   3.088   3.157  0.1772 -0.3759  0.3906
 9438TIP3   OH249804   3.073   0.072  13.312 -0.0999  0.0184  0.0745
 9438TIP3    H149805   3.027   0.080  13.396 -0.1398 -1.8538  0.2652
 9438TIP3    H249806   3.135   0.146  13.312 -0.5499  0.4338  1.4557
 9439TIP3   OH249807   3.387   3.314  16.978  0.3136  0.3327  0.3336
 9439TIP3    H149808   3.413   3.270  17.058  1.0539 -1.4417 -0.8163
 9439TIP3    H249809   3.305   3.271  16.952  0.2803  0.6186 -0.0525
 9440TIP3   OH249810   3.433   5.060   5.765 -0.8052  0.0777  0.2474
 9440TIP3    H149811   3.495   5.009   5.817 -2.1954  0.6532  2.6253
 9440TIP3    H249812   3.427   5.013   5.682  0.4819 -1.7087  1.0939
 9441TIP3   OH249813   6.324   4.731  14.099 -0.0334  0.1376  0.0725
 9441TIP3    H149814   6.410   4.690  14.106  1.1210  2.5139  0.9602
 9441TIP3    H249815   6.326   4.778  14.015  0.5428  2.1813  1.1636
 9442TIP3   OH249816   0.127   6.662  14.353 -0.2862  0.1851  0.0518
 9442TIP3    H149817   0.153   6.629  14.267  1.2006  0.1168  0.5122
 9442TIP3    H249818   0.188   6.734  14.371 -1.5061  1.1677  0.4308
 9443TIP3   OH249819   3.643   2.523  16.253  0.7840  0.2626  0.1631
 9443TIP3    H149820   3.661   2.597  16.311  0.5791  0.3862  0.0708
 9443TIP3    H249821   3.626   2.449  16.311  3.0698 -0.2448  0.2728
 9444TIP3   OH249822   2.031   5.809  16.277 -0.6244  0.4867 -0.0302
 9444TIP3    H149823   1.983   5.730  16.302 -0.4431  0.4083  0.0776
 9444TIP3    H249824   2.015   5.871  16.349  1.8379 -0.5490  1.5556
 9445TIP3   OH249825   6.497   2.809   4.885 -0.4504 -0.2262 -0.0932
 9445TIP3    H149826   6.500   2.734   4.945 -0.1153 -0.7005 -0.6952
 9445TIP3    H249827   6.501   2.770   4.798 -0.8731  0.4627 -0.4274
 9446TIP3   OH249828   3.481   6.707   3.969 -0.0445  0.0680 -0.0988
 9446TIP3    H149829   3.463   6.801   3.976  1.5348  0.5509 -1.9469
 9446TIP3    H249830   3.465   6.686   3.877  2.0904 -0.9026 -0.2928
 9447TIP3   OH249831   1.407   2.179   2.101  0.0636 -0.1975  0.2628
 9447TIP3    H149832   1.498   2.207   2.092  0.4049 -1.3786 -0.0961
 9447TIP3    H249833   1.412   2.103   2.160 -0.7819  0.1877  0.8443
 9448TIP3   OH249834   1.468   3.668  13.593 -0.3149 -0.3332 -0.2924
 9448TIP3    H149835   1.516   3.733  13.644 -1.6503 -0.2982  1.0050
 9448TIP3    H249836   1.483   3.586  13.641 -0.8406 -0.4723 -0.3622
 9449TIP3   OH249837   6.296   0.606  15.944  0.3896  0.0329  0.0471
 9449TIP3    H149838   6.222   0.616  15.884 -0.2036 -1.8812  0.3992
 9449TIP3    H249839   6.277   0.668  16.015 -0.5927 -0.0317 -0.1371
 9450TIP3   OH249840   1.436   0.123   3.186 -0.1577  0.2106  0.4571
 9450TIP3    H149841   1.437   0.197   3.126  1.5388  0.2554  0.5026
 9450TIP3    H249842   1.390   0.054   3.138  0.6946  0.4188 -0.6841
 9451TIP3   OH249843   6.389   3.282   0.811 -0.3508 -0.7199  0.2107
 9451TIP3    H149844   6.350   3.226   0.743 -0.4701 -1.9703  1.2668
 9451TIP3    H249845   6.419   3.360   0.764 -0.5669 -1.4824 -1.2462
 9452TIP3   OH249846   3.986   1.450  14.355  0.0279  0.3805 -0.3796
 9452TIP3    H149847   4.007   1.538  14.324 -1.3002  0.3437 -1.4671
 9452TIP3    H249848   3.902   1.460  14.399  0.1768 -0.2394  0.0575
 9453TIP3   OH249849   5.792   1.114  10.969  0.1628 -0.3851  0.3303
 9453TIP3    H149850   5.704   1.075  10.976 -0.1672  0.6196  2.8122
 9453TIP3    H249851   5.804   1.160  11.052  1.3677  3.0131 -1.5322
 9454TIP3   OH249852   5.706   1.819   3.935  0.5680 -0.7036 -0.5769
 9454TIP3    H149853   5.764   1.840   4.009  0.2925 -0.5809 -0.3918
 9454TIP3    H249854   5.664   1.736   3.960 -0.5092 -0.0129  0.0147
 9455TIP3   OH249855   5.078   4.422   2.744 -0.4724  0.2263  0.4471
 9455TIP3    H149856   5.046   4.394   2.659 -0.5247  1.2877  0.0956
 9455TIP3    H249857   5.148   4.360   2.766  0.6718  0.9046 -1.1475
 9456TIP3   OH249858   1.201   1.885   2.342  0.1259 -0.6553 -0.4331
 9456TIP3    H149859   1.144   1.866   2.268 -2.5512 -0.2218  1.3959
 9456TIP3    H249860   1.218   1.799   2.381  1.2101 -0.8377 -1.2409
 9457TIP3   OH249861   0.261   2.270  15.663 -0.2514 -0.1260 -0.4066
 9457TIP3    H149862   0.328   2.332  15.632  0.2336 -1.2160 -1.6730
 9457TIP3    H249863   0.287   2.187  15.624 -1.2744 -0.9856  0.6930
 9458TIP3   OH249864   3.181   2.305  11.523 -0.4466 -0.2725  0.6465
 9458TIP3    H149865   3.085   2.306  11.527 -0.6084  1.9086 -1.4239
 9458TIP3    H249866   3.203   2.213  11.512 -2.6851 -0.5768 -3.1897
 9459TIP3   OH249867   5.575   3.588   2.585 -0.0041  0.3638  0.0991
 9459TIP3    H149868   5.486   3.599   2.551 -1.6132 -1.8687  3.1529
 9459TIP3    H249869   5.578   3.641   2.665  1.0695 -0.3961  0.5872
 9460TIP3   OH249870   5.259   2.507   3.206 -0.4764  0.2832  0.8337
 9460TIP3    H149871   5.215   2.498   3.290 -0.4588 -1.0874  0.7184
 9460TIP3    H249872   5.207   2.453   3.146 -0.5148  1.2806 -0.0491
 9461TIP3   OH249873   5.567   6.184  16.075 -0.3755  0.4270 -0.1354
 9461TIP3    H149874   5.634   6.231  16.025  0.6958  1.9151  2.5141
 9461TIP3    H249875   5.492   6.243  16.075 -0.6292  0.1069 -0.5705
 9462TIP3   OH249876   1.814   4.110   1.036 -0.1091  0.3195 -0.5571
 9462TIP3    H149877   1.762   4.039   1.074 -1.7370  1.6121 -0.2486
 9462TIP3    H249878   1.867   4.067   0.968  0.9275 -1.5947  1.3353
 9463TIP3   OH249879   3.019   0.241  14.584  0.0671  0.0701 -0.5429
 9463TIP3    H149880   3.011   0.305  14.655  1.0054  0.0309 -0.3846
 9463TIP3    H249881   2.940   0.252  14.532 -0.1990  0.7369 -0.0050
 9464TIP3   OH249882   3.009   0.549   1.684  0.0040  0.1736  0.1387
 9464TIP3    H149883   3.068   0.578   1.753  0.8766 -0.8263 -0.1514
 9464TIP3    H249884   2.928   0.598   1.699  0.9820  1.7831  0.3813
 9465TIP3   OH249885   4.591   4.123   3.775 -0.2228 -0.4667 -0.6061
 9465TIP3    H149886   4.662   4.135   3.838 -1.4917  1.4450  0.5799
 9465TIP3    H249887   4.582   4.028   3.767  1.4339 -0.7549  0.3935
 9466TIP3   OH249888   2.376   0.045  12.728  0.2819  0.5452  0.1462
 9466TIP3    H149889   2.407  -0.032  12.680 -0.1249  1.0501 -0.9686
 9466TIP3    H249890   2.448   0.065  12.788  0.1177 -1.0824  0.9457
 9467TIP3   OH249891   5.535   6.467  16.494 -0.1662 -0.0093  0.0580
 9467TIP3    H149892   5.597   6.520  16.444 -0.8141  0.0927 -0.6468
 9467TIP3    H249893   5.574   6.379  16.496  0.4053  0.2452  0.3462
 9468TIP3   OH249894   4.283   3.929  12.142 -0.3383  0.3966 -0.1612
 9468TIP3    H149895   4.232   3.951  12.220 -0.9773  0.0089 -0.4626
 9468TIP3    H249896   4.269   4.003  12.083  1.4249  1.4448  0.6883
 9469TIP3   OH249897   3.967   2.724   1.212 -0.2718 -0.3587 -0.4094
 9469TIP3    H149898   3.961   2.711   1.307 -1.6137  0.1476 -0.4052
 9469TIP3    H249899   3.954   2.637   1.175 -0.4046 -0.4576 -0.1347
 9470TIP3   OH249900   6.199   5.618  14.047  0.2339  0.2121 -0.3581
 9470TIP3    H149901   6.246   5.575  13.975 -0.8384  0.7993 -1.4473
 9470TIP3    H249902   6.136   5.553  14.077 -0.8812  0.7041 -1.5136
 9471TIP3   OH249903   1.026   2.652   5.226  0.2252  0.2455 -0.3793
 9471TIP3    H149904   1.092   2.683   5.288 -0.8933 -1.0965  1.5686
 9471TIP3    H249905   0.964   2.724   5.219 -0.1377  0.0710  0.8319
 9472TIP3   OH249906   0.777   2.236   0.600  0.2555  0.5651 -0.2850
 9472TIP3    H149907   0.722   2.308   0.568 -0.4512  0.4854  0.6813
 9472TIP3    H249908   0.730   2.157   0.574 -0.7919  0.5005  1.6105
 9473TIP3   OH249909   5.742   0.813  13.956 -0.1089 -0.3342 -0.2788
 9473TIP3    H149910   5.761   0.796  13.864  0.9902  1.1689 -0.3681
 9473TIP3    H249911   5.808   0.877  13.983 -0.5859 -0.5259  1.4810
 9474TIP3   OH249912   4.813   4.378  13.780  0.2012  0.2367  0.3652
 9474TIP3    H149913   4.752   4.373  13.853 -2.4836  3.4661 -1.3762
 9474TIP3    H249914   4.791   4.303  13.725 -1.0087  0.3252  0.6912
 9475TIP3   OH249915   0.828   1.450   4.725 -1.0775 -0.3070 -0.5469
 9475TIP3    H149916   0.804   1.442   4.633 -1.8043 -0.9787 -0.3098
 9475TIP3    H249917   0.783   1.529   4.755 -0.7474 -0.0242 -0.7959
 9476TIP3   OH249918   5.268   1.455   1.519  0.4115  0.5419  0.5533
 9476TIP3    H149919   5.276   1.411   1.603  0.9708  1.6217  1.0896
 9476TIP3    H249920   5.357   1.485   1.499  0.1019  1.1776  0.0833
 9477TIP3   OH249921   1.311   4.653   4.605 -0.4238  0.5250 -0.0182
 9477TIP3    H149922   1.243   4.631   4.541 -0.7553  0.2433  0.4268
 9477TIP3    H249923   1.386   4.599   4.580 -0.7588 -0.0492  0.2017
 9478TIP3   OH249924   0.016   6.055  15.745  0.1812  0.4124 -0.0282
 9478TIP3    H149925   0.107   6.077  15.724 -0.2806  1.0251 -1.4328
 9478TIP3    H249926  -0.004   6.108  15.823  1.2044 -0.2121  0.6884
 9479TIP3   OH249927   2.039   4.408  13.763 -0.4749 -0.0415  0.3195
 9479TIP3    H149928   1.997   4.479  13.716  1.9804  0.9016 -0.6550
 9479TIP3    H249929   2.089   4.450  13.832  0.5648 -0.8385  0.0875
 9480TIP3   OH249930   3.632   3.143   0.318  0.5306  0.5672 -0.7822
 9480TIP3    H149931   3.669   3.229   0.341  1.7732 -0.4395  1.3719
 9480TIP3    H249932   3.696   3.080   0.353 -0.0998 -1.2576 -2.7412
 9481TIP3   OH249933   6.510   4.340   4.279 -0.6825 -0.2676 -0.2159
 9481TIP3    H149934   6.487   4.299   4.196 -1.8614  0.5853 -0.3391
 9481TIP3    H249935   6.598   4.374   4.267 -0.6175 -0.6860 -0.9107
 9482TIP3   OH249936   5.416   4.882   3.813  0.3319  0.0149  0.6517
 9482TIP3    H149937   5.431   4.907   3.904 -0.6844  0.7505  0.6240
 9482TIP3    H249938   5.413   4.964   3.765 -1.3625 -0.2160  0.2968
 9483TIP3   OH249939   5.451   6.598   5.121  0.1159  0.0985 -0.1787
 9483TIP3    H149940   5.489   6.518   5.085 -3.2941 -1.1725 -1.4503
 9483TIP3    H249941   5.422   6.574   5.209  0.3258  0.3694 -0.0340
 9484TIP3   OH249942   2.061   2.490  16.172  0.3893  0.2960  0.6475
 9484TIP3    H149943   1.991   2.431  16.146  1.2176  0.0516 -1.2163
 9484TIP3    H249944   2.141   2.440  16.156  1.0668  1.4815  0.2090
 9485TIP3   OH249945   2.141   5.607  10.754  0.4029 -0.4194 -0.0362
 9485TIP3    H149946   2.107   5.693  10.780  3.0829  0.8523 -0.4195
 9485TIP3    H249947   2.063   5.552  10.747 -1.2523  1.4861  1.9307
 9486TIP3   OH249948   2.086   3.546  16.169 -0.5520  0.2918 -0.4584
 9486TIP3    H149949   2.167   3.549  16.118  1.1543 -3.5382  1.5687
 9486TIP3    H249950   2.024   3.499  16.114  0.9212 -2.8102  0.2966
 9487TIP3   OH249951   5.988   5.804   5.995  0.0368  0.5426  0.1681
 9487TIP3    H149952   5.944   5.719   5.990  0.4522  0.3782 -1.8447
 9487TIP3    H249953   6.045   5.798   6.071  1.1027 -1.5570 -0.7164
 9488TIP3   OH249954   1.892   4.158  13.884  0.4911  0.4278 -0.2918
 9488TIP3    H149955   1.851   4.240  13.914  1.0877  0.6665 -0.1148
 9488TIP3    H249956   1.974   4.186  13.844  0.7041 -0.0899 -0.2171
 9489TIP3   OH249957   3.820   0.119  15.726 -0.5714 -0.4212  0.6809
 9489TIP3    H149958   3.908   0.096  15.696 -0.4723  0.4703  0.2599
 9489TIP3    H249959   3.831   0.136  15.820  0.3003  2.3225  0.1728
 9490TIP3   OH249960   4.734   2.262   0.694  0.2512 -0.3391  0.5734
 9490TIP3    H149961   4.750   2.270   0.787 -1.1059  0.9648  0.7225
 9490TIP3    H249962   4.659   2.319   0.677  0.3911 -0.6464 -1.2891
 9491TIP3   OH249963   3.294   4.552   0.243 -0.9215  0.5401 -0.1792
 9491TIP3    H149964   3.217   4.574   0.190  0.2486  0.6748 -1.8773
 9491TIP3    H249965   3.335   4.636   0.262  0.3221  0.3115 -1.6830
 9492TIP3   OH249966   3.590   6.456   2.636  0.4434  0.6872 -0.2189
 9492TIP3    H149967   3.541   6.517   2.581  1.3890  1.4698 -0.2098
 9492TIP3    H249968   3.560   6.473   2.725  1.2287  1.6596 -0.1296
 9493TIP3   OH249969   6.099   1.854   1.793  0.1026 -0.3816  0.5707
 9493TIP3    H149970   6.122   1.800   1.718 -0.8563 -1.1863  0.8386
 9493TIP3    H249971   6.012   1.825   1.818  1.2638 -1.8536  3.4357
 9494TIP3   OH249972   0.893   2.081   0.175 -0.4224  0.0148 -0.1739
 9494TIP3    H149973   0.889   2.165   0.220  0.4960 -0.4317  0.7856
 9494TIP3    H249974   0.967   2.089   0.115 -0.6358  0.0533 -0.4332
 9495TIP3   OH249975   5.801   4.442  16.202  0.0322  0.1699 -0.0125
 9495TIP3    H149976   5.875   4.458  16.143 -0.9776 -1.9595 -2.0513
 9495TIP3    H249977   5.837   4.450  16.290  2.6540 -0.6525 -0.9257
 9496TIP3   OH249978   2.190   3.124  14.326 -0.1054  0.2557 -0.2943
 9496TIP3    H149979   2.120   3.098  14.386 -2.1776 -0.6725 -2.9010
 9496TIP3    H249980   2.243   3.045  14.316  0.8650  0.7043  0.9963
 9497TIP3   OH249981   0.459   0.557   5.978  0.6445 -0.1960 -0.2484
 9497TIP3    H149982   0.533   0.508   6.014  1.5803 -0.0177 -1.8473
 9497TIP3    H249983   0.388   0.493   5.973  1.0215 -0.6631  0.2468
 9498TIP3   OH249984   6.757   0.849  14.850  0.1252 -0.4634  0.2086
 9498TIP3    H149985   6.755   0.923  14.912 -1.8617  1.1922 -1.6964
 9498TIP3    H249986   6.665   0.826  14.837  0.2238  0.5816 -3.5127
 9499TIP3   OH249987   4.477   4.051   5.265  0.8522 -0.4387 -0.2637
 9499TIP3    H149988   4.422   4.117   5.307  1.6937 -0.5739  1.1227
 9499TIP3    H249989   4.419   4.007   5.203  0.4327  1.9795 -1.6924
 9500TIP3   OH249990   4.912   5.894   2.375  0.1081  0.3408  0.0652
 9500TIP3    H149991   4.989   5.855   2.333  1.0230  2.5073 -0.3756
 9500TIP3    H249992   4.843   5.888   2.309  0.5263  0.4153 -0.3848
 9501TIP3   OH249993   1.073   3.052  17.150 -0.3136 -0.1350  0.4514
 9501TIP3    H149994   1.105   3.042  17.061 -0.6220 -0.0800  0.3349
 9501TIP3    H249995   1.044   3.143  17.155  1.0835  0.3163  1.0521
 9502TIP3   OH249996   3.890   5.703  10.953  0.1104 -0.1302 -0.2547
 9502TIP3    H149997   3.978   5.665  10.956  0.2784  0.2310 -0.5570
 9502TIP3    H249998   3.831   5.628  10.961  0.4441 -0.3589  0.1416
 9503TIP3   OH249999   3.749   3.519  13.867 -0.3685  0.3711 -0.6939
 9503TIP3    H150000   3.746   3.455  13.796  1.0143 -1.3539  0.6971
 9503TIP3    H250001   3.694   3.481  13.936 -1.2314  1.7336 -0.5929
 9504TIP3   OH250002   0.447   5.290   4.144 -0.9828  0.6224  0.4914
 9504TIP3    H150003   0.424   5.360   4.082 -0.7368  0.5926  0.3658
 9504TIP3    H250004   0.385   5.300   4.216 -1.5227  0.4195  0.0632
 9505TIP3   OH250005   3.746   5.864  13.899 -0.4329  0.2374 -0.0377
 9505TIP3    H150006   3.762   5.949  13.857  0.7584  0.2035  0.3161
 9505TIP3    H250007   3.651   5.859  13.908 -0.6606  0.7054 -1.7837
 9506TIP3   OH250008   1.687   1.154  16.548 -0.0792  0.5423  0.4337
 9506TIP3    H150009   1.623   1.198  16.492  0.5852  0.1962 -0.6423
 9506TIP3    H250010   1.654   1.064  16.557  0.4491  0.2383 -0.4891
 9507TIP3   OH250011   3.781   4.918   0.860 -0.5651  0.0730  0.4436
 9507TIP3    H150012   3.819   4.900   0.774 -3.5351  1.4318 -1.3008
 9507TIP3    H250013   3.770   5.013   0.862 -2.9103 -0.1423  1.1754
 9508TIP3   OH250014   3.976   0.104   1.988  0.7145 -0.3979  0.1128
 9508TIP3    H150015   4.053   0.120   1.933  1.0004  2.8002  1.2385
 9508TIP3    H250016   3.906   0.155   1.948  0.6145  1.0075  1.9197
 9509TIP3   OH250017   3.655   1.630  14.314  0.1420  0.4160  0.0834
 9509TIP3    H150018   3.734   1.658  14.267  0.2909  1.7804  1.0610
 9509TIP3    H250019   3.603   1.710  14.322  0.4164  0.4320  2.7358
 9510TIP3   OH250020   0.042   1.853   2.018  0.6388 -0.2772 -0.5324
 9510TIP3    H150021   0.051   1.819   1.929  0.1748  0.0347 -0.7042
 9510TIP3    H250022   0.085   1.788   2.073  0.2729 -0.8509 -0.9117
 9511TIP3   OH250023   6.765   5.148   4.301  0.0763  0.0496 -0.5367
 9511TIP3    H150024   6.678   5.108   4.300 -0.1682  0.5407  0.3820
 9511TIP3    H250025   6.824   5.077   4.278 -0.6600 -0.0043 -2.4811
 9512TIP3   OH250026   3.453   1.267   5.186 -0.6501  0.4279  0.0796
 9512TIP3    H150027   3.441   1.196   5.123 -0.6595 -0.1716  0.7426
 9512TIP3    H250028   3.442   1.225   5.272  1.4854  0.7657  0.5895
 9513TIP3   OH250029   0.064   2.233   3.235  0.2990 -0.2116  0.2763
 9513TIP3    H150030   0.123   2.211   3.164 -1.6548 -3.1580 -0.6361
 9513TIP3    H250031   0.015   2.309   3.204 -1.3322 -2.1162 -2.2077
 9514TIP3   OH250032   4.545   4.730   1.032  0.7785 -0.0696  0.3948
 9514TIP3    H150033   4.464   4.689   1.063  0.7549  1.2281  2.1722
 9514TIP3    H250034   4.519   4.777   0.952  0.2387 -1.2538 -0.1510
 9515TIP3   OH250035   5.336   2.669   2.253  0.2335 -0.3539 -0.1687
 9515TIP3    H150036   5.430   2.670   2.268  0.6690  0.4658 -2.6171
 9515TIP3    H250037   5.304   2.745   2.302  1.0636  0.2385 -0.5222
 9516TIP3   OH250038   4.788   6.090   1.758  0.0652  0.0519 -0.0849
 9516TIP3    H150039   4.758   6.173   1.798  0.4030  1.0293 -1.7811
 9516TIP3    H250040   4.768   6.100   1.665  1.8699 -1.0003 -0.6185
 9517TIP3   OH250041   2.592   4.518  14.854 -0.1449  0.5621  0.1422
 9517TIP3    H150042   2.675   4.530  14.900 -0.1702 -1.7081  0.9191
 9517TIP3    H250043   2.616   4.511  14.762  0.6605 -0.7786  0.4212
 9518TIP3   OH250044   3.868   2.972  15.173 -0.6722  0.0368 -0.1315
 9518TIP3    H150045   3.816   3.013  15.241 -0.1802  2.6442 -1.1962
 9518TIP3    H250046   3.805   2.946  15.106 -0.7836  2.8861 -1.2734
 9519TIP3   OH250047   4.291   3.710   1.492  0.0237  0.0809  0.0752
 9519TIP3    H150048   4.335   3.717   1.577  1.0494 -1.7262 -0.2593
 9519TIP3    H250049   4.204   3.676   1.513  0.3353 -0.5363  0.4009
 9520TIP3   OH250050   3.398   5.323  14.363  0.4364 -0.0656  0.5113
 9520TIP3    H150051   3.476   5.368  14.394  0.8189 -1.2811  1.4048
 9520TIP3    H250052   3.423   5.287  14.278  1.0422 -0.8835  1.0228
 9521TIP3   OH250053   4.183   3.102   4.546 -0.3705 -0.6029  0.1253
 9521TIP3    H150054   4.219   3.014   4.561 -0.3652 -0.7518 -0.6789
 9521TIP3    H250055   4.202   3.119   4.453 -2.1119 -0.5687 -0.2498
 9522TIP3   OH250056   4.759   2.026   0.582 -0.2872  0.3918 -0.3285
 9522TIP3    H150057   4.750   2.112   0.623 -1.2374  0.7980 -1.3474
 9522TIP3    H250058   4.839   2.033   0.529  0.6943  0.0084  1.0400
 9523TIP3   OH250059   5.816   6.173  12.006 -0.3885  0.3811 -0.0448
 9523TIP3    H150060   5.740   6.121  12.032 -1.4701  1.6453 -0.6023
 9523TIP3    H250061   5.859   6.121  11.939  0.4896 -1.3375  1.7592
 9524TIP3   OH250062   1.468   4.755  11.717  0.1507 -0.3739 -0.3126
 9524TIP3    H150063   1.509   4.781  11.800  3.2211 -2.3628 -1.0195
 9524TIP3    H250064   1.517   4.804  11.650 -1.4993  0.3323 -1.0476
 9525TIP3   OH250065   4.629   4.639  12.066 -0.0577  0.4534  0.5538
 9525TIP3    H150066   4.675   4.708  12.018 -0.8063  0.7665  0.2831
 9525TIP3    H250067   4.537   4.664  12.063 -0.1803  0.2447  1.7737
 9526TIP3   OH250068   5.020   0.895  13.689  0.0964  0.6156 -0.0648
 9526TIP3    H150069   4.931   0.926  13.677  0.0058  0.2230 -0.4361
 9526TIP3    H250070   5.044   0.858  13.604  0.2987 -0.0678  0.2821
 9527TIP3   OH250071   1.629   1.577  11.508 -0.0152  0.2012  0.0298
 9527TIP3    H150072   1.683   1.578  11.429 -0.8099  0.5113 -0.5267
 9527TIP3    H250073   1.692   1.578  11.580  0.8241 -2.4565 -0.5256
 9528TIP3   OH250074   5.717   2.138  14.412 -0.4920  0.4201 -0.4883
 9528TIP3    H150075   5.774   2.163  14.484 -1.5709 -1.9399  1.3283
 9528TIP3    H250076   5.751   2.053  14.382 -2.3092 -0.5003 -0.0938
 9529TIP3   OH250077   5.849   4.698   0.217 -0.2757 -0.1665 -0.5407
 9529TIP3    H150078   5.771   4.743   0.183 -0.5037 -0.2886 -0.1907
 9529TIP3    H250079   5.869   4.744   0.299 -1.6195 -1.8335  0.8035
 9530TIP3   OH250080   3.517   5.217   1.508 -0.1214  0.6442  0.0481
 9530TIP3    H150081   3.578   5.234   1.435 -0.1624  0.9049  0.0743
 9530TIP3    H250082   3.527   5.123   1.525 -0.5579  0.4528 -0.7007
 9531TIP3   OH250083   4.535   5.970  13.837 -0.3693  0.1329 -0.0606
 9531TIP3    H150084   4.622   5.940  13.811  0.3954  1.5044  0.8096
 9531TIP3    H250085   4.525   5.938  13.927 -1.0597 -0.5961 -0.3880
 9532TIP3   OH250086   1.936   6.233  14.144  0.2519  0.1265 -0.1267
 9532TIP3    H150087   1.992   6.241  14.222  0.2145 -0.4510 -0.0411
 9532TIP3    H250088   1.886   6.315  14.143 -0.0973 -0.0595  0.7349
 9533TIP3   OH250089   6.516   0.804   4.877 -0.1551  0.3135  0.4294
 9533TIP3    H150090   6.515   0.739   4.806  1.0705  1.0367 -0.2776
 9533TIP3    H250091   6.520   0.751   4.957  0.0266 -0.4969 -0.0981
 9534TIP3   OH250092   4.693   3.553  11.047 -0.4714 -0.7337  0.0658
 9534TIP3    H150093   4.673   3.632  11.097  0.7044 -0.9032  0.8492
 9534TIP3    H250094   4.696   3.582  10.956 -1.0628 -0.0872  0.2458
 9535TIP3   OH250095   3.754   6.273  11.899 -0.1925  0.0126  0.1699
 9535TIP3    H150096   3.688   6.204  11.906  1.5817 -1.8873 -0.5747
 9535TIP3    H250097   3.794   6.276  11.986  0.3505 -0.5984 -0.0498
 9536TIP3   OH250098   6.561   2.547   1.464  0.1392  0.2278  0.4443
 9536TIP3    H150099   6.535   2.570   1.375 -1.9262  3.3095  1.6574
 9536TIP3    H250100   6.482   2.509   1.503  1.4018 -2.3695  0.6822
 9537TIP3   OH250101   1.027   5.062   3.834  0.6364 -0.0648 -0.1142
 9537TIP3    H150102   1.013   4.977   3.876 -1.7612 -0.1163 -0.8669
 9537TIP3    H250103   1.080   5.042   3.757  1.2509 -0.6607  0.4593
 9538TIP3   OH250104   5.988   1.703   0.454  0.7457 -0.2768 -0.1317
 9538TIP3    H150105   6.069   1.723   0.407  0.0116 -0.8490 -1.6891
 9538TIP3    H250106   5.940   1.645   0.396 -0.4052 -0.6787  1.1583
 9539TIP3   OH250107   5.225   4.108   5.237  0.3518 -0.0674 -0.4369
 9539TIP3    H150108   5.152   4.116   5.176  1.1017 -1.0695 -1.4856
 9539TIP3    H250109   5.235   4.197   5.273  1.8425  1.4060 -4.0564
 9540TIP3   OH250110   1.802   3.501  12.837 -0.0102 -0.7164  0.0585
 9540TIP3    H150111   1.758   3.440  12.895 -0.5390 -0.7269 -0.3530
 9540TIP3    H250112   1.894   3.498  12.865 -0.1228 -1.3037  0.3775
 9541TIP3   OH250113   6.595   6.037   2.698  0.9065  0.5271  0.2945
 9541TIP3    H150114   6.678   6.069   2.734  0.5616 -0.2668  1.9104
 9541TIP3    H250115   6.603   5.942   2.699  0.1474  0.4509  0.0607
 9542TIP3   OH250116   2.296   0.336  11.579  0.1659  0.3088 -0.3631
 9542TIP3    H150117   2.280   0.354  11.671 -3.7284  0.3889 -0.8724
 9542TIP3    H250118   2.367   0.273  11.578  0.6949  0.7325  2.6262
 9543TIP3   OH250119   4.565   4.483  12.708 -0.9536  0.2016 -0.1388
 9543TIP3    H150120   4.584   4.562  12.659 -1.5199  0.4388  0.0156
 9543TIP3    H250121   4.639   4.425  12.690  0.4216  1.4436  1.2064
 9544TIP3   OH250122   4.790   2.767   1.373  0.1773  0.0875 -0.5099
 9544TIP3    H150123   4.754   2.830   1.436 -0.8397 -1.3267  0.4083
 9544TIP3    H250124   4.726   2.763   1.303 -0.6720 -1.1636  0.2893
 9545TIP3   OH250125   2.420   5.277  14.975  0.7380 -0.5525 -0.0991
 9545TIP3    H150126   2.409   5.345  15.041  3.7060  0.5841 -0.6060
 9545TIP3    H250127   2.408   5.195  15.023 -1.1412  0.2368  0.9079
 9546TIP3   OH250128   3.976   3.951   4.949 -0.4299 -0.0319  0.1043
 9546TIP3    H150129   3.916   3.908   5.010 -2.0550  0.8127 -0.8173
 9546TIP3    H250130   3.955   3.911   4.864 -0.7263  1.2598 -0.4662
 9547TIP3   OH250131   5.475   2.550   4.783 -0.2135 -0.1331  0.2778
 9547TIP3    H150132   5.458   2.478   4.722  0.3428 -0.5770  0.6360
 9547TIP3    H250133   5.389   2.574   4.817 -0.3414 -1.0631  0.6343
 9548TIP3   OH250134   6.211   2.690  16.494  0.2088 -0.3217  0.3131
 9548TIP3    H150135   6.281   2.725  16.439 -0.7350  2.0474  0.4891
 9548TIP3    H250136   6.195   2.602  16.459  3.3727 -1.0915  0.4294
 9549TIP3   OH250137   3.906   3.255  14.367  0.1758  0.0341 -0.3551
 9549TIP3    H150138   3.982   3.197  14.361  0.9338  1.0984 -1.4019
 9549TIP3    H250139   3.932   3.334  14.319 -1.3370  0.6981 -0.1329
 9550TIP3   OH250140   0.696   3.459   5.208 -0.1852  0.0728  0.1802
 9550TIP3    H150141   0.783   3.471   5.245  0.4888 -0.1373 -1.2782
 9550TIP3    H250142   0.704   3.488   5.117 -1.4347 -0.7076 -0.2039
 9551TIP3   OH250143   0.142   2.755  16.113 -0.2665 -0.4533  0.4300
 9551TIP3    H150144   0.156   2.829  16.172 -0.9795  0.5449 -0.6012
 9551TIP3    H250145   0.180   2.680  16.158  3.0711  1.0164  0.3072
 9552TIP3   OH250146   0.376   4.474   1.705  0.7171 -0.1529 -0.3010
 9552TIP3    H150147   0.433   4.504   1.776  1.1820 -1.1240 -0.2467
 9552TIP3    H250148   0.436   4.431   1.644 -0.1823 -3.2635  0.8451
 9553TIP3   OH250149   6.482   1.063  15.002  0.5015  0.3606 -0.5394
 9553TIP3    H150150   6.412   1.018  14.955 -0.4820  1.9841 -0.6643
 9553TIP3    H250151   6.438   1.129  15.055  1.8666  0.7352  0.1755
 9554TIP3   OH250152   2.337   2.926   3.570 -0.3536  0.4790 -0.3494
 9554TIP3    H150153   2.249   2.888   3.561 -0.6066  1.3724 -2.5695
 9554TIP3    H250154   2.395   2.861   3.530 -0.3638  0.9448 -1.1516
 9555TIP3   OH250155   4.552   3.789  17.289  0.2747  0.7670 -0.1648
 9555TIP3    H150156   4.475   3.817  17.240 -0.7201 -0.8220  0.4186
 9555TIP3    H250157   4.580   3.709  17.245 -1.2754 -1.3130  2.3394
 9556TIP3   OH250158   0.077   1.344   3.027  0.3529  0.6963  0.3041
 9556TIP3    H150159   0.090   1.296   2.945 -1.6503 -0.4897  0.6085
 9556TIP3    H250160   0.132   1.298   3.091  0.5930  0.5436 -0.0115
 9557TIP3   OH250161   3.758   1.290   0.316 -0.1224  0.1761 -0.6703
 9557TIP3    H150162   3.752   1.312   0.224 -1.3629  0.3720 -0.5606
 9557TIP3    H250163   3.670   1.260   0.340 -0.1687  1.3285  0.7432
 9558TIP3   OH250164   5.513   6.048   3.766 -0.3339 -0.2694  0.7877
 9558TIP3    H150165   5.519   6.144   3.762  0.0835 -0.3041  0.4670
 9558TIP3    H250166   5.445   6.026   3.702  1.4725 -0.3518 -1.2321
 9559TIP3   OH250167   3.168   1.775   1.470  0.1187 -0.3078 -0.8503
 9559TIP3    H150168   3.233   1.799   1.404  1.9482  0.2887  1.0686
 9559TIP3    H250169   3.090   1.825   1.446  0.9235  0.3762 -2.1742
 9560TIP3   OH250170   4.219   1.435  12.434  0.0517 -0.0828 -0.0550
 9560TIP3    H150171   4.271   1.360  12.407  0.5917  0.0659  0.5465
 9560TIP3    H250172   4.268   1.474  12.506  0.4406  1.6182 -1.1843
 9561TIP3   OH250173   3.812   3.149   3.861  0.0952 -0.4916  0.1585
 9561TIP3    H150174   3.721   3.164   3.834  0.0850 -1.1088 -0.1699
 9561TIP3    H250175   3.858   3.229   3.836 -0.9178  1.1673  3.0921
 9562TIP3   OH250176   1.483   5.194   4.613  0.6549 -0.1596  0.2555
 9562TIP3    H150177   1.564   5.224   4.572  1.7380 -0.7223  1.9259
 9562TIP3    H250178   1.440   5.274   4.643  1.4879  0.0257  0.9752
 9563TIP3   OH250179   2.695   1.987  15.204  0.0859  0.2913  0.5811
 9563TIP3    H150180   2.746   2.061  15.172 -0.2598  0.4030  0.2818
 9563TIP3    H250181   2.603   2.014  15.194 -0.0388  0.2011  1.3560
 9564TIP3   OH250182   4.331   3.066  17.014  0.0466 -0.6411  0.3574
 9564TIP3    H150183   4.327   3.113  16.930 -0.9232 -0.0425  0.7245
 9564TIP3    H250184   4.420   3.081  17.046 -0.1893  0.8177  0.3852
 9565TIP3   OH250185   0.488   6.803   4.503  0.1885 -0.4658 -0.6912
 9565TIP3    H150186   0.526   6.773   4.585 -2.0810 -1.9327 -0.0874
 9565TIP3    H250187   0.399   6.830   4.526  0.5070  2.1612 -2.1502
 9566TIP3   OH250188   2.204   2.690   4.449 -0.1821 -0.0826 -0.1285
 9566TIP3    H150189   2.277   2.654   4.398 -0.6203 -0.6366 -0.3731
 9566TIP3    H250190   2.130   2.635   4.426 -0.8673  0.9616 -0.4767
 9567TIP3   OH250191   5.784   4.362   2.210 -0.6988 -0.0706  0.1854
 9567TIP3    H150192   5.829   4.294   2.260  1.0968 -0.1100 -1.3798
 9567TIP3    H250193   5.711   4.316   2.167  0.3699 -0.9860 -0.6950
 9568TIP3   OH250194   0.705   5.394   6.100 -0.1578 -0.0874  0.0662
 9568TIP3    H150195   0.729   5.326   6.038  0.7045 -0.2198  0.5304
 9568TIP3    H250196   0.712   5.351   6.186  0.6051  0.6474  0.3735
 9569TIP3   OH250197   6.057   6.435   6.304 -0.0687 -0.5823  0.6861
 9569TIP3    H150198   5.965   6.458   6.314 -0.3205 -1.0386 -0.5067
 9569TIP3    H250199   6.103   6.519   6.305 -0.4017 -0.3928  2.0408
 9570TIP3   OH250200   4.904   3.241  11.482 -0.5551  0.1944  1.0483
 9570TIP3    H150201   4.873   3.328  11.458 -1.2871 -0.7563 -1.7493
 9570TIP3    H250202   4.829   3.183  11.468  0.1691 -1.0463  2.0084
 9571TIP3   OH250203   5.487   6.499  16.788  0.1600  0.1856  0.4427
 9571TIP3    H150204   5.430   6.425  16.805 -0.6140  0.1856 -1.8052
 9571TIP3    H250205   5.575   6.462  16.787 -0.2577 -0.8968 -1.2285
 9572TIP3   OH250206   4.588   4.386  16.231  0.1633 -0.0872 -0.3437
 9572TIP3    H150207   4.576   4.292  16.217  1.1358 -0.4746  1.2471
 9572TIP3    H250208   4.618   4.394  16.322  0.9941  1.6958 -0.7305
 9573TIP3   OH250209   4.730   6.085  14.500  0.1102 -0.3098  0.3181
 9573TIP3    H150210   4.743   6.180  14.497 -0.5940 -0.2308 -1.7376
 9573TIP3    H250211   4.817   6.050  14.515  0.4705  0.6413  0.5454
 9574TIP3   OH250212   0.367   0.696  13.389  0.2297 -0.3995 -0.3096
 9574TIP3    H150213   0.280   0.731  13.372 -0.7333 -2.0634  0.8895
 9574TIP3    H250214   0.423   0.773  13.396 -1.6911  0.9155  1.7483
 9575TIP3   OH250215   2.626   4.227   1.621  0.6314 -0.1224  0.2720
 9575TIP3    H150216   2.631   4.140   1.581  0.4988 -0.1740  0.3655
 9575TIP3    H250217   2.533   4.249   1.619  0.4440 -0.6705  1.6886
 9576TIP3   OH250218   6.259   6.163   4.601 -0.2388 -0.3264 -0.7841
 9576TIP3    H150219   6.203   6.239   4.612 -0.4455 -0.6253  0.3335
 9576TIP3    H250220   6.316   6.185   4.527  1.8046  2.2079  1.3440
 9577TIP3   OH250221   2.751   6.592   3.837 -0.0004 -0.2464  0.0539
 9577TIP3    H150222   2.721   6.571   3.749 -1.1237  1.8563 -0.1260
 9577TIP3    H250223   2.671   6.603   3.888  0.5747  0.6148  0.8044
 9578TIP3   OH250224   5.720   5.457  16.424 -0.3379 -0.1702  0.1537
 9578TIP3    H150225   5.728   5.435  16.517 -0.5047  2.5334  0.8730
 9578TIP3    H250226   5.795   5.513  16.406 -2.0562  2.0656 -0.4188
 9579TIP3   OH250227   3.379   4.462  14.911  0.2029 -0.5134  0.5849
 9579TIP3    H150228   3.337   4.446  14.996  0.9031 -1.3045  0.7913
 9579TIP3    H250229   3.452   4.401  14.908  0.4726 -0.1648 -0.3967
 9580TIP3   OH250230   1.179   0.434  15.902  0.7242  0.5426 -0.0094
 9580TIP3    H150231   1.266   0.402  15.924 -0.1568 -1.2748  1.0920
 9580TIP3    H250232   1.185   0.529  15.913  2.3422  0.3798  0.8713
 9581TIP3   OH250233   4.459   0.486   5.404  0.6052 -0.0530 -0.6313
 9581TIP3    H150234   4.436   0.437   5.325  1.2829 -1.7282  0.1449
 9581TIP3    H250235   4.547   0.519   5.387  0.5102  0.1008 -0.8185
 9582TIP3   OH250236   0.642   5.826  13.472 -0.4238 -0.3515 -0.2468
 9582TIP3    H150237   0.679   5.845  13.558  0.3194  2.1349 -1.0348
 9582TIP3    H250238   0.574   5.892  13.459 -1.3696 -1.4438 -1.1042
 9583TIP3   OH250239   1.083   1.241  13.680 -0.5509 -0.3778  0.0297
 9583TIP3    H150240   1.156   1.276  13.729  0.6868 -0.2032 -1.8333
 9583TIP3    H250241   1.105   1.149  13.665 -1.1250 -0.5462  0.1918
 9584TIP3   OH250242   4.015   6.255   2.697 -0.0352  0.6625 -0.2677
 9584TIP3    H150243   3.987   6.340   2.662 -0.3141  0.9829  0.7209
 9584TIP3    H250244   4.110   6.259   2.696 -0.0214  0.4509 -1.4971
 9585TIP3   OH250245   2.085   1.619  10.477  0.0017  0.3989 -0.2894
 9585TIP3    H150246   2.090   1.547  10.414  1.8398  0.8924 -0.7687
 9585TIP3    H250247   2.172   1.658  10.475 -0.5155  1.6968  1.0854
 9586TIP3   OH250248   4.254   0.841  16.314  0.2100 -0.1554 -0.2536
 9586TIP3    H150249   4.243   0.921  16.263  1.1144  0.4287  0.4376
 9586TIP3    H250250   4.338   0.805  16.284 -0.1854 -0.8517 -0.5528
 9587TIP3   OH250251   6.072   6.379  16.272 -0.0658 -0.1202  0.0403
 9587TIP3    H150252   6.123   6.383  16.353 -0.6501  3.7873  0.4400
 9587TIP3    H250253   6.136   6.394  16.203  0.1815 -1.8026 -0.1421
 9588TIP3   OH250254   6.180   4.312   3.799 -0.3794  0.4328  0.2857
 9588TIP3    H150255   6.134   4.355   3.871 -1.6336  0.5484 -0.5603
 9588TIP3    H250256   6.250   4.262   3.842 -0.6305  1.0844  1.5122
 9589TIP3   OH250257   1.227   0.363  17.131  0.3327  0.1593  0.8801
 9589TIP3    H150258   1.131   0.365  17.137  0.1937  0.2347 -0.7530
 9589TIP3    H250259   1.252   0.455  17.126  0.2131  0.1310 -1.4069
 9590TIP3   OH250260   6.084   2.277   5.214 -0.0406 -0.6096  0.1214
 9590TIP3    H150261   6.103   2.259   5.306  3.1642 -0.9121 -0.4636
 9590TIP3    H250262   6.129   2.360   5.196  0.3900 -1.1255 -1.4039
 9591TIP3   OH250263   4.964   5.362   5.046  0.2908 -1.1612  0.3435
 9591TIP3    H150264   4.921   5.283   5.016  2.1419 -1.6291 -1.2918
 9591TIP3    H250265   4.900   5.432   5.033 -0.6437 -2.0943 -0.1113
 9592TIP3   OH250266   6.211   2.743  12.657  0.0177 -0.0957  0.2995
 9592TIP3    H150267   6.213   2.791  12.574 -1.2774 -2.5325 -1.2335
 9592TIP3    H250268   6.303   2.719  12.673 -0.0239 -2.1269 -2.0527
 9593TIP3   OH250269   2.635   6.478  11.669  0.7593 -0.0938  0.2463
 9593TIP3    H150270   2.673   6.537  11.734 -0.4742  0.1207  0.8047
 9593TIP3    H250271   2.691   6.487  11.592  1.0102  1.2619  0.5708
 9594TIP3   OH250272   4.297   5.543   5.127 -0.5370  0.0273 -0.2097
 9594TIP3    H150273   4.302   5.450   5.151 -0.0948  0.6016  2.2104
 9594TIP3    H250274   4.345   5.588   5.196 -0.9690  2.1023 -1.1807
 9595TIP3   OH250275   4.461   3.228  15.375 -0.1090 -0.0155  0.3788
 9595TIP3    H150276   4.388   3.210  15.435 -1.2920 -0.7773 -1.2302
 9595TIP3    H250277   4.439   3.180  15.296  2.1303 -0.1975 -0.1901
 9596TIP3   OH250278   6.699   0.035   1.804  0.5358 -0.1476 -0.1580
 9596TIP3    H150279   6.654   0.083   1.734 -1.7787  0.3110  1.5173
 9596TIP3    H250280   6.725   0.104   1.866 -0.1106 -0.7464  0.8135
 9597TIP3   OH250281   3.153   5.579   0.989 -0.0785  0.4651  0.1998
 9597TIP3    H150282   3.132   5.486   0.996 -0.4452  0.6799  3.7301
 9597TIP3    H250283   3.246   5.582   0.970 -0.3527 -0.5263 -1.6208
 9598TIP3   OH250284   6.659   2.224   4.153  0.0009  0.9084  0.3609
 9598TIP3    H150285   6.678   2.145   4.204 -0.2445  0.9178  0.4727
 9598TIP3    H250286   6.566   2.240   4.170 -0.4114  0.1828 -1.0984
 9599TIP3   OH250287   3.784   1.247  15.818  0.3413  0.7284  0.5022
 9599TIP3    H150288   3.857   1.189  15.841  0.0924  0.5336  0.8044
 9599TIP3    H250289   3.816   1.297  15.743  0.2328 -0.4287 -0.3341
 9600TIP3   OH250290   0.358   6.213  12.138  0.3688  0.0121  0.2497
 9600TIP3    H150291   0.438   6.263  12.151  0.2436  1.1734 -2.7288
 9600TIP3    H250292   0.345   6.166  12.221  2.0364  2.6965  2.1896
 9601TIP3   OH250293   1.526   4.936   4.576 -0.8489 -0.1967  0.0204
 9601TIP3    H150294   1.498   5.018   4.617 -1.1975  0.0099 -0.6251
 9601TIP3    H250295   1.486   4.937   4.490 -1.0549 -1.1655  0.0922
 9602TIP3   OH250296   3.348   3.391  11.350 -0.1231  0.5604 -0.6097
 9602TIP3    H150297   3.256   3.409  11.370 -0.4320 -0.5696 -0.9119
 9602TIP3    H250298   3.397   3.452  11.404 -1.0462  0.8469 -0.0777
 9603TIP3   OH250299   0.850   3.671   4.479  0.5993  0.0170 -0.0078
 9603TIP3    H150300   0.855   3.713   4.394 -0.2697 -0.4383 -0.2977
 9603TIP3    H250301   0.756   3.672   4.501  0.6704 -0.9626  0.3816
 9604TIP3   OH250302   2.819   5.332   4.753 -0.1382 -0.1195  0.4892
 9604TIP3    H150303   2.819   5.310   4.660 -1.1111 -0.2931  0.5141
 9604TIP3    H250304   2.778   5.419   4.756  1.0051  0.4297  0.6549
 9605TIP3   OH250305   1.280   4.567  14.230  0.0810 -0.0583  0.1943
 9605TIP3    H150306   1.290   4.628  14.157  1.4462  1.6329  1.6997
 9605TIP3    H250307   1.335   4.492  14.206  0.0977  0.2379 -0.7423
 9606TIP3   OH250308   5.564   5.694   5.578 -0.4690  0.2251 -0.4417
 9606TIP3    H150309   5.625   5.672   5.508 -0.6637 -0.8402 -0.2853
 9606TIP3    H250310   5.612   5.677   5.659 -0.1727  1.6482 -0.2850
 9607TIP3   OH250311   0.675   3.061   0.656  0.4333  0.4787  0.1000
 9607TIP3    H150312   0.594   3.023   0.624 -0.7026  1.3377  1.7912
 9607TIP3    H250313   0.667   3.154   0.637 -0.9978  1.3233  3.9186
 9608TIP3   OH250314   6.007   4.842   0.445 -0.4771  0.2088 -0.1640
 9608TIP3    H150315   6.042   4.763   0.486 -1.7171  1.0642  2.7693
 9608TIP3    H250316   6.083   4.899   0.433  0.0804 -0.5351 -0.2229
 9609TIP3   OH250317   0.019   0.151  15.611 -0.3817 -0.1518  0.0431
 9609TIP3    H150318   0.061   0.066  15.628 -0.6538 -0.4684 -0.8199
 9609TIP3    H250319   0.091   0.214  15.615 -0.4300 -0.1700  2.3942
 9610TIP3   OH250320   3.285   5.919  15.806 -0.0053  0.2240  0.3438
 9610TIP3    H150321   3.338   5.842  15.828 -0.2946  0.3882  1.6608
 9610TIP3    H250322   3.252   5.950  15.890 -0.1554  1.6050 -0.2074
 9611TIP3   OH250323   5.913   6.497  13.633  0.5721  0.0336 -0.2050
 9611TIP3    H150324   5.849   6.536  13.574  0.1779  0.4219  0.4779
 9611TIP3    H250325   5.995   6.498  13.583  0.8278  2.6534  0.1210
 9612TIP3   OH250326   1.400   6.765   5.140  0.0250 -0.3359  0.4033
 9612TIP3    H150327   1.345   6.800   5.211 -0.4384  0.5299 -0.3549
 9612TIP3    H250328   1.463   6.834   5.122 -1.9015  0.9559 -2.2141
 9613TIP3   OH250329   4.244   5.573  15.021 -0.3142 -0.4288 -0.2791
 9613TIP3    H150330   4.205   5.608  14.941  0.1354  0.7778  0.0066
 9613TIP3    H250331   4.318   5.632  15.039  0.4739 -1.5363  0.2300
 9614TIP3   OH250332   2.023   1.019   4.585  0.3274 -0.0910 -0.2347
 9614TIP3    H150333   2.004   1.095   4.530  0.4905 -0.3004 -0.5749
 9614TIP3    H250334   2.075   0.961   4.531  2.8448  0.8863  0.9844
 9615TIP3   OH250335   2.833   4.152  15.815  0.6804 -0.3054 -0.3770
 9615TIP3    H150336   2.758   4.146  15.756  0.4158 -0.9971  0.0089
 9615TIP3    H250337   2.864   4.061  15.824  1.7653  0.0095 -0.7816
 9616TIP3   OH250338   2.507   0.309   1.756  0.5923 -0.0784 -0.1801
 9616TIP3    H150339   2.419   0.295   1.791  0.9335  0.6537  0.9983
 9616TIP3    H250340   2.543   0.221   1.748 -0.9165 -0.5868 -2.5918
 9617TIP3   OH250341   5.416   3.789  13.656 -0.2327 -0.3170 -0.3993
 9617TIP3    H150342   5.398   3.868  13.708  1.2684  0.2186 -0.6446
 9617TIP3    H250343   5.407   3.818  13.565  1.5641 -0.0329 -0.5398
 9618TIP3   OH250344   1.674   6.289  12.486 -0.4613 -0.2486 -0.2247
 9618TIP3    H150345   1.617   6.284  12.410  0.0363  0.9413 -0.7079
 9618TIP3    H250346   1.623   6.252  12.558 -0.3159 -3.0961 -1.4352
 9619TIP3   OH250347   6.478   1.992  11.514 -0.2641  0.2266 -0.0446
 9619TIP3    H150348   6.407   2.053  11.492 -0.1256  0.8884  1.2527
 9619TIP3    H250349   6.442   1.939  11.585  0.9593  1.4572  1.5575
 9620TIP3   OH250350   5.768   4.196  13.117  0.0015  0.0356 -0.2039
 9620TIP3    H150351   5.826   4.262  13.156 -0.3969  0.7839 -0.8367
 9620TIP3    H250352   5.699   4.184  13.181  0.0016  0.3535 -0.1398
 9621TIP3   OH250353   6.372   1.861  11.738  0.3125 -0.1090  0.3680
 9621TIP3    H150354   6.286   1.834  11.705  0.4831 -0.0654 -0.1197
 9621TIP3    H250355   6.400   1.789  11.794  0.3390 -0.5137 -0.1585
 9622TIP3   OH250356   0.824   6.015  15.849 -0.9150 -0.2442  0.6967
 9622TIP3    H150357   0.901   6.010  15.904  0.3935 -0.1555 -1.0524
 9622TIP3    H250358   0.841   5.955  15.777 -1.6567  1.0900 -0.6660
 9623TIP3   OH250359   5.896   4.817  16.548 -0.2206  0.0143  0.2284
 9623TIP3    H150360   5.892   4.731  16.506 -1.1551  0.4751 -0.6680
 9623TIP3    H250361   5.898   4.879  16.476 -0.5450  0.7873  0.8728
 9624TIP3   OH250362   4.332   3.186   5.699 -0.2056  0.6971 -0.2937
 9624TIP3    H150363   4.417   3.180   5.656  0.1872  3.3369 -0.0547
 9624TIP3    H250364   4.345   3.247   5.772 -2.1861  0.8419  0.0126
 9625TIP3   OH250365   1.068   5.891   4.428  0.1212 -0.1448  0.3681
 9625TIP3    H150366   1.018   5.811   4.410 -0.1688 -0.0975  0.9343
 9625TIP3    H250367   1.012   5.942   4.486  1.0082 -0.2839  1.3733
 9626TIP3   OH250368   0.792   0.557  14.386 -0.1516 -0.0271  0.0740
 9626TIP3    H150369   0.726   0.577  14.320  0.8626 -0.0406 -0.9815
 9626TIP3    H250370   0.754   0.589  14.468 -1.4084  0.0574 -0.5136
 9627TIP3   OH250371   1.488   0.045  14.414  0.3384  0.0896  0.7087
 9627TIP3    H150372   1.538   0.117  14.375  2.1111 -0.4907  1.7919
 9627TIP3    H250373   1.444   0.085  14.489  0.2943  0.2883  0.5803
 9628TIP3   OH250374   2.949   5.568  14.683  0.2779  0.3023 -0.2421
 9628TIP3    H150375   2.948   5.491  14.741 -1.1015 -0.6251 -1.4194
 9628TIP3    H250376   2.966   5.532  14.596  0.6456  1.4675 -0.6614
 9629TIP3   OH250377   6.088   0.233   5.755 -0.1181  0.1584 -0.1889
 9629TIP3    H150378   6.113   0.145   5.727 -0.9530  0.1137 -0.8123
 9629TIP3    H250379   5.997   0.225   5.782 -0.0224  0.7082  0.3244
 9630TIP3   OH250380   5.147   2.945  16.956 -0.5921  0.3730 -0.1814
 9630TIP3    H150381   5.194   2.957  16.874  0.2225 -3.2200 -0.4066
 9630TIP3    H250382   5.172   3.021  17.009  1.8910  0.8932 -1.8940
 9631TIP3   OH250383   3.510   5.969   1.814  1.1276  0.1183 -0.6991
 9631TIP3    H150384   3.602   5.982   1.789  1.0259 -0.2295 -1.2686
 9631TIP3    H250385   3.488   5.883   1.778  1.1285 -0.6613  1.0236
 9632TIP3   OH250386   2.435   5.693   5.556 -0.2580 -0.2860 -0.6591
 9632TIP3    H150387   2.530   5.680   5.555 -0.3738 -1.2357 -1.1986
 9632TIP3    H250388   2.423   5.786   5.575  0.7404 -0.5027  1.3138
 9633TIP3   OH250389   0.275   6.354   1.049 -0.2074  0.3120  0.2513
 9633TIP3    H150390   0.225   6.292   0.995  0.3178  1.0521 -1.1180
 9633TIP3    H250391   0.213   6.380   1.118 -0.8323 -0.7850  0.1450
 9634TIP3   OH250392   4.927   3.122  16.734  0.3394 -0.2270 -0.0863
 9634TIP3    H150393   4.935   3.027  16.734  1.3507 -0.2889  3.9124
 9634TIP3    H250394   4.990   3.152  16.669  0.2879 -2.2281 -1.1155
 9635TIP3   OH250395   1.388   4.701  16.713  0.0641  0.5431  0.1596
 9635TIP3    H150396   1.462   4.746  16.754  0.3481 -1.2407  1.7383
 9635TIP3    H250397   1.311   4.732  16.760  0.0572  0.7852 -0.0145
 9636TIP3   OH250398   5.288   2.033   2.360  0.0052  0.4226  0.2096
 9636TIP3    H150399   5.257   1.987   2.438 -1.6352 -0.2368 -0.7709
 9636TIP3    H250400   5.210   2.041   2.305  1.3431 -0.2366 -1.8957
 9637TIP3   OH250401   5.921   5.835   3.918  0.2243  0.8386 -0.2511
 9637TIP3    H150402   5.947   5.913   3.966  0.5600  0.8774 -0.4921
 9637TIP3    H250403   5.831   5.852   3.891  0.1576  0.9653  0.0520
 9638TIP3   OH250404   5.238   5.930  11.255 -0.1797 -0.8964  0.0855
 9638TIP3    H150405   5.184   5.853  11.237  0.2472 -0.6371 -2.9996
 9638TIP3    H250406   5.319   5.913  11.207  1.6917 -0.3082  2.8044
 9639TIP3   OH250407   3.439   5.845  13.133  0.1006  0.0584  0.5560
 9639TIP3    H150408   3.344   5.844  13.133  0.1037 -0.6787  1.1876
 9639TIP3    H250409   3.463   5.911  13.199  0.0307 -0.1693  0.8080
 9640TIP3   OH250410   5.027   0.265  16.414  0.0954  0.3133  0.3585
 9640TIP3    H150411   5.099   0.288  16.472  0.5064  1.0515 -0.4133
 9640TIP3    H250412   5.057   0.187  16.368 -0.7422 -1.0227  2.0028
 9641TIP3   OH250413   0.834   1.501  11.346  0.3669 -0.3828 -0.3602
 9641TIP3    H150414   0.819   1.407  11.337 -2.3459 -0.0871  0.2589
 9641TIP3    H250415   0.814   1.521  11.437  1.8845  0.6819 -0.2134
 9642TIP3   OH250416   6.494   4.304   3.539 -0.5987  0.0463 -0.3892
 9642TIP3    H150417   6.552   4.321   3.614 -1.0550  2.5446 -0.5086
 9642TIP3    H250418   6.419   4.362   3.553 -1.0001  0.1083 -2.4672
 9643TIP3   OH250419   5.072   0.393   1.054  0.2056 -0.1928 -0.4013
 9643TIP3    H150420   5.005   0.425   0.994 -0.5987 -2.1603 -0.6278
 9643TIP3    H250421   5.066   0.450   1.131 -2.7933 -1.2197  0.2360
 9644TIP3   OH250422   1.733   1.059  12.467 -0.2546  0.2599 -0.3858
 9644TIP3    H150423   1.699   1.115  12.536  0.0277 -0.1833  0.1192
 9644TIP3    H250424   1.656   1.018  12.429 -0.2876 -2.4650  2.2067
 9645TIP3   OH250425   3.957   1.436  16.948 -0.3590  0.0099 -0.4630
 9645TIP3    H150426   4.010   1.409  17.023 -0.5669  1.4690  0.2536
 9645TIP3    H250427   4.000   1.397  16.872  1.4342  0.7165  0.1544
 9646TIP3   OH250428   4.859   5.022   4.108  0.3837 -0.4050 -0.6555
 9646TIP3    H150429   4.872   5.115   4.087  0.6931 -0.5522 -1.1261
 9646TIP3    H250430   4.831   4.983   4.025 -3.1098 -0.1112  0.2308
 9647TIP3   OH250431   6.088   5.748   2.746 -0.2737  0.1545  0.3849
 9647TIP3    H150432   6.035   5.728   2.669 -2.4445  2.2653  1.2094
 9647TIP3    H250433   6.172   5.776   2.711  0.0094 -2.2519 -1.0192
 9648TIP3   OH250434   6.303   5.736   4.155  0.0948  0.4326  0.0759
 9648TIP3    H150435   6.242   5.674   4.195  0.9272 -0.5093 -0.0871
 9648TIP3    H250436   6.342   5.782   4.229  1.7170 -1.3798  0.4313
 9649TIP3   OH250437   0.150   2.198   1.130  0.8717 -0.2927  0.0066
 9649TIP3    H150438   0.130   2.118   1.081 -1.8184 -0.1811  0.7605
 9649TIP3    H250439   0.123   2.269   1.072  2.9362  0.1394 -0.5239
 9650TIP3   OH250440   0.304   4.600   5.706  0.1385  0.1997  0.0970
 9650TIP3    H150441   0.247   4.582   5.632 -0.2258  0.8583  0.2065
 9650TIP3    H250442   0.352   4.519   5.720 -0.1564 -0.0898 -0.5377
 9651TIP3   OH250443   2.757   5.096   4.332 -0.3488 -0.1221 -0.7197
 9651TIP3    H150444   2.797   5.019   4.374  0.3586  0.5375 -0.1513
 9651TIP3    H250445   2.682   5.061   4.284  0.8775 -1.4207 -1.8097
 9652TIP3   OH250446   3.740   2.428  11.880 -0.0150 -0.2280 -0.4893
 9652TIP3    H150447   3.670   2.466  11.827  0.7450  0.4020 -1.0447
 9652TIP3    H250448   3.753   2.340  11.844  0.6323  0.2641 -1.4933
 9653TIP3   OH250449   4.840   5.042  12.109 -0.0854  0.4982  0.7093
 9653TIP3    H150450   4.926   5.035  12.149  0.9123  1.5014 -1.1408
 9653TIP3    H250451   4.817   5.135  12.117  0.0344  0.6819 -0.7402
 9654TIP3   OH250452   6.619   5.984  14.512 -0.0316 -0.1814 -0.5510
 9654TIP3    H150453   6.642   5.918  14.447  1.0704  1.2462 -1.6764
 9654TIP3    H250454   6.543   6.029  14.475  1.7678  1.9382 -1.9206
 9655TIP3   OH250455   5.875   5.496  15.856  0.0128  0.2004 -0.2943
 9655TIP3    H150456   5.832   5.445  15.787  0.1017 -0.2768 -0.0016
 9655TIP3    H250457   5.965   5.464  15.856  0.1673  0.6309 -0.3637
 9656TIP3   OH250458   5.497   2.844   5.329  0.0270  0.7624 -0.5577
 9656TIP3    H150459   5.592   2.839   5.330  0.1361  2.0995  0.8829
 9656TIP3    H250460   5.473   2.830   5.238  1.5675 -0.0082 -0.8725
 9657TIP3   OH250461   3.935   0.960   3.023  0.1742 -0.4906  0.0732
 9657TIP3    H150462   3.990   0.885   3.001  0.2656 -0.0434 -1.3419
 9657TIP3    H250463   3.910   0.997   2.938 -2.1130 -0.5255  0.6806
 9658TIP3   OH250464   6.640   1.642  11.530  0.0176  0.1129  0.2681
 9658TIP3    H150465   6.547   1.645  11.551  0.1916  2.1609  0.9872
 9658TIP3    H250466   6.652   1.559  11.483 -1.9673 -0.6327  0.9913
 9659TIP3   OH250467   5.260   2.265  12.712  0.4870 -0.2963  0.3468
 9659TIP3    H150468   5.250   2.171  12.727 -1.6515 -0.0230  0.8604
 9659TIP3    H250469   5.350   2.284  12.740  0.9913 -2.1812  0.1466
 9660TIP3   OH250470   3.816   4.703  11.893  0.0641 -0.2425  0.1753
 9660TIP3    H150471   3.775   4.617  11.889 -0.6048 -0.1927  3.2849
 9660TIP3    H250472   3.892   4.696  11.836  0.7720 -3.3575  1.3018
 9661TIP3   OH250473   3.049   0.906  16.878  0.3480  0.5584  0.0396
 9661TIP3    H150474   3.014   0.984  16.922 -1.6428 -0.2027 -0.0662
 9661TIP3    H250475   3.028   0.834  16.937  1.4289 -0.0129 -0.2512
 9662TIP3   OH250476   2.786   4.467  15.630 -0.1668 -0.3806 -0.0860
 9662TIP3    H150477   2.869   4.464  15.582 -0.3497 -1.1646 -0.3797
 9662TIP3    H250478   2.805   4.521  15.707  0.5138 -0.2443 -0.3384
 9663TIP3   OH250479   5.661   0.198   4.047  0.0270  0.2245 -0.4722
 9663TIP3    H150480   5.678   0.163   3.960 -0.3330 -0.8957 -0.1119
 9663TIP3    H250481   5.748   0.212   4.085  0.1876 -0.9963 -0.3578
 9664TIP3   OH250482   3.557   3.644   2.001  0.0870  0.5633 -0.4320
 9664TIP3    H150483   3.594   3.586   1.935  1.2184  0.1106  0.5520
 9664TIP3    H250484   3.608   3.725   1.993  2.4175 -0.5272  1.8412
 9665TIP3   OH250485   0.691   2.754   2.264 -0.0724  0.1880  0.3868
 9665TIP3    H150486   0.739   2.736   2.183 -0.5191 -0.7361  0.3083
 9665TIP3    H250487   0.757   2.788   2.324  0.1540  1.4432 -0.5412
 9666TIP3   OH250488   5.214   0.601  14.427  0.4454  0.4732 -0.2609
 9666TIP3    H150489   5.182   0.687  14.454  1.2897  1.3533 -1.9499
 9666TIP3    H250490   5.136   0.554  14.400  0.2146  1.5979 -1.6562
 9667TIP3   OH250491   2.837   1.581  16.301 -0.9746 -0.1874 -0.3194
 9667TIP3    H150492   2.912   1.533  16.266 -1.4076 -0.0725 -1.4282
 9667TIP3    H250493   2.761   1.531  16.272 -1.3532 -0.2764  0.7499
 9668TIP3   OH250494   6.051   1.259   2.343 -0.2342 -0.0205 -0.0053
 9668TIP3    H150495   6.146   1.275   2.341 -0.4866  1.5576 -1.2697
 9668TIP3    H250496   6.043   1.165   2.360  1.5547 -0.1591  0.2558
 9669TIP3   OH250497   1.419   2.778  13.324  0.2372 -0.2677 -0.3710
 9669TIP3    H150498   1.488   2.843  13.322 -0.0434  0.0224 -0.7213
 9669TIP3    H250499   1.338   2.829  13.319 -0.1036 -0.4475  1.9755
 9670TIP3   OH250500   2.266   1.909  11.209 -0.4080  0.5025 -0.1445
 9670TIP3    H150501   2.211   1.923  11.132  1.0357 -0.7051 -1.4743
 9670TIP3    H250502   2.327   1.839  11.183  1.3952  1.3874  1.4153
 9671TIP3   OH250503   1.247   5.474  16.071 -0.0062  0.1350 -0.1748
 9671TIP3    H150504   1.230   5.403  16.134  0.1519  0.3660  0.1305
 9671TIP3    H250505   1.187   5.544  16.097 -0.3493  0.0135 -0.6425
 9672TIP3   OH250506   0.201   6.804   5.513  0.2445  0.3830  0.3613
 9672TIP3    H150507   0.227   6.741   5.581  0.2570  0.3172  0.2966
 9672TIP3    H250508   0.182   6.884   5.560  0.0491  0.2768  0.4659
 9673TIP3   OH250509   3.178   5.659  11.366  0.5814  0.5933 -0.3828
 9673TIP3    H150510   3.162   5.741  11.412  0.6765  0.5409 -0.2545
 9673TIP3    H250511   3.243   5.614  11.420  1.4732  0.9794 -1.0849
 9674TIP3   OH250512   1.873   0.176   5.980 -0.2052 -0.4578 -0.7561
 9674TIP3    H150513   1.885   0.148   5.890 -0.9693  1.2664 -1.4376
 9674TIP3    H250514   1.908   0.104   6.033  0.5952 -1.3276 -2.4124
 9675TIP3   OH250515   0.730   3.258  14.908  0.0382 -0.2283  0.5477
 9675TIP3    H150516   0.782   3.277  14.986  0.6950 -1.7852  0.5121
 9675TIP3    H250517   0.790   3.211  14.850 -0.4665  0.8113 -0.8866
 9676TIP3   OH250518   5.415   6.521  10.998  0.0699  0.1471 -0.4940
 9676TIP3    H150519   5.344   6.458  10.986 -2.2769  2.4096  0.4814
 9676TIP3    H250520   5.402   6.585  10.928  3.2197 -0.9929 -2.3116
 9677TIP3   OH250521   4.765   0.005   5.945 -0.4124 -0.2903 -0.2768
 9677TIP3    H150522   4.672   0.022   5.930 -0.3662  0.6108  0.3765
 9677TIP3    H250523   4.811   0.067   5.890 -0.2070 -0.1571  0.0398
 9678TIP3   OH250524   0.578   3.675   0.980 -0.3115 -0.7317 -0.1329
 9678TIP3    H150525   0.673   3.676   0.989 -0.2681  1.0686 -0.4510
 9678TIP3    H250526   0.562   3.711   0.893 -1.3188  0.3837  0.4930
 9679TIP3   OH250527   3.903   0.854  11.435 -0.0164  0.2450  0.6428
 9679TIP3    H150528   3.833   0.793  11.414 -0.7552  0.3500  2.5997
 9679TIP3    H250529   3.982   0.811  11.403 -0.8138 -0.4493 -0.4828
 9680TIP3   OH250530   3.438   4.682  16.028  0.2184  0.5007  0.0493
 9680TIP3    H150531   3.521   4.712  16.065  0.9083 -0.5870 -0.5544
 9680TIP3    H250532   3.377   4.682  16.101  0.9431  0.6353  0.6625
 9681TIP3   OH250533   4.761   0.829   3.122  0.1763 -0.1345 -0.7183
 9681TIP3    H150534   4.710   0.910   3.119  1.5213  0.7106 -1.1559
 9681TIP3    H250535   4.720   0.773   3.056 -0.0451  0.6284 -1.2443
 9682TIP3   OH250536   0.979   2.347   1.503  0.0788 -0.1944  0.3242
 9682TIP3    H150537   0.887   2.347   1.475  0.2016 -1.4788 -0.1718
 9682TIP3    H250538   1.016   2.268   1.462  1.1975 -0.1370  1.1851
 9683TIP3   OH250539   5.820   2.487  10.950 -0.1019 -0.3029  0.2414
 9683TIP3    H150540   5.884   2.452  10.888  0.2644  3.3162 -1.6626
 9683TIP3    H250541   5.744   2.509  10.897 -2.0997 -2.1400  2.0864
 9684TIP3   OH250542   6.771   1.594  11.854  0.0751  0.3311  1.4892
 9684TIP3    H150543   6.756   1.655  11.782  0.7895 -1.2212 -0.0413
 9684TIP3    H250544   6.864   1.602  11.873  0.8425 -2.1759 -0.6435
 9685TIP3   OH250545   4.771   3.435   4.375 -0.7809  0.4763  0.0882
 9685TIP3    H150546   4.839   3.373   4.403 -2.3487 -1.8427 -0.9414
 9685TIP3    H250547   4.730   3.465   4.456  0.7063  1.0754  0.6590
 9686TIP3   OH250548   2.266   3.605  15.926  0.1788  0.3583 -0.1985
 9686TIP3    H150549   2.356   3.630  15.947  0.6735  0.1160 -1.8905
 9686TIP3    H250550   2.269   3.579  15.834 -1.8876  1.5813 -0.6711
 9687TIP3   OH250551   2.213   3.482   2.144  0.1336 -0.4765  0.2195
 9687TIP3    H150552   2.199   3.476   2.238 -0.3106 -1.1180  0.1208
 9687TIP3    H250553   2.308   3.486   2.133  0.2502 -1.7002  0.6341
 9688TIP3   OH250554   6.777   3.312   2.876  0.5883 -0.1830  0.1011
 9688TIP3    H150555   6.743   3.308   2.965 -0.6772 -1.3857 -0.3942
 9688TIP3    H250556   6.871   3.301   2.885  0.4717 -0.3002  1.2776
 9689TIP3   OH250557   0.497   1.645   5.821 -0.4406 -0.3906  0.3756
 9689TIP3    H150558   0.451   1.712   5.871  2.1054  1.8283  0.0042
 9689TIP3    H250559   0.433   1.614   5.757 -1.8435  1.4573  0.8098
 9690TIP3   OH250560   3.012   3.061  16.682  0.2159 -0.3198 -0.3267
 9690TIP3    H150561   2.926   3.101  16.691 -0.0696 -1.3352  2.3315
 9690TIP3    H250562   3.000   2.992  16.617 -0.0345  1.6795 -2.5787
 9691TIP3   OH250563   6.564   6.459  14.193 -0.2550  0.2813  0.1028
 9691TIP3    H150564   6.554   6.387  14.131  0.8916  0.8320 -0.7682
 9691TIP3    H250565   6.488   6.516  14.176  0.2137  0.5944 -1.0706
 9692TIP3   OH250566   1.544   2.333  13.193 -0.0752  0.3010  0.2077
 9692TIP3    H150567   1.549   2.316  13.099 -2.3504  0.5941 -0.0245
 9692TIP3    H250568   1.479   2.403  13.202 -1.2007 -0.8732  2.0771
 9693TIP3   OH250569   5.701   1.649  17.198  0.1555 -0.1922 -0.6720
 9693TIP3    H150570   5.608   1.672  17.199 -0.0136 -0.8414  0.2086
 9693TIP3    H250571   5.715   1.612  17.111 -0.6892 -1.1214 -0.4395
 9694TIP3   OH250572   2.567   2.103   5.276 -0.8903  0.4587 -0.1809
 9694TIP3    H150573   2.519   2.022   5.289 -0.7935  0.6374  1.6152
 9694TIP3    H250574   2.641   2.079   5.220  0.0638 -1.1071  1.6393
 9695TIP3   OH250575   2.534   5.486  13.663 -0.0929 -0.3026  0.0094
 9695TIP3    H150576   2.455   5.442  13.693 -2.2600  2.9030 -0.4533
 9695TIP3    H250577   2.525   5.490  13.568 -0.5053  1.8240  0.0746
 9696TIP3   OH250578   2.405   5.475  15.161 -0.0312 -0.0894  0.0437
 9696TIP3    H150579   2.494   5.508  15.154  0.5158 -1.0636  1.8133
 9696TIP3    H250580   2.355   5.546  15.201  0.2309  0.0484  0.1233
 9697TIP3   OH250581   5.962   2.881  11.938  0.1246 -0.3603 -0.1376
 9697TIP3    H150582   5.980   2.964  11.894 -1.0969  0.1146  0.1997
 9697TIP3    H250583   5.919   2.906  12.020  1.0396 -1.2809  0.6486
 9698TIP3   OH250584   3.408   2.036  16.593 -0.3003  0.3536 -0.2383
 9698TIP3    H150585   3.350   1.972  16.552 -0.5667  0.0743  0.5549
 9698TIP3    H250586   3.485   2.039  16.537 -1.5597  1.6372 -2.0001
 9699TIP3   OH250587   3.724   5.069   4.890  0.0315  0.2402  0.3231
 9699TIP3    H150588   3.665   4.998   4.917  0.3808 -0.6547 -1.1481
 9699TIP3    H250589   3.736   5.121   4.969 -1.4792 -0.4490  1.0515
 9700TIP3   OH250590   2.733   5.880  11.345 -0.2634 -0.3813  0.1923
 9700TIP3    H150591   2.800   5.920  11.290  0.0281 -0.6185  0.3754
 9700TIP3    H250592   2.659   5.941  11.342 -0.2615 -0.4041 -0.4886
 9701TIP3   OH250593   2.951   0.185   0.911  0.2384  0.4898 -0.0395
 9701TIP3    H150594   2.858   0.204   0.903  0.0268 -0.7683 -0.7857
 9701TIP3    H250595   2.995   0.267   0.886 -0.6493  0.9470 -0.1169
 9702TIP3   OH250596   5.983   4.505   3.645 -0.7989 -0.0286  0.1290
 9702TIP3    H150597   6.015   4.587   3.606  0.6214 -0.2335  0.8261
 9702TIP3    H250598   6.046   4.439   3.618 -2.0556 -0.9628 -0.6021
 9703TIP3   OH250599   6.555   2.411  13.102  0.3988 -0.0631 -0.2625
 9703TIP3    H150600   6.518   2.487  13.058  0.5296 -0.5902 -1.3019
 9703TIP3    H250601   6.595   2.359  13.032  0.8417 -0.7912  0.5063
 9704TIP3   OH250602   0.242   1.756   5.153 -0.6718 -0.0263 -0.6261
 9704TIP3    H150603   0.165   1.782   5.205 -0.3159 -2.4856  1.3606
 9704TIP3    H250604   0.317   1.781   5.207 -0.2366 -1.3722 -0.5705
 9705TIP3   OH250605   4.883   0.170   0.135  0.2897  0.4510  0.5905
 9705TIP3    H150606   4.864   0.252   0.180  2.4209  0.8471  0.8900
 9705TIP3    H250607   4.932   0.118   0.198 -0.9789 -1.0744  0.3841
 9706TIP3   OH250608   4.950   5.015   2.512 -0.1278 -0.5759  0.1719
 9706TIP3    H150609   5.032   5.065   2.516  0.8507 -2.1719  1.0755
 9706TIP3    H250610   4.951   4.974   2.425  0.4014 -1.1525  0.4420
 9707TIP3   OH250611   0.032   5.753  15.662 -0.4444  0.8946  0.4668
 9707TIP3    H150612   0.033   5.750  15.567  0.3645  1.8863  0.4128
 9707TIP3    H250613  -0.001   5.841  15.683 -0.0609  0.9034  1.0750
 9708TIP3   OH250614   2.411   3.289  14.280  0.4079 -0.3570 -0.1915
 9708TIP3    H150615   2.330   3.248  14.312 -0.3359 -0.0243 -1.5744
 9708TIP3    H250616   2.456   3.219  14.233  0.7287 -0.4317  0.2241
 9709TIP3   OH250617   2.338   2.669   4.751 -0.4551  0.3592 -0.1292
 9709TIP3    H150618   2.361   2.614   4.676 -0.7284  0.5276 -0.3380
 9709TIP3    H250619   2.295   2.610   4.812  2.4092 -0.5118  1.2616
 9710TIP3   OH250620   4.221   5.559   0.693 -0.3297  0.6757  0.3961
 9710TIP3    H150621   4.271   5.504   0.754 -0.1062 -0.2088 -0.5624
 9710TIP3    H250622   4.130   5.544   0.716 -0.3169 -0.8238 -0.4379
 9711TIP3   OH250623   5.667   2.948  16.834 -0.0252  0.0999  0.2451
 9711TIP3    H150624   5.592   2.936  16.892 -0.4235 -0.3076 -0.3413
 9711TIP3    H250625   5.634   3.005  16.764  0.1013 -0.3760 -0.2056
 9712TIP3   OH250626   1.716   4.143   4.932 -0.0202 -0.6456 -0.1749
 9712TIP3    H150627   1.696   4.194   4.854 -0.1399  2.0767  1.5284
 9712TIP3    H250628   1.788   4.085   4.904  0.3977  0.6907 -2.1091
 9713TIP3   OH250629   5.145   0.278  12.770 -0.4726  0.4488 -0.0755
 9713TIP3    H150630   5.060   0.277  12.812 -0.2728 -0.8060  0.3327
 9713TIP3    H250631   5.140   0.349  12.706 -1.6700  0.6536  0.2388
 9714TIP3   OH250632   5.158   1.317  12.256 -0.9674 -0.6273  0.2372
 9714TIP3    H150633   5.246   1.279  12.263 -0.9729 -0.6587  0.1262
 9714TIP3    H250634   5.173   1.408  12.233 -1.0044 -0.9560 -1.1423
 9715TIP3   OH250635   5.630   6.638  16.981 -0.5198 -0.3593  0.1906
 9715TIP3    H150636   5.685   6.713  16.959 -0.7054  0.5328  2.5170
 9715TIP3    H250637   5.576   6.624  16.903 -1.2975  2.6758  0.0587
 9716TIP3   OH250638   0.531   0.170   6.006  0.3112 -0.1903  0.0746
 9716TIP3    H150639   0.506   0.096   5.952  0.6678 -0.2862  0.0375
 9716TIP3    H250640   0.449   0.218   6.022  0.3215  0.2509 -1.1515
 9717TIP3   OH250641   3.226   5.988  11.946 -0.0841 -0.4387 -0.2251
 9717TIP3    H150642   3.167   6.053  11.910 -0.4515 -0.4824  0.2848
 9717TIP3    H250643   3.279   6.037  12.009 -0.5351 -0.6784  0.3469
 9718TIP3   OH250644   6.206   6.253   5.919  0.0922 -0.0520 -0.8499
 9718TIP3    H150645   6.244   6.223   5.836  2.2155  0.7596 -0.2340
 9718TIP3    H250646   6.136   6.191   5.937 -0.5208 -0.1649 -3.3088
 9719TIP3   OH250647   4.594   3.015  11.404  0.1693  0.1861  0.4050
 9719TIP3    H150648   4.578   3.103  11.370  1.3941  0.5499  0.7174
 9719TIP3    H250649   4.508   2.983  11.432 -0.3980  0.9932 -0.3840
 9720TIP3   OH250650   6.621   6.363   3.749 -0.2629 -0.1467 -0.2941
 9720TIP3    H150651   6.578   6.358   3.834  0.4110  1.0070  0.1282
 9720TIP3    H250652   6.549   6.366   3.686 -0.8015  0.9331  0.3498
 9721TIP3   OH250653   0.203   3.256  16.330  0.0218 -0.1556 -0.2644
 9721TIP3    H150654   0.280   3.303  16.364  0.9084 -1.4911 -0.3483
 9721TIP3    H250655   0.132   3.320  16.335  1.1412  1.1351 -0.2231
 9722TIP3   OH250656   0.618   1.509   3.139  0.1906 -0.1307 -0.2990
 9722TIP3    H150657   0.574   1.503   3.224  0.8838  0.9152  0.1504
 9722TIP3    H250658   0.589   1.431   3.092 -0.2992 -0.6681  0.8506
 9723TIP3   OH250659   5.506   3.229  14.462  0.2970 -0.1533 -0.0387
 9723TIP3    H150660   5.525   3.323  14.457 -0.7786  0.1104  0.5965
 9723TIP3    H250661   5.567   3.196  14.528 -0.3029  0.3911  0.8178
 9724TIP3   OH250662   6.609   2.417  15.677 -0.8174  0.0210 -0.4967
 9724TIP3    H150663   6.615   2.324  15.700 -0.2992  0.4828  1.3473
 9724TIP3    H250664   6.535   2.422  15.617  0.5627 -1.9095 -2.5150
 9725TIP3   OH250665   5.474   6.681   5.535  0.3244  0.6292 -0.2195
 9725TIP3    H150666   5.530   6.750   5.570  0.5767 -0.0717  0.7947
 9725TIP3    H250667   5.442   6.634   5.612 -0.1611 -0.1436 -0.8719
 9726TIP3   OH250668   2.186   3.870   4.140  0.3838  0.0080  0.1638
 9726TIP3    H150669   2.280   3.862   4.155  0.0957 -1.4361  1.4820
 9726TIP3    H250670   2.159   3.942   4.197  0.7530  0.7848 -0.6211
 9727TIP3   OH250671   6.675   1.537  11.110  0.2501  0.0712  0.6953
 9727TIP3    H150672   6.681   1.612  11.051 -1.0058 -0.1872  0.2083
 9727TIP3    H250673   6.587   1.544  11.148 -0.5604 -2.0762 -0.6493
 9728TIP3   OH250674   4.394   3.291  13.248  0.3745 -0.0808 -0.5129
 9728TIP3    H150675   4.382   3.329  13.161  0.6178 -1.3343 -1.1139
 9728TIP3    H250676   4.432   3.205  13.232  2.6762  0.5760  0.9594
 9729TIP3   OH250677   3.274   4.440  11.246 -0.2819 -0.0749  0.1721
 9729TIP3    H150678   3.257   4.407  11.158  0.4827 -0.3364  0.1168
 9729TIP3    H250679   3.188   4.443  11.288 -1.0508  2.3106 -1.3417
 9730TIP3   OH250680   5.637   5.625  16.064 -0.4726  0.1155 -0.2445
 9730TIP3    H150681   5.661   5.533  16.072 -1.7473 -0.2909 -0.7188
 9730TIP3    H250682   5.563   5.635  16.123 -0.3590  0.8312 -0.2202
 9731TIP3   OH250683   2.064   1.873  13.227 -0.3520  1.2406  0.9385
 9731TIP3    H150684   1.987   1.893  13.174 -0.5852  1.2915  1.2967
 9731TIP3    H250685   2.116   1.814  13.172  0.5872  3.1553 -0.3298
 9732TIP3   OH250686   3.555   5.112  17.238 -0.0360 -0.0514 -0.2760
 9732TIP3    H150687   3.577   5.027  17.202  3.9271  0.4923  0.4094
 9732TIP3    H250688   3.602   5.175  17.183 -2.9280  1.8287 -0.8571
 9733TIP3   OH250689   0.338   0.916   4.882 -0.8925 -0.0836 -0.2108
 9733TIP3    H150690   0.309   0.870   4.804 -0.1883 -1.1951  0.1594
 9733TIP3    H250691   0.258   0.929   4.933 -1.1767 -0.4360 -0.5596
 9734TIP3   OH250692   6.543   0.040  14.889 -0.0187  0.2741 -0.1310
 9734TIP3    H150693   6.594  -0.035  14.859 -0.7705 -0.2214 -0.1950
 9734TIP3    H250694   6.581   0.064  14.973 -1.0409 -1.4621  0.8753
 9735TIP3   OH250695   4.034   4.361   2.727  0.4486  0.5215  0.1084
 9735TIP3    H150696   4.048   4.411   2.807 -1.3602 -1.3455  1.7017
 9735TIP3    H250697   3.959   4.305   2.746  0.7574 -0.9420 -2.4537
 9736TIP3   OH250698   0.200   6.702  13.597  0.0362  0.6320 -0.0831
 9736TIP3    H150699   0.205   6.793  13.628 -1.9770  0.2826  1.5084
 9736TIP3    H250700   0.143   6.707  13.520 -0.7121  0.6516  0.4583
 9737TIP3   OH250701   4.114   3.327   1.758 -0.4571  0.1960  0.1280
 9737TIP3    H150702   4.155   3.287   1.835 -0.9984 -0.3234  0.1534
 9737TIP3    H250703   4.178   3.313   1.688  0.3448  1.2792  0.6158
 9738TIP3   OH250704   4.359   1.693   2.318  0.1161 -0.2435 -0.0151
 9738TIP3    H150705   4.424   1.764   2.319 -0.1434  0.0861 -1.9687
 9738TIP3    H250706   4.280   1.731   2.356  1.0356 -0.6925  2.5375
 9739TIP3   OH250707   6.305   4.782   4.880 -0.1500 -0.0929  0.6557
 9739TIP3    H150708   6.387   4.785   4.927 -0.2094 -1.2005  0.8525
 9739TIP3    H250709   6.306   4.698   4.835  0.0119  1.0036 -1.5378
 9740TIP3   OH250710   5.542   4.235  11.653  0.5175  0.5868 -0.1387
 9740TIP3    H150711   5.550   4.298  11.725  0.4052  0.6032 -0.1399
 9740TIP3    H250712   5.628   4.193  11.649  0.0010 -0.7074  1.2149
 9741TIP3   OH250713   5.269   3.527  16.746 -0.0151 -0.6627  0.2667
 9741TIP3    H150714   5.192   3.526  16.803  0.9449 -0.0850  1.6381
 9741TIP3    H250715   5.252   3.597  16.684 -1.0559 -1.2514 -0.1347
 9742TIP3   OH250716   4.011   6.099  14.015  0.6551 -0.0885 -0.3512
 9742TIP3    H150717   3.971   6.161  13.954  1.4594 -0.2030 -1.0261
 9742TIP3    H250718   4.105   6.120  14.012  0.4850  1.8147  3.0346
 9743TIP3   OH250719   2.926   1.749  11.631  0.4784 -0.7120 -0.5929
 9743TIP3    H150720   3.020   1.761  11.628  0.6750 -0.7465  2.2813
 9743TIP3    H250721   2.890   1.838  11.631  0.4611 -0.7052 -2.0651
 9744TIP3   OH250722   0.834   5.931  13.207  0.5674  0.0733  0.3996
 9744TIP3    H150723   0.804   5.927  13.298  0.1629  2.3922  0.4239
 9744TIP3    H250724   0.772   5.875  13.159  0.7388 -1.1023  1.5080
 9745TIP3   OH250725   0.198   0.901   3.039  0.0870  0.2100  0.2181
 9745TIP3    H150726   0.204   0.813   3.002  1.0068  0.3250  0.0594
 9745TIP3    H250727   0.137   0.947   2.981 -0.6912 -0.4224  0.5236
 9746TIP3   OH250728   4.448   5.392  16.362 -0.0306 -0.1518 -0.0369
 9746TIP3    H150729   4.446   5.392  16.266  0.3995  1.6345 -0.0950
 9746TIP3    H250730   4.530   5.348  16.384  1.3083  1.8387 -0.6512
 9747TIP3   OH250731   3.784   3.349  17.029 -0.3130  0.2859 -0.2683
 9747TIP3    H150732   3.734   3.415  17.077 -0.7647 -0.1447 -0.1397
 9747TIP3    H250733   3.719   3.284  17.004  0.3433 -0.8499  0.8758
 9748TIP3   OH250734   2.256   6.011   2.515  0.4792  0.2520 -0.1716
 9748TIP3    H150735   2.243   6.014   2.420 -1.3027  4.5256 -0.0090
 9748TIP3    H250736   2.349   6.032   2.527  1.4083 -2.9002 -0.8484
 9749TIP3   OH250737   6.735   0.771   4.458 -0.2829  0.4279  0.2907
 9749TIP3    H150738   6.662   0.718   4.489  0.4737 -1.0131 -0.3002
 9749TIP3    H250739   6.730   0.765   4.363  0.8369 -0.0351  0.2511
 9750TIP3   OH250740   4.116   2.312   4.357  0.1829 -0.2889 -0.4359
 9750TIP3    H150741   4.203   2.333   4.324  1.7661 -0.2681  3.1780
 9750TIP3    H250742   4.122   2.220   4.384 -1.2108 -0.5316 -0.8735
 9751TIP3   OH250743   2.910   2.635  11.520 -0.3323  0.1764 -0.6966
 9751TIP3    H150744   2.838   2.678  11.567  0.7417  1.2624  0.0378
 9751TIP3    H250745   2.989   2.666  11.565  0.5628 -1.9763 -0.6497
 9752TIP3   OH250746   1.121   2.569  14.681  0.4478 -0.8496 -0.0088
 9752TIP3    H150747   1.027   2.566  14.662 -0.0538  1.5230  1.6577
 9752TIP3    H250748   1.145   2.478  14.699 -1.8362 -1.3479  0.7953
 9753TIP3   OH250749   2.030   0.915  13.166 -0.7107  0.0115 -0.6006
 9753TIP3    H150750   1.944   0.945  13.137 -0.7549 -1.4333 -2.0371
 9753TIP3    H250751   2.027   0.820  13.158  0.5225 -0.1818  0.7923
 9754TIP3   OH250752   1.106   1.966   3.308  0.5606  0.2592 -0.5246
 9754TIP3    H150753   1.091   2.038   3.246 -1.4216 -0.3912 -0.8922
 9754TIP3    H250754   1.118   1.889   3.254  2.9063  0.2995 -0.1329
 9755TIP3   OH250755   6.035   4.897  16.801  1.0207 -0.3092  0.0064
 9755TIP3    H150756   6.025   4.829  16.735  1.0032  0.4641 -0.8002
 9755TIP3    H250757   5.958   4.888  16.857 -0.0684  0.3964 -1.3484
 9756TIP3   OH250758   5.763   5.203   0.731 -0.1594  0.2626 -0.4380
 9756TIP3    H150759   5.809   5.165   0.805 -1.0423  0.2365  0.1171
 9756TIP3    H250760   5.718   5.130   0.690  0.8258  0.1701 -1.3969
 9757TIP3   OH250761   0.646   6.221  13.722  0.1705  0.1731  0.2492
 9757TIP3    H150762   0.610   6.137  13.750  1.6318 -0.5001  0.2258
 9757TIP3    H250763   0.611   6.284  13.785 -0.1319 -0.6191  0.8938
 9758TIP3   OH250764   1.875   2.807   3.122  0.0798  0.2666 -0.2127
 9758TIP3    H150765   1.822   2.835   3.196  0.3484 -0.9351  0.4508
 9758TIP3    H250766   1.856   2.872   3.054 -0.9706  0.7918  0.5448
 9759TIP3   OH250767   3.520   3.390  15.058  0.1303 -0.0558  0.2293
 9759TIP3    H150768   3.479   3.367  15.141 -0.9155  1.5041  0.1912
 9759TIP3    H250769   3.595   3.445  15.083 -1.0619  1.6952  0.1542
 9760TIP3   OH250770   2.580   2.292  13.731  0.3463  0.3689 -0.0363
 9760TIP3    H150771   2.593   2.227  13.662  1.4453  0.6811 -0.1354
 9760TIP3    H250772   2.490   2.277  13.761 -0.2530  0.3876 -1.6991
 9761TIP3   OH250773   5.830   1.245   3.403  0.0567  0.5208 -0.2580
 9761TIP3    H150774   5.901   1.274   3.460  0.5193 -0.5944 -0.2367
 9761TIP3    H250775   5.766   1.207   3.462 -0.5166  1.4024 -0.2903
 9762TIP3   OH250776   2.995   5.478  14.023 -0.2418 -0.4934  0.5096
 9762TIP3    H150777   2.945   5.412  14.071 -0.9455 -1.1401 -1.0557
 9762TIP3    H250778   3.052   5.427  13.965 -0.9923  0.2536 -0.9183
 9763TIP3   OH250779   0.329   2.239  14.361  0.3694  0.2178  0.2485
 9763TIP3    H150780   0.350   2.212  14.272  2.2371 -1.1554  1.0469
 9763TIP3    H250781   0.403   2.293  14.389 -0.2935  0.8184  0.9154
 9764TIP3   OH250782   1.770   3.653   0.551  0.1141  0.1070 -0.7960
 9764TIP3    H150783   1.845   3.709   0.569 -0.7721  1.4023 -1.0437
 9764TIP3    H250784   1.696   3.697   0.594 -0.5946 -0.8890 -0.9570
 9765TIP3   OH250785   6.321   5.203  16.976  0.4600 -0.4405  0.4396
 9765TIP3    H150786   6.346   5.131  16.918  0.1595 -1.1289  1.1507
 9765TIP3    H250787   6.351   5.176  17.063 -0.6974 -0.2412  0.9117
 9766TIP3   OH250788   0.229   3.511  12.667  0.4862 -0.2521 -0.5004
 9766TIP3    H150789   0.186   3.557  12.738  2.2332  0.0171  0.4432
 9766TIP3    H250790   0.171   3.523  12.592 -1.6107 -0.8846  0.9350
 9767TIP3   OH250791   6.581   3.276   3.102  0.3192 -0.6360 -0.3926
 9767TIP3    H150792   6.497   3.250   3.065 -0.0520 -0.6087  0.4077
 9767TIP3    H250793   6.575   3.371   3.111 -0.3895 -0.8058  1.5444
 9768TIP3   OH250794   0.313   5.980   1.066 -0.5451 -0.4898  0.6424
 9768TIP3    H150795   0.396   6.000   1.022 -1.8455  0.3422 -1.6247
 9768TIP3    H250796   0.291   5.891   1.037 -0.4894 -0.6879  1.1952
 9769TIP3   OH250797   3.888   4.415   2.218  0.1453 -0.0872 -0.1151
 9769TIP3    H150798   3.947   4.483   2.187 -1.0210  1.0014 -0.0321
 9769TIP3    H250799   3.907   4.407   2.311 -0.9184  1.4318  0.2661
 9770TIP3   OH250800   5.860   0.689  13.598 -0.3333 -0.3257 -0.0231
 9770TIP3    H150801   5.769   0.720  13.589  0.3435  1.4327 -1.5471
 9770TIP3    H250802   5.903   0.757  13.648 -0.1518 -1.9647  2.1973
 9771TIP3   OH250803   6.325   4.745  12.960  0.2563 -0.4109 -0.7019
 9771TIP3    H150804   6.307   4.835  12.932  0.2973 -0.9428 -2.6207
 9771TIP3    H250805   6.303   4.744  13.053 -1.0993  1.2187 -0.9485
 9772TIP3   OH250806   6.650   2.253  17.010 -0.5323 -0.3172 -0.0946
 9772TIP3    H150807   6.695   2.307  16.945 -0.8811 -0.3616 -0.3822
 9772TIP3    H250808   6.572   2.303  17.034 -0.0345  0.0174  0.8328
 9773TIP3   OH250809   3.272   2.220  13.476  0.0412 -0.2263 -0.0413
 9773TIP3    H150810   3.205   2.287  13.488 -0.0651 -0.1723 -0.8665
 9773TIP3    H250811   3.282   2.213  13.381  0.3751 -1.0580  0.0452
 9774TIP3   OH250812   2.703   0.049  12.583 -0.2476 -0.5573 -0.0572
 9774TIP3    H150813   2.729  -0.036  12.618  0.5345 -0.8326 -1.2191
 9774TIP3    H250814   2.712   0.039  12.488  0.7467  1.0824 -0.1865
 9775TIP3   OH250815   4.512   1.610  12.326  0.1612 -0.1628  0.0892
 9775TIP3    H150816   4.428   1.626  12.368  1.1060  0.8323  1.7098
 9775TIP3    H250817   4.564   1.566  12.393  1.9631  2.1303  0.3109
 9776TIP3   OH250818   3.037   2.531  13.012 -0.8939 -0.5843  0.2160
 9776TIP3    H150819   2.961   2.506  12.958 -0.9740 -0.6606  0.3639
 9776TIP3    H250820   3.014   2.616  13.047  0.0151  0.4382 -1.5220
 9777TIP3   OH250821   2.886   2.758  13.041  0.1775 -0.5235 -0.3550
 9777TIP3    H150822   2.799   2.719  13.034 -0.3540  0.5940 -0.3144
 9777TIP3    H250823   2.895   2.810  12.961 -0.3550  1.5541  0.8604
 9778TIP3   OH250824   6.591   0.428  16.972 -0.8998 -0.1499  0.1879
 9778TIP3    H150825   6.597   0.487  16.897 -0.6871 -1.7638 -1.1312
 9778TIP3    H250826   6.564   0.484  17.045  1.6651  2.0371 -0.3724
 9779TIP3   OH250827   1.738   3.620  15.866  0.3018 -0.3109 -0.1514
 9779TIP3    H150828   1.780   3.558  15.926  0.8502 -0.1058 -0.3191
 9779TIP3    H250829   1.809   3.676  15.836 -0.2826  0.8007  0.4606
 9780TIP3   OH250830   4.074   5.415  16.182 -0.7904  0.3740 -0.2920
 9780TIP3    H150831   4.071   5.392  16.275 -1.3895  0.8458 -0.1889
 9780TIP3    H250832   3.982   5.412  16.153 -0.4090 -2.5708 -1.5679
 9781TIP3   OH250833   0.422   3.493  15.170  0.0522  0.0354 -0.4757
 9781TIP3    H150834   0.354   3.498  15.237 -2.0799  1.1901 -2.5738
 9781TIP3    H250835   0.496   3.451  15.214 -0.7581  1.7837  2.9203
 9782TIP3   OH250836   0.366   2.347  16.855 -0.3414 -0.0085 -0.4329
 9782TIP3    H150837   0.358   2.263  16.810  0.1936  0.5383 -1.5865
 9782TIP3    H250838   0.444   2.388  16.818 -1.2792  1.5272 -0.8069
 9783TIP3   OH250839   5.756   1.519  15.847 -0.1450  0.1711 -0.1694
 9783TIP3    H150840   5.800   1.591  15.801 -1.7443  1.4358  0.2064
 9783TIP3    H250841   5.800   1.441  15.814  2.7287  1.3337  0.5468
 9784TIP3   OH250842   4.641   4.987   2.361 -0.0989 -0.4965 -0.4354
 9784TIP3    H150843   4.578   5.005   2.291 -0.7823  0.0892  0.3028
 9784TIP3    H250844   4.699   4.920   2.325  0.2141  0.5226 -1.9363
 9785TIP3   OH250845   4.606   4.430   4.425  0.0884 -0.8748 -0.4233
 9785TIP3    H150846   4.643   4.515   4.401 -0.4598 -0.2472  0.8795
 9785TIP3    H250847   4.545   4.410   4.354  0.0781 -0.0945 -0.6427
 9786TIP3   OH250848   1.572   5.194   3.879 -0.1502  0.2018 -0.1072
 9786TIP3    H150849   1.502   5.130   3.868 -0.0948  0.2996 -1.0780
 9786TIP3    H250850   1.652   5.141   3.881  0.0258  0.3013 -2.3341
 9787TIP3   OH250851   0.166   6.493  15.314 -0.5157 -0.5904  0.2618
 9787TIP3    H150852   0.236   6.428  15.313 -2.6287 -3.0701  1.2554
 9787TIP3    H250853   0.187   6.549  15.389 -0.3542 -2.2892  1.5563
 9788TIP3   OH250854   4.405   4.442   5.494  0.0038  0.3583  0.0994
 9788TIP3    H150855   4.420   4.477   5.582 -0.1446 -2.6999  1.4757
 9788TIP3    H250856   4.483   4.466   5.444  1.3791 -0.1391  1.9029
 9789TIP3   OH250857   6.043   6.790  15.322 -0.1956  0.2688 -0.0047
 9789TIP3    H150858   6.006   6.769  15.236 -0.2396  0.8960 -0.1488
 9789TIP3    H250859   6.089   6.711  15.350 -0.1222  0.0873 -0.6396
 9790TIP3   OH250860   4.201   2.772  16.244 -0.1164  0.1766  0.1774
 9790TIP3    H150861   4.129   2.768  16.181 -1.0792  0.7435  1.2167
 9790TIP3    H250862   4.273   2.727  16.200 -0.6202  0.9340 -1.5044
 9791TIP3   OH250863   1.200   2.777  15.655  0.5008  0.2462  0.3610
 9791TIP3    H150864   1.280   2.744  15.697  0.7727 -1.4350 -1.3401
 9791TIP3    H250865   1.159   2.699  15.618 -0.7507  1.3854 -0.7552
 9792TIP3   OH250866   3.639   2.431   1.165  0.1153  0.2156  0.1607
 9792TIP3    H150867   3.586   2.357   1.195 -0.9489  1.1924  0.7411
 9792TIP3    H250868   3.633   2.496   1.235  2.1140  0.3668  0.2623
 9793TIP3   OH250869   4.761   2.040   2.477 -0.3337  0.5263 -0.1366
 9793TIP3    H150870   4.704   2.017   2.551  0.3131  0.1296  0.2535
 9793TIP3    H250871   4.832   2.092   2.517  0.3787 -0.2540 -0.3656
 9794TIP3   OH250872   6.463   6.808  17.156 -0.3724  0.2828  0.5327
 9794TIP3    H150873   6.479   6.899  17.132 -0.7201  0.0436 -0.6672
 9794TIP3    H250874   6.504   6.757  17.086 -2.1211 -0.4312 -0.0338
 9795TIP3   OH250875   6.356   1.398  16.833 -0.3362 -0.2924 -0.3411
 9795TIP3    H150876   6.443   1.371  16.804  0.2079 -1.6972  2.3471
 9795TIP3    H250877   6.331   1.468  16.772  3.1853  1.0532 -0.4434
 9796TIP3   OH250878   1.298   2.098  14.620  0.7003  0.3392 -0.1201
 9796TIP3    H150879   1.370   2.136  14.569  1.3350  1.2402  1.3948
 9796TIP3    H250880   1.319   2.119  14.711 -0.4890 -1.0880  0.5180
 9797TIP3   OH250881   4.366   1.611   3.646  0.1399 -0.5577 -0.0879
 9797TIP3    H150882   4.392   1.703   3.643 -1.0603 -0.2119 -0.1032
 9797TIP3    H250883   4.434   1.569   3.698  0.0665  0.5514  0.9483
 9798TIP3   OH250884   6.134   6.454  12.415 -0.4046 -0.0190 -0.4896
 9798TIP3    H150885   6.055   6.504  12.435 -0.6647 -0.6069 -0.0429
 9798TIP3    H250886   6.196   6.521  12.384 -1.0484  0.4524 -0.7981
 9799TIP3   OH250887   4.501   1.835   0.900 -0.1538 -0.5905  0.1482
 9799TIP3    H150888   4.514   1.929   0.916 -1.3638 -0.1840 -1.0789
 9799TIP3    H250889   4.510   1.795   0.987 -1.2762  0.8712  0.9845
 9800TIP3   OH250890   3.265   4.027  13.817  0.2595 -0.0047 -0.1388
 9800TIP3    H150891   3.270   4.013  13.723 -0.6181  1.6150 -0.4600
 9800TIP3    H250892   3.172   4.013  13.839  0.4985 -0.6324  0.5512
 9801TIP3   OH250893   3.970   1.760   1.097 -0.0871 -0.3299  0.0271
 9801TIP3    H150894   4.065   1.767   1.089  0.0032  1.0682  1.5383
 9801TIP3    H250895   3.940   1.725   1.014  1.5587  1.3672 -1.3647
 9802TIP3   OH250896   5.082   1.843  12.624  0.0417  0.2985  0.2685
 9802TIP3    H150897   4.993   1.826  12.656  0.0280 -0.4704 -0.1743
 9802TIP3    H250898   5.073   1.923  12.572 -0.2676  0.5723  0.7246
 9803TIP3   OH250899   5.529   2.569  11.068  0.2341  0.0647 -0.1758
 9803TIP3    H150900   5.520   2.481  11.103  1.8090 -0.4387 -0.9348
 9803TIP3    H250901   5.562   2.557  10.979  1.1724  1.4289 -0.0526
 9804TIP3   OH250902   5.574   6.040  12.054  0.3415  0.5165  0.0321
 9804TIP3    H150903   5.571   5.972  12.121  0.7237 -0.7690 -1.2048
 9804TIP3    H250904   5.483   6.059  12.035  0.2304  0.8822  0.9002
 9805TIP3   OH250905   4.269   4.382   5.090  0.6395  0.4846 -0.1119
 9805TIP3    H150906   4.237   4.459   5.042 -0.4176 -0.0110 -0.2275
 9805TIP3    H250907   4.214   4.310   5.059 -0.2729  0.1762  1.9994
 9806TIP3   OH250908   1.904   3.240  16.208 -0.3864 -0.1800  0.3458
 9806TIP3    H150909   1.971   3.202  16.264 -0.6530 -1.0077  0.1298
 9806TIP3    H250910   1.821   3.206  16.244 -0.6522  0.4156  0.3047
 9807TIP3   OH250911   3.325   6.151   0.154  0.1746  0.1796 -0.4077
 9807TIP3    H150912   3.398   6.128   0.212  1.2347 -0.3369 -1.8707
 9807TIP3    H250913   3.292   6.234   0.189  2.8984  1.6121 -0.9125
 9808TIP3   OH250914   1.202   1.751   4.372 -0.0242  0.3820  0.3814
 9808TIP3    H150915   1.155   1.784   4.295  0.1346 -1.8153 -0.7353
 9808TIP3    H250916   1.294   1.774   4.355  0.4358 -2.3763 -1.5153
 9809TIP3   OH250917   2.756   3.295  15.720 -0.1745 -0.4788  0.4355
 9809TIP3    H150918   2.703   3.304  15.799 -0.7312 -0.7053  0.1020
 9809TIP3    H250919   2.715   3.354  15.656  1.5545  1.3442  0.9338
 9810TIP3   OH250920   5.527   1.975   4.249 -0.1280 -0.8331 -0.8416
 9810TIP3    H150921   5.537   1.983   4.154  0.6233 -2.1353 -0.9027
 9810TIP3    H250922   5.484   2.056   4.276 -0.3665 -0.4479 -2.2926
 9811TIP3   OH250923   6.721   2.283  13.287 -0.4387  0.6374 -0.2122
 9811TIP3    H150924   6.639   2.312  13.247 -1.1284 -0.0411  0.6658
 9811TIP3    H250925   6.696   2.256  13.376  0.3653 -1.5177 -0.5817
 9812TIP3   OH250926   1.089   0.842   1.465  0.1197 -0.0345 -0.0853
 9812TIP3    H150927   1.095   0.754   1.501  1.3174  0.3145  0.6559
 9812TIP3    H250928   0.997   0.855   1.445 -0.4242 -0.6916  1.8044
 9813TIP3   OH250929   6.572   1.691  16.558  0.2817  0.2506  0.2546
 9813TIP3    H150930   6.544   1.745  16.485 -0.0385  0.3397  0.4437
 9813TIP3    H250931   6.492   1.654  16.594  0.4214  0.3273  0.6548
 9814TIP3   OH250932   0.873   6.623   3.197 -0.5282 -0.2171  0.0291
 9814TIP3    H150933   0.874   6.718   3.186  3.3765 -0.1500 -0.3923
 9814TIP3    H250934   0.843   6.590   3.112 -3.4939  0.4907  0.6582
 9815TIP3   OH250935   1.624   4.767  12.223 -0.5160 -0.5132  0.7028
 9815TIP3    H150936   1.658   4.706  12.157 -0.7419 -0.3325  0.4126
 9815TIP3    H250937   1.680   4.845  12.213 -1.7675  0.2682 -0.6436
 9816TIP3   OH250938   2.579   5.719  12.896  0.1527 -0.2681  0.3084
 9816TIP3    H150939   2.641   5.750  12.830  1.1118 -0.5140  1.0624
 9816TIP3    H250940   2.495   5.757  12.871  0.1055 -1.7328 -2.0364
 9817TIP3   OH250941   4.818   4.779   0.059  0.1779 -0.3873 -0.5441
 9817TIP3    H150942   4.770   4.719   0.115 -0.7591  1.1484  0.3920
 9817TIP3    H250943   4.910   4.755   0.070 -0.0525 -0.6104  1.0914
 9818TIP3   OH250944   1.826   4.513   0.127 -0.4539 -0.1169  0.5151
 9818TIP3    H150945   1.777   4.587   0.091  1.1355  0.3299 -0.8595
 9818TIP3    H250946   1.804   4.440   0.069 -1.2182 -0.4922  1.2566
 9819TIP3   OH250947   4.218   5.190   6.167  0.2035 -0.5472  0.2995
 9819TIP3    H150948   4.247   5.109   6.209 -0.4641 -0.8137  0.2682
 9819TIP3    H250949   4.122   5.186   6.173  0.1461 -0.0534 -0.2550
 9820TIP3   OH250950   5.454   1.480  16.039 -0.1746  0.1361  0.0351
 9820TIP3    H150951   5.475   1.570  16.062  0.8284 -0.2074  0.5051
 9820TIP3    H250952   5.383   1.488  15.974  0.7945  1.2972 -0.9365
 9821TIP3   OH250953   5.704   5.345  16.028  0.3428  0.1057  0.5146
 9821TIP3    H150954   5.699   5.251  16.011 -0.5761  0.0904  0.7777
 9821TIP3    H250955   5.794   5.369  16.006  0.6601 -0.8780  0.6804
 9822TIP3   OH250956   1.911   4.908   4.159  0.5207 -0.3724  0.0763
 9822TIP3    H150957   1.952   4.914   4.073  1.3347 -0.8738  0.4134
 9822TIP3    H250958   1.865   4.824   4.158  0.6414 -0.4400  0.1752
 9823TIP3   OH250959   3.849   4.252   5.179  0.0649  0.4885  0.1659
 9823TIP3    H150960   3.868   4.302   5.258 -1.0665 -0.1707  0.8773
 9823TIP3    H250961   3.932   4.248   5.133  0.7195  0.9948  1.2619
 9824TIP3   OH250962   3.606   0.575  12.028  0.4976 -0.1156  0.6007
 9824TIP3    H150963   3.652   0.654  12.001  0.6087 -0.4820 -0.3307
 9824TIP3    H250964   3.643   0.552  12.113  1.2964  0.1768  0.3379
 9825TIP3   OH250965   2.850   1.178  12.270 -0.1179 -0.0760 -0.3875
 9825TIP3    H150966   2.832   1.266  12.305 -1.2066 -0.6873  0.6696
 9825TIP3    H250967   2.850   1.190  12.175 -1.9000  0.8051 -0.3258
 9826TIP3   OH250968   3.467   5.351   2.873  0.0909  0.5022  0.8006
 9826TIP3    H150969   3.396   5.327   2.814  1.0062 -1.5604  0.4518
 9826TIP3    H250970   3.459   5.445   2.884  0.2710  1.1366 -3.1354
 9827TIP3   OH250971   0.315   3.843   4.719 -0.0524  0.5712  0.4596
 9827TIP3    H150972   0.355   3.930   4.715 -0.3091  0.6933  0.5496
 9827TIP3    H250973   0.315   3.812   4.628  0.6245  0.3988  0.5128
 9828TIP3   OH250974   6.298   3.851   3.572  0.9558 -0.4777 -0.1168
 9828TIP3    H150975   6.336   3.769   3.602  0.5608 -0.5576  0.1726
 9828TIP3    H250976   6.348   3.874   3.493  2.1840 -0.1390  0.7223
 9829TIP3   OH250977   2.633   0.641  11.690  0.3175  0.1005 -0.3585
 9829TIP3    H150978   2.577   0.640  11.768  0.1105 -0.8937 -0.5083
 9829TIP3    H250979   2.574   0.624  11.617  0.5477  0.8096 -0.7126
 9830TIP3   OH250980   0.806   0.049  17.016 -0.2976 -0.2023  0.2169
 9830TIP3    H150981   0.777   0.120  17.073 -0.5206 -0.9433  1.0392
 9830TIP3    H250982   0.730   0.032  16.959 -1.2070 -1.5129  1.7496
 9831TIP3   OH250983   2.502   0.560  16.097 -0.2607 -0.1564  0.2131
 9831TIP3    H150984   2.428   0.544  16.038 -0.8186  0.5026  0.7175
 9831TIP3    H250985   2.467   0.541  16.184  0.6579 -1.4716  0.3237
 9832TIP3   OH250986   6.205   2.882  12.436 -0.1326  0.0112 -0.0630
 9832TIP3    H150987   6.121   2.925  12.419 -0.5198 -0.7443 -0.0938
 9832TIP3    H250988   6.265   2.923  12.374 -0.5643  0.2719 -0.3162
 9833TIP3   OH250989   3.639   6.321  16.015 -0.8103 -0.4334 -0.3127
 9833TIP3    H150990   3.593   6.237  16.018 -3.1928  0.8027  1.1416
 9833TIP3    H250991   3.712   6.306  15.955 -0.7294 -3.6994  0.4153
 9834TIP3   OH250992   0.605   0.788   5.119 -0.4699  0.2809  0.7612
 9834TIP3    H150993   0.630   0.795   5.211 -0.1326  0.2744  0.6726
 9834TIP3    H250994   0.601   0.879   5.088  0.7997  0.2497  0.4265
 9835TIP3   OH250995   2.210   4.930  15.860  0.4249  0.0296 -0.3583
 9835TIP3    H150996   2.220   5.024  15.878  1.3546 -0.0700 -0.2930
 9835TIP3    H250997   2.238   4.887  15.941 -3.7072 -0.2806  1.1208
 9836TIP3   OH250998   0.079   5.031  13.648  0.2359  1.0015 -0.2588
 9836TIP3    H150999   0.145   5.076  13.700  1.3406  0.0656 -0.8278
 9836TIP3    H251000   0.066   4.948  13.692  0.6072  0.5233 -1.0393
 9837TIP3   OH251001   3.226   3.120  14.557 -0.4827  0.1378  0.1650
 9837TIP3    H151002   3.221   3.050  14.493 -2.4894  0.4804 -0.1122
 9837TIP3    H251003   3.166   3.187  14.525 -0.9080  0.6819  1.9467
 9838TIP3   OH251004   3.274   6.022  16.440  0.4409 -0.2710  0.1376
 9838TIP3    H151005   3.181   6.004  16.456  0.1717  1.8742  1.3494
 9838TIP3    H251006   3.276   6.113  16.411  2.1745 -0.3376 -0.0295
 9839TIP3   OH251007   5.505   2.583   5.637 -0.4086  0.0247  0.0246
 9839TIP3    H151008   5.465   2.523   5.575  0.9026  0.1704 -1.0083
 9839TIP3    H251009   5.465   2.668   5.618 -1.4663 -0.2927  0.7539
 9840TIP3   OH251010   1.300   6.484  16.075 -0.7228  0.2720 -0.3861
 9840TIP3    H151011   1.386   6.525  16.066 -1.4079  1.6437 -0.9840
 9840TIP3    H251012   1.312   6.419  16.144  0.9424 -0.0041 -0.8933
 9841TIP3   OH251013   4.863   4.833  11.940  0.5220 -0.6381 -0.2790
 9841TIP3    H151014   4.807   4.842  11.862  0.4831 -0.5701 -0.2428
 9841TIP3    H251015   4.856   4.917  11.985 -0.1488 -0.9709  0.2565
 9842TIP3   OH251016   4.428   2.156  16.707 -0.3402  0.4425 -0.2787
 9842TIP3    H151017   4.504   2.161  16.650 -1.4468  1.9884 -1.7194
 9842TIP3    H251018   4.406   2.063  16.709 -0.2029  0.3187 -2.3214
 9843TIP3   OH251019   5.115   1.910  15.249 -0.1068 -0.2090 -0.0763
 9843TIP3    H151020   5.090   1.834  15.302 -0.4547  0.7322  1.1635
 9843TIP3    H251021   5.074   1.894  15.164 -1.3867 -0.7266  0.6055
 9844TIP3   OH251022   1.634   2.493   4.751 -0.0923  0.2210 -0.1919
 9844TIP3    H151023   1.586   2.411   4.765  0.4476 -0.2595 -1.0828
 9844TIP3    H251024   1.715   2.482   4.801 -0.0573  0.2565 -0.2412
 9845TIP3   OH251025   0.218   1.269  13.328  0.1384 -0.4555  0.2486
 9845TIP3    H151026   0.234   1.264  13.233  0.5398 -1.5830  0.3591
 9845TIP3    H251027   0.146   1.331  13.337 -1.1667 -1.7184 -0.9644
 9846TIP3   OH251028   3.020   3.509  13.307  0.0612 -0.4398 -0.5310
 9846TIP3    H151029   3.085   3.497  13.238  1.9467  2.2278  0.6164
 9846TIP3    H251030   3.032   3.599  13.336 -1.5684 -1.0317  2.3636
 9847TIP3   OH251031   3.245   6.700   2.274 -0.0499  0.4150 -0.3796
 9847TIP3    H151032   3.306   6.758   2.228  1.8298 -0.6634  0.5913
 9847TIP3    H251033   3.195   6.658   2.205  2.8611 -1.3685 -1.6240
 9848TIP3   OH251034   1.459   2.356  12.449 -0.0456  0.7733  0.4809
 9848TIP3    H151035   1.455   2.451  12.461  0.9264  0.9362 -0.3570
 9848TIP3    H251036   1.395   2.337  12.380 -0.2802  0.8113  0.6879
 9849TIP3   OH251037   4.008   4.313  14.381 -0.3281  0.3850 -0.4343
 9849TIP3    H151038   4.091   4.324  14.335 -0.5087  1.0923 -0.6172
 9849TIP3    H251039   3.995   4.397  14.427 -1.2346  0.5224 -0.9199
 9850TIP3   OH251040   2.264   4.367   3.069 -0.1659  0.1360 -0.0871
 9850TIP3    H151041   2.258   4.431   3.140  0.0596 -0.0492  0.1019
 9850TIP3    H251042   2.289   4.419   2.992  1.4554  0.0927  0.3743
 9851TIP3   OH251043   4.684   4.686  14.267  0.5945  0.1899 -0.4186
 9851TIP3    H151044   4.648   4.774  14.280  1.5148  0.8508 -2.0299
 9851TIP3    H251045   4.772   4.702  14.233  0.5221 -1.3600 -1.4112
 9852TIP3   OH251046   5.587   3.307   5.033 -0.3928 -0.6028 -0.1987
 9852TIP3    H151047   5.586   3.375   5.101 -0.9402 -1.9302  1.1732
 9852TIP3    H251048   5.653   3.337   4.970 -0.6086  1.1806  0.3581
 9853TIP3   OH251049   3.243   6.131   2.399  0.1961 -0.0623 -0.0730
 9853TIP3    H151050   3.149   6.112   2.390  1.0794 -4.2288 -3.2051
 9853TIP3    H251051   3.253   6.219   2.362 -2.3846  0.3573  0.0472
 9854TIP3   OH251052   3.071   2.237   0.571  0.2969 -0.2068 -0.1496
 9854TIP3    H151053   3.092   2.215   0.481  0.1980  0.7056 -0.4092
 9854TIP3    H251054   3.155   2.241   0.616  0.3978 -0.0162 -0.3563
 9855TIP3   OH251055   1.621   3.564   3.090  0.1053  0.0892 -0.5934
 9855TIP3    H151056   1.599   3.540   3.000 -1.3753  1.0027 -0.5000
 9855TIP3    H251057   1.540   3.555   3.139  0.4901  1.1721  0.3027
 9856TIP3   OH251058   4.479   1.371  15.781 -0.2238  0.1313 -0.7245
 9856TIP3    H151059   4.473   1.390  15.688  0.2723 -0.5440 -0.8989
 9856TIP3    H251060   4.573   1.366  15.800 -0.3116  0.6831 -0.1013
 9857TIP3   OH251061   2.507   3.959   5.472 -0.3031  0.1166 -0.9405
 9857TIP3    H151062   2.486   3.976   5.380  1.1749  3.8683 -0.7581
 9857TIP3    H251063   2.454   4.022   5.521 -0.2677 -1.0997  0.7470
 9858TIP3   OH251064   5.593   3.811  16.002 -0.2291 -0.3608  0.5053
 9858TIP3    H151065   5.602   3.802  16.097  1.3005  1.4552  0.5984
 9858TIP3    H251066   5.684   3.815  15.970 -0.7160 -0.6402 -1.0085
 9859TIP3   OH251067   2.286   1.583   3.230 -0.3573 -0.7922  0.3466
 9859TIP3    H151068   2.199   1.545   3.221 -1.0611  0.8821 -0.2964
 9859TIP3    H251069   2.295   1.600   3.324 -1.2141  0.0760  0.2868
 9860TIP3   OH251070   1.640   0.432  11.528 -0.1128 -0.7131  0.4145
 9860TIP3    H151071   1.637   0.518  11.486  0.3812 -1.2010 -0.6663
 9860TIP3    H251072   1.606   0.447  11.616 -0.8829  0.4073 -0.0534
 9861TIP3   OH251073   5.650   3.944   2.076  0.6133  0.2880  0.0036
 9861TIP3    H151074   5.743   3.934   2.056  0.6692 -0.7392  0.6502
 9861TIP3    H251075   5.640   3.902   2.162 -0.5126  0.0483 -0.2287
 9862TIP3   OH251076   6.578   1.892  16.366  0.2003  0.4791 -0.2008
 9862TIP3    H151077   6.672   1.879  16.359  0.5051  2.1752  0.4401
 9862TIP3    H251078   6.558   1.963  16.305 -0.4186  1.0965  0.6871
 9863TIP3   OH251079   3.411   1.347  16.447  0.0354 -0.0152 -0.5290
 9863TIP3    H151080   3.494   1.302  16.463 -1.1208 -1.7694  1.0022
 9863TIP3    H251081   3.378   1.309  16.365 -0.5628 -1.4986  0.3517
 9864TIP3   OH251082   3.630   1.577  15.221 -0.4093 -0.0372  0.1475
 9864TIP3    H151083   3.715   1.535  15.234 -0.5456 -0.5245 -0.4618
 9864TIP3    H251084   3.642   1.667  15.252  0.1573 -0.2689  0.6049
 9865TIP3   OH251085   5.499   6.288   5.336  0.0270  0.2580 -0.0974
 9865TIP3    H151086   5.582   6.251   5.309 -0.2676 -0.5744  0.1072
 9865TIP3    H251087   5.520   6.376   5.367  1.2693 -0.8941  2.5843
 9866TIP3   OH251088   3.922   2.216   4.787  0.0115  0.0077  0.2316
 9866TIP3    H151089   3.872   2.211   4.705 -0.7828  0.4806  0.6747
 9866TIP3    H251090   4.003   2.168   4.769  0.0157  0.4216 -0.9579
 9867TIP3   OH251091   0.887   2.115  13.696 -0.1518 -0.2637  0.3077
 9867TIP3    H151092   0.860   2.131  13.606 -0.0134  2.6251  0.6551
 9867TIP3    H251093   0.978   2.086  13.689 -0.6183 -1.5706 -0.5198
 9868TIP3   OH251094   0.591   2.849  16.086  0.0991 -0.1964  0.1630
 9868TIP3    H151095   0.498   2.857  16.067 -0.2061 -1.1126  1.1729
 9868TIP3    H251096   0.624   2.939  16.082 -1.1764  0.3762  1.4500
 9869TIP3   OH251097   3.073   3.797  15.111 -0.4477 -0.0679 -0.7023
 9869TIP3    H151098   3.040   3.884  15.133  0.8680  0.6532 -1.4876
 9869TIP3    H251099   3.155   3.789  15.161 -0.1505 -0.5193 -1.2553
 9870TIP3   OH251100   2.113   0.469   0.168  0.3812  0.9314 -0.5859
 9870TIP3    H151101   2.157   0.471   0.253  1.0193  1.2799 -0.9208
 9870TIP3    H251102   2.064   0.387   0.168  2.0586 -0.1211 -0.7135
 9871TIP3   OH251103   1.149   0.761   1.086 -0.5792 -0.4877 -0.0211
 9871TIP3    H151104   1.121   0.702   1.156 -0.4970 -2.8579 -1.8609
 9871TIP3    H251105   1.071   0.774   1.032 -0.1304 -0.4795 -0.6861
 9872TIP3   OH251106   0.485   4.831  15.081 -0.6354  0.3169 -0.5778
 9872TIP3    H151107   0.508   4.914  15.122  1.3057  0.7713 -2.4263
 9872TIP3    H251108   0.391   4.823  15.096 -1.0084  3.1284 -0.7976
 9873TIP3   OH251109   5.701   1.232  16.696  0.6619 -0.7271 -0.4852
 9873TIP3    H151110   5.746   1.148  16.691  0.6096 -0.6838 -2.3370
 9873TIP3    H251111   5.618   1.217  16.651  1.7316  0.9297 -3.2725
 9874TIP3   OH251112   4.705   2.928   0.043  0.2944 -0.8344  0.0524
 9874TIP3    H151113   4.664   2.999  -0.005 -1.3993 -1.0092  1.1523
 9874TIP3    H251114   4.780   2.968   0.087  2.2331 -0.7601 -2.9752
 9875TIP3   OH251115   3.543   5.305   6.649  0.2834  0.5353 -0.2533
 9875TIP3    H151116   3.599   5.243   6.696 -0.0310  0.0309 -0.5268
 9875TIP3    H251117   3.588   5.389   6.657  1.2730  0.0733 -0.7899
 9876TIP3   OH251118   1.719   3.822   0.914  0.3488 -0.5470  0.6539
 9876TIP3    H151119   1.806   3.811   0.874  0.2585  0.1496  0.2435
 9876TIP3    H251120   1.704   3.741   0.962  0.3393 -1.5402 -0.9625
 9877TIP3   OH251121   0.340   3.339   4.757 -0.8417 -0.3255  0.5932
 9877TIP3    H151122   0.299   3.260   4.794 -0.2928 -0.2154  1.4699
 9877TIP3    H251123   0.434   3.326   4.772 -0.5715 -0.3605 -0.9550
 9878TIP3   OH251124   1.078   2.299  14.718  0.1034 -0.6878 -0.5913
 9878TIP3    H151125   1.014   2.310  14.788  1.0219 -0.6822  0.2686
 9878TIP3    H251126   1.102   2.207  14.722  0.5708 -0.5640 -0.5312
 9879TIP3   OH251127   4.606   3.162  13.887  0.5198  0.7319  0.0123
 9879TIP3    H151128   4.586   3.189  13.797  3.1729 -0.3923 -1.0113
 9879TIP3    H251129   4.677   3.098  13.878  0.4429  0.1126  2.8889
 9880TIP3   OH251130   1.210   2.104   6.783 -0.3894  0.4142 -0.3796
 9880TIP3    H151131   1.178   2.170   6.721 -0.0686  1.4545  0.5370
 9880TIP3    H251132   1.296   2.079   6.750  0.3772  1.9754  0.3692
 9881TIP3   OH251133   1.312   6.502   4.798 -0.2876  0.1577 -0.4265
 9881TIP3    H151134   1.300   6.537   4.710  0.5197  0.9346 -0.2413
 9881TIP3    H251135   1.234   6.530   4.846 -0.2767  0.5683 -0.6433
 9882TIP3   OH251136   3.328   4.258   5.708  0.3970  0.0414  0.4855
 9882TIP3    H151137   3.376   4.181   5.736  1.7911  0.0250 -1.7253
 9882TIP3    H251138   3.284   4.232   5.628  2.3786  1.9167 -1.3702
 9883TIP3   OH251139   0.626   1.432  12.163 -0.1029  0.2395 -0.1541
 9883TIP3    H151140   0.558   1.379  12.122  3.2966 -3.4188 -1.7209
 9883TIP3    H251141   0.657   1.490  12.093  1.7638 -1.8662 -1.1923
 9884TIP3   OH251142   5.202   1.971  10.829 -0.2234 -0.3917 -0.6075
 9884TIP3    H151143   5.205   1.881  10.796 -0.3650 -0.6767  0.1364
 9884TIP3    H251144   5.261   2.019  10.771 -1.2291 -0.6536 -1.9119
 9885TIP3   OH251145   5.471   5.499  16.943 -0.0345 -0.3678 -0.1119
 9885TIP3    H151146   5.430   5.584  16.923 -0.6882 -0.9245 -1.2181
 9885TIP3    H251147   5.400   5.445  16.975  0.2715 -0.6858  0.0331
 9886TIP3   OH251148   0.241   5.690   3.307 -0.2492 -0.3628  0.5936
 9886TIP3    H151149   0.317   5.632   3.309 -0.8069 -1.0955  2.1112
 9886TIP3    H251150   0.250   5.745   3.385  1.2918  3.0588 -1.7628
 9887TIP3   OH251151   6.625   5.726  14.664 -0.5009 -0.4512  0.0689
 9887TIP3    H151152   6.540   5.686  14.644 -0.7258  0.9215 -2.0569
 9887TIP3    H251153   6.603   5.817  14.688  0.3648  0.1274 -1.2253
 9888TIP3   OH251154   4.603   3.957   5.499  0.0912 -0.0695 -0.2591
 9888TIP3    H151155   4.543   3.975   5.426  1.3691  0.2076 -1.2895
 9888TIP3    H251156   4.599   3.862   5.511 -0.5659 -0.0506 -0.2974
 9889TIP3   OH251157   1.536   0.845   3.186  0.1486 -0.1778 -0.0657
 9889TIP3    H151158   1.573   0.928   3.218 -1.8792  0.3489  1.0632
 9889TIP3    H251159   1.565   0.841   3.095  0.7617  1.4914  0.0057
 9890TIP3   OH251160   3.583   2.734   3.439 -0.4606  0.1038 -0.0829
 9890TIP3    H151161   3.555   2.795   3.507 -0.9095  1.5775 -1.5214
 9890TIP3    H251162   3.532   2.760   3.362  0.0927 -1.4543 -1.0139
 9891TIP3   OH251163   6.138   4.429   5.121 -0.1811  0.0117  0.1737
 9891TIP3    H151164   6.070   4.484   5.159  0.0125 -0.0535  0.6139
 9891TIP3    H251165   6.170   4.376   5.193  0.2975  0.0018 -0.0398
 9892TIP3   OH251166   4.713   5.422  13.386 -0.4457  0.2761  0.2272
 9892TIP3    H151167   4.787   5.482  13.379  0.5764 -1.0696 -4.7185
 9892TIP3    H251168   4.748   5.346  13.432  1.1394  0.0003 -1.3156
 9893TIP3   OH251169   6.066   0.491   0.935 -0.1259  0.3707 -0.0219
 9893TIP3    H151170   6.033   0.573   0.899 -0.1320  1.4143  2.1955
 9893TIP3    H251171   6.146   0.473   0.885 -0.4642  1.3798 -0.9532
 9894TIP3   OH251172   6.233   0.416   5.273 -0.1902  0.4598  0.3654
 9894TIP3    H151173   6.228   0.326   5.240  1.6685  0.0449  1.1137
 9894TIP3    H251174   6.212   0.410   5.366 -2.0412  1.1354  0.0371
 9895TIP3   OH251175   2.447   6.382   2.520  0.0486  0.0034 -0.7585
 9895TIP3    H151176   2.530   6.335   2.522 -0.1091 -0.2644  0.3798
 9895TIP3    H251177   2.425   6.394   2.613 -0.8859  0.5893 -1.0495
 9896TIP3   OH251178   4.737   5.806   5.911  0.1866  0.0832  0.1826
 9896TIP3    H151179   4.780   5.865   5.849 -0.3650  0.8972  0.5524
 9896TIP3    H251180   4.761   5.840   5.997  1.2685 -1.2692  0.4618
 9897TIP3   OH251181   5.253   6.653  16.888 -0.2674  0.5412 -0.2508
 9897TIP3    H151182   5.189   6.595  16.930  0.7492 -1.6263 -1.4717
 9897TIP3    H251183   5.329   6.597  16.873  0.7747  2.2065 -1.5883
 9898TIP3   OH251184   3.584   5.232   0.168  0.2010  0.0461  0.0894
 9898TIP3    H151185   3.570   5.325   0.182  0.1728  0.1049 -0.3140
 9898TIP3    H251186   3.523   5.208   0.099 -0.0744 -0.3606  0.4649
 9899TIP3   OH251187   3.930   3.702  11.946 -0.3686 -0.2896  0.0351
 9899TIP3    H151188   3.949   3.794  11.932  0.5745 -0.1067  2.0679
 9899TIP3    H251189   3.984   3.678  12.022 -0.4486 -2.5537 -0.5400
 9900TIP3   OH251190   3.033   2.755   3.541 -0.2948 -0.3293 -0.2256
 9900TIP3    H151191   3.005   2.666   3.558  0.0443 -0.2711  0.6756
 9900TIP3    H251192   3.023   2.800   3.625  0.5835  0.1986 -0.3904
 9901TIP3   OH251193   0.584   1.564  14.333 -0.5215  0.2358  0.2861
 9901TIP3    H151194   0.518   1.591  14.268 -1.4487 -1.7278  0.3273
 9901TIP3    H251195   0.586   1.469  14.326 -1.4238 -0.1750  3.8701
 9902TIP3   OH251196   3.813   3.428  13.422 -0.2669 -0.6388  0.3060
 9902TIP3    H151197   3.758   3.494  13.463 -0.3102  0.2028 -1.0440
 9902TIP3    H251198   3.812   3.450  13.329  0.1330 -2.2494 -0.1164
 9903TIP3   OH251199   0.996   4.993   2.650 -0.2504  0.3477  0.3508
 9903TIP3    H151200   0.953   5.070   2.614 -0.6713 -0.5041 -1.0227
 9903TIP3    H251201   0.933   4.922   2.637  0.8114 -0.5601  0.0197
 9904TIP3   OH251202   5.008   5.444   1.608 -0.2757 -0.0480 -0.0722
 9904TIP3    H151203   4.919   5.425   1.578 -0.3148 -0.7159  0.4651
 9904TIP3    H251204   4.996   5.503   1.682 -0.2250  0.6169 -0.5802
 9905TIP3   OH251205   2.377   5.718   5.248  0.1769 -0.4778  0.4776
 9905TIP3    H151206   2.425   5.645   5.288  2.3426  0.0584 -0.9648
 9905TIP3    H251207   2.349   5.684   5.163  0.7238  0.1560  0.0286
 9906TIP3   OH251208   5.209   6.152   1.208 -0.4821  0.1153 -0.8784
 9906TIP3    H151209   5.161   6.072   1.187 -1.9970  0.8604 -0.3385
 9906TIP3    H251210   5.146   6.223   1.194  1.2915  1.4253 -3.0188
 9907TIP3   OH251211   4.819   4.244   3.909 -0.2124 -0.4942 -0.3641
 9907TIP3    H151212   4.800   4.325   3.956  1.2692 -0.2653 -0.0950
 9907TIP3    H251213   4.892   4.205   3.957  0.3471 -1.0204 -1.5865
 9908TIP3   OH251214   3.191   4.429  15.112  0.3784 -0.1914 -0.0642
 9908TIP3    H151215   3.175   4.522  15.096 -0.4848 -0.5255 -1.2423
 9908TIP3    H251216   3.105   4.392  15.131  0.5716 -0.9243 -0.5711
 9909TIP3   OH251217   5.465   6.352   0.982  0.1509  0.6877  0.1075
 9909TIP3    H151218   5.499   6.415   1.046 -2.0773  0.1444  1.9370
 9909TIP3    H251219   5.374   6.379   0.968 -0.4014 -1.2192 -0.2249
 9910TIP3   OH251220   2.712   5.561   1.761 -0.5262 -0.0169  0.2823
 9910TIP3    H151221   2.673   5.648   1.750  0.7591  0.4999 -0.4835
 9910TIP3    H251222   2.659   5.519   1.829 -0.6773  1.6806  1.2734
 9911TIP3   OH251223   5.860   2.136  12.347  0.0993  0.3620 -0.3345
 9911TIP3    H151224   5.907   2.219  12.352 -1.7750  1.9200 -4.1673
 9911TIP3    H251225   5.800   2.137  12.421  0.9170  1.8603  0.3347
 9912TIP3   OH251226   0.618   2.517   1.066 -0.2214 -0.4068 -0.0362
 9912TIP3    H151227   0.640   2.531   1.158  0.1827  1.8504 -0.4052
 9912TIP3    H251228   0.523   2.507   1.066 -0.2874  0.0838  0.6058
 9913TIP3   OH251229   5.427   2.381   1.924  0.0293 -0.0624 -0.5873
 9913TIP3    H151230   5.481   2.422   1.857  0.4528  0.1379 -0.1297
 9913TIP3    H251231   5.477   2.391   2.005  0.0987 -1.3896 -0.4489
 9914TIP3   OH251232   2.925   1.710   6.284  0.3491 -0.8344 -0.0257
 9914TIP3    H151233   2.885   1.769   6.348  0.5778 -0.5563 -0.1347
 9914TIP3    H251234   3.007   1.682   6.324  1.5997  1.0929 -1.0768
 9915TIP3   OH251235   6.108   5.052  12.492  0.0285  0.3441 -0.1544
 9915TIP3    H151236   6.094   4.977  12.549 -1.3379  1.1610  0.6551
 9915TIP3    H251237   6.022   5.070  12.454  0.6296  0.6470 -1.4386
 9916TIP3   OH251238   3.793   6.771  14.488 -0.6967  0.4852  0.0967
 9916TIP3    H151239   3.789   6.692  14.434 -0.3496  0.4444  0.1252
 9916TIP3    H251240   3.704   6.783  14.520 -1.1823  1.2264 -1.4808
 9917TIP3   OH251241   0.138   2.110   3.770 -0.7285  0.6905 -0.0826
 9917TIP3    H151242   0.137   2.204   3.787 -3.9600  0.5709  1.1731
 9917TIP3    H251243   0.111   2.101   3.679  0.7817  0.9225 -0.5958
 9918TIP3   OH251244   0.743   4.828   2.688  0.8538 -0.3519 -0.3744
 9918TIP3    H151245   0.737   4.733   2.685  1.5779 -0.5789  2.5110
 9918TIP3    H251246   0.723   4.856   2.599  2.2578 -3.2544 -1.7252
 9919TIP3   OH251247   6.330   6.600   4.050  0.1604  0.2913  0.3131
 9919TIP3    H151248   6.258   6.578   3.991 -0.0004 -0.8677  0.9065
 9919TIP3    H251249   6.378   6.669   4.005 -1.4812  1.3086  0.0171
 9920TIP3   OH251250   1.200   2.822   5.630 -0.6112  0.0421  0.6803
 9920TIP3    H151251   1.120   2.816   5.684 -0.9437 -0.5136  0.1431
 9920TIP3    H251252   1.251   2.745   5.655 -0.0900  0.5647  1.2498
 9921TIP3   OH251253   0.962   5.280  16.119  0.2575  0.0796  0.5862
 9921TIP3    H151254   0.894   5.298  16.183  0.2941 -0.7080  0.8528
 9921TIP3    H251255   1.044   5.284  16.169  0.4638  1.3624  0.2034
 9922TIP3   OH251256   1.129   3.938  14.138  0.3116 -0.1217 -0.4147
 9922TIP3    H151257   1.199   3.988  14.097 -0.0321  0.9457  0.2663
 9922TIP3    H251258   1.056   4.000  14.146 -0.2800 -0.8551  0.0323
 9923TIP3   OH251259   2.786   3.669  14.952 -0.2691  0.0124 -0.2988
 9923TIP3    H151260   2.850   3.608  14.988 -0.0287 -0.0792 -0.8698
 9923TIP3    H251261   2.772   3.733  15.022 -1.0506 -1.0682  0.5849
 9924TIP3   OH251262   4.630   5.992  11.077 -0.4128 -0.0270  0.5447
 9924TIP3    H151263   4.661   6.073  11.038 -1.2854 -0.6292 -1.5412
 9924TIP3    H251264   4.710   5.942  11.095  0.0188  0.3384 -0.3404
 9925TIP3   OH251265   3.877   4.290  13.199  0.1751  0.3688 -0.5079
 9925TIP3    H151266   3.949   4.302  13.136  0.7150 -1.0728 -0.1988
 9925TIP3    H251267   3.920   4.264  13.280 -0.6506  0.2990 -0.0859
 9926TIP3   OH251268   6.816   1.177   1.753 -0.3076  0.2249  0.7053
 9926TIP3    H151269   6.853   1.089   1.759 -0.9063 -0.1082 -0.1332
 9926TIP3    H251270   6.726   1.166   1.784 -0.6410  0.3507 -0.1849
 9927TIP3   OH251271   5.730   2.687   1.056 -0.3116  0.2076  0.4842
 9927TIP3    H151272   5.664   2.721   1.117  0.0078 -1.8984  2.1169
 9927TIP3    H251273   5.699   2.600   1.032  0.6271  0.1877 -0.7655
 9928TIP3   OH251274   2.553   0.437  14.187  0.2758 -0.1015 -0.6347
 9928TIP3    H151275   2.463   0.416  14.164  0.5010 -0.8689 -0.8305
 9928TIP3    H251276   2.590   0.475  14.108 -0.9816  4.0761  0.5030
 9929TIP3   OH251277   0.152   0.606   2.141  0.0352 -0.0451  0.0052
 9929TIP3    H151278   0.099   0.537   2.180  1.5111 -0.1289  2.0172
 9929TIP3    H251279   0.152   0.586   2.047 -0.4427 -2.1591  0.4054
 9930TIP3   OH251280   5.913   3.495  10.764  0.1897 -0.8908 -0.0737
 9930TIP3    H151281   5.926   3.401  10.751 -1.5982 -0.9118 -2.1355
 9930TIP3    H251282   5.838   3.518  10.709  2.0607  2.2260 -1.6362
 9931TIP3   OH251283   3.526   2.284   6.233  0.2060  0.0473  0.2858
 9931TIP3    H151284   3.508   2.217   6.167 -1.2714  0.7434 -0.0620
 9931TIP3    H251285   3.562   2.357   6.183 -0.1589  0.2793  0.3612
 9932TIP3   OH251286   6.049   3.518   5.376 -0.0904 -0.0509  0.1737
 9932TIP3    H151287   5.972   3.514   5.320 -0.7486  1.7600  0.8917
 9932TIP3    H251288   6.015   3.533   5.464  1.0664  0.8158  0.5043
 9933TIP3   OH251289   0.291   1.199   1.926 -0.3643 -0.1866  0.3884
 9933TIP3    H151290   0.320   1.151   1.849  0.5794  1.1612 -0.1384
 9933TIP3    H251291   0.294   1.291   1.900 -0.9232  0.2453  1.7423
 9934TIP3   OH251292   2.628   0.876   5.638 -0.1349  0.3241 -0.0256
 9934TIP3    H151293   2.651   0.800   5.584  0.7008  0.4788  0.1040
 9934TIP3    H251294   2.556   0.844   5.692  0.6986 -0.6301  0.5656
 9935TIP3   OH251295   0.085   3.881   6.409  0.0157  0.5127  0.2845
 9935TIP3    H151296   0.177   3.883   6.382 -0.0781 -1.3933 -0.3790
 9935TIP3    H251297   0.056   3.792   6.386 -2.2026  1.3100 -0.2276
 9936TIP3   OH251298   3.498   0.281  15.011 -0.8607  0.2419  0.2750
 9936TIP3    H151299   3.522   0.227  15.087  0.0467  0.6414  0.2772
 9936TIP3    H251300   3.531   0.232  14.936 -2.0075 -0.2951  0.0881
 9937TIP3   OH251301   3.586   1.519   1.075  0.2540  0.2780  0.3605
 9937TIP3    H151302   3.496   1.553   1.081 -0.8088 -1.9057 -1.6992
 9937TIP3    H251303   3.626   1.570   1.004 -0.1118 -0.1930 -0.1972
 9938TIP3   OH251304   1.666   2.481   0.515 -0.1647 -0.1718  0.4410
 9938TIP3    H151305   1.596   2.417   0.532 -1.7694  0.8964 -1.6197
 9938TIP3    H251306   1.713   2.446   0.439 -0.9542  0.9212 -0.6037
 9939TIP3   OH251307   0.072   5.216   2.569  0.6598 -0.1570  0.0085
 9939TIP3    H151308   0.154   5.263   2.553  0.5303  0.8407  1.9474
 9939TIP3    H251309   0.081   5.183   2.659 -1.0741  0.0269  0.2814
 9940TIP3   OH251310   5.792   5.807   2.907  0.1027  0.1034 -0.1536
 9940TIP3    H151311   5.724   5.808   2.975  0.9118  0.4872  0.6593
 9940TIP3    H251312   5.795   5.897   2.875  0.2468  0.0876 -0.1832
 9941TIP3   OH251313   2.287   4.239   5.250  0.1651  0.2559  0.2794
 9941TIP3    H151314   2.349   4.255   5.321  1.4264 -2.8121  0.0333
 9941TIP3    H251315   2.203   4.227   5.294  0.7397 -0.6085  1.1688
 9942TIP3   OH251316   2.596   4.940   6.355 -0.0188  0.1875 -0.1022
 9942TIP3    H151317   2.663   4.982   6.410 -0.3997  0.4165  0.1850
 9942TIP3    H251318   2.544   4.889   6.417 -1.3404  1.5755 -0.0381
 9943TIP3   OH251319   5.640   2.668  12.020 -0.1672  0.4983 -0.2891
 9943TIP3    H151320   5.658   2.601  12.086  0.3285  2.2534  1.4487
 9943TIP3    H251321   5.658   2.625  11.937  1.8350 -1.0105  0.8366
 9944TIP3   OH251322   1.111   5.714   1.108 -0.1608  0.0661  0.9456
 9944TIP3    H151323   1.036   5.663   1.138 -0.6677 -0.6633 -1.3880
 9944TIP3    H251324   1.164   5.651   1.059  0.9678  1.0290  0.8906
 9945TIP3   OH251325   4.592   3.085   4.709 -0.1769  0.1058  1.0233
 9945TIP3    H151326   4.545   3.075   4.792  0.3303 -0.6742  1.2238
 9945TIP3    H251327   4.684   3.076   4.732 -0.1282 -2.4959  0.0600
 9946TIP3   OH251328   0.493   1.564  11.895  0.6130 -0.5396  0.8656
 9946TIP3    H151329   0.480   1.630  11.963 -0.5359  0.3445 -0.1697
 9946TIP3    H251330   0.582   1.579  11.864  0.8324 -0.3635  1.5488
 9947TIP3   OH251331   0.370   5.158  15.613  0.4069 -0.0598 -0.4535
 9947TIP3    H151332   0.425   5.167  15.691 -0.1119  1.1782 -0.2164
 9947TIP3    H251333   0.333   5.245  15.599  0.3224 -0.3174 -1.9705
 9948TIP3   OH251334   2.032   3.727  15.241 -0.0848 -0.3271 -0.1354
 9948TIP3    H151335   2.025   3.654  15.179 -1.8667  0.6155 -1.1319
 9948TIP3    H251336   1.964   3.788  15.213  3.2786  3.2334 -1.3008
 9949TIP3   OH251337   2.987   0.924   3.167  0.4448 -0.1351 -0.0810
 9949TIP3    H151338   2.943   0.972   3.237 -0.7980 -0.8588 -0.3227
 9949TIP3    H251339   3.018   0.843   3.207 -0.1490 -0.4890 -0.3165
 9950TIP3   OH251340   0.283   2.913   0.459 -0.1601  0.0545 -0.1355
 9950TIP3    H151341   0.280   2.831   0.509  0.0665  1.1978  1.8632
 9950TIP3    H251342   0.191   2.935   0.445 -0.2230 -0.7529 -1.1018
 9951TIP3   OH251343   5.648   1.205  14.357 -0.7041 -0.0977  0.3674
 9951TIP3    H151344   5.635   1.219  14.451 -1.6948 -0.4895  0.3001
 9951TIP3    H251345   5.620   1.287  14.316 -1.0228 -0.2084  0.3624
 9952TIP3   OH251346   3.999   2.931  15.492 -0.5785  0.0082 -0.7529
 9952TIP3    H151347   3.913   2.902  15.461 -0.3805 -0.5294 -0.7947
 9952TIP3    H251348   4.044   2.851  15.519 -0.1372  0.3010 -0.6049
 9953TIP3   OH251349   5.122   2.668  14.032 -0.0583 -0.0149  0.0448
 9953TIP3    H151350   5.180   2.658  13.957  1.0348 -0.9929  0.9688
 9953TIP3    H251351   5.172   2.720  14.095 -0.3739 -0.4134  0.6438
 9954TIP3   OH251352   4.185   1.474   5.565  0.0624 -0.4446 -0.4070
 9954TIP3    H151353   4.203   1.446   5.654  0.1115 -0.2737 -0.3631
 9954TIP3    H251354   4.089   1.477   5.559  0.0164  1.8334  0.3791
 9955TIP3   OH251355   6.741   1.111  16.787  0.6489 -0.0709 -0.0342
 9955TIP3    H151356   6.658   1.132  16.744 -0.2463 -1.4031  0.9509
 9955TIP3    H251357   6.725   1.029  16.832  1.4350  1.2825  3.0128
 9956TIP3   OH251358   4.382   6.199  11.144 -0.0540  0.4772 -0.2175
 9956TIP3    H151359   4.336   6.164  11.068  0.5335 -0.5326 -0.1384
 9956TIP3    H251360   4.373   6.130  11.210  1.4181  0.3176 -0.1552
 9957TIP3   OH251361   0.982   4.832   6.289 -0.4907 -0.0867 -0.5591
 9957TIP3    H151362   0.969   4.767   6.221  0.7275 -1.0121  0.0554
 9957TIP3    H251363   0.975   4.783   6.371  1.5579  0.2778 -0.0998
 9958TIP3   OH251364   0.342   1.023  11.970  0.4236 -0.5295 -0.0740
 9958TIP3    H151365   0.356   0.932  11.996  0.1354 -0.3425  0.7531
 9958TIP3    H251366   0.365   1.025  11.877 -1.1738 -1.8281 -0.5462
 9959TIP3   OH251367   6.537   2.246   0.405  0.3457  0.1986 -0.3228
 9959TIP3    H151368   6.497   2.321   0.451  2.1154  2.2098 -1.8465
 9959TIP3    H251369   6.464   2.206   0.357 -0.6072  1.1050  0.3151
 9960TIP3   OH251370   4.456   5.887   0.294  0.6910 -0.0892  0.1901
 9960TIP3    H151371   4.453   5.905   0.388  2.0109 -1.8479  0.6377
 9960TIP3    H251372   4.381   5.829   0.278 -0.6547  1.7151 -0.2608
 9961TIP3   OH251373   5.200   1.619   0.408  0.9571 -0.1776 -0.2158
 9961TIP3    H151374   5.171   1.548   0.465 -0.3755 -0.2898 -0.9900
 9961TIP3    H251375   5.169   1.699   0.451  1.4708 -0.1427  0.0893
 9962TIP3   OH251376   3.305   5.868   4.124  0.1528 -0.0193 -0.0443
 9962TIP3    H151377   3.324   5.775   4.117 -1.1220 -0.2710 -0.4462
 9962TIP3    H251378   3.222   5.872   4.172  0.7795  0.9739  1.0052
 9963TIP3   OH251379   2.330   1.017  15.661 -0.4154  0.2069 -0.0401
 9963TIP3    H151380   2.322   1.113  15.662 -0.3223  0.2075  0.4215
 9963TIP3    H251381   2.394   1.000  15.591 -0.5141  0.4743 -0.1982
 9964TIP3   OH251382   3.705   1.352   4.747 -0.3670 -0.3314 -0.2078
 9964TIP3    H151383   3.799   1.345   4.761 -0.3057  2.4148  1.5534
 9964TIP3    H251384   3.696   1.372   4.653  1.1197  2.2066  0.0850
 9965TIP3   OH251385   2.371   6.111   4.056 -0.3426  0.0565 -0.2706
 9965TIP3    H151386   2.357   6.182   3.994 -1.1239 -0.5480 -0.8131
 9965TIP3    H251387   2.374   6.032   4.002  0.3885 -0.3433  0.3277
 9966TIP3   OH251388   5.817   2.157  12.086 -0.2712  0.1301  0.2933
 9966TIP3    H151389   5.843   2.117  12.169  0.7482  1.1706  0.4990
 9966TIP3    H251390   5.896   2.157  12.032 -0.9115 -0.4888 -0.6803
 9967TIP3   OH251391   6.459   5.098  11.045 -0.2623  0.0461  0.6833
 9967TIP3    H151392   6.399   5.160  11.002  1.7835  1.9077  0.3685
 9967TIP3    H251393   6.456   5.123  11.137 -0.2836 -0.1444  0.7344
 9968TIP3   OH251394   1.172   5.487  12.745  0.0369  0.5839  0.3998
 9968TIP3    H151395   1.105   5.539  12.701 -1.0235 -1.5948 -0.7635
 9968TIP3    H251396   1.162   5.399  12.708  4.9468  0.4999 -1.5459
 9969TIP3   OH251397   3.429   0.853  16.576  0.1293  0.2383 -0.0927
 9969TIP3    H151398   3.517   0.891  16.578 -0.0408  0.6317  0.1137
 9969TIP3    H251399   3.400   0.855  16.668  1.0135 -2.5343  0.3558
 9970TIP3   OH251400   5.120   5.694  11.243 -0.4391  0.1278  0.2882
 9970TIP3    H151401   5.124   5.649  11.327  0.5757 -0.5730 -0.1036
 9970TIP3    H251402   5.087   5.628  11.182 -0.5611  0.4365  0.0158
 9971TIP3   OH251403   3.782   6.105  16.555 -0.0517  0.4788  0.7510
 9971TIP3    H151404   3.813   6.015  16.543  1.1881  0.7539  1.6910
 9971TIP3    H251405   3.812   6.151  16.477 -0.8146  0.0596  0.1958
 9972TIP3   OH251406   6.095   2.835  17.108  0.3888  0.1352  0.0083
 9972TIP3    H151407   6.189   2.836  17.127  0.9000 -0.5128 -2.1860
 9972TIP3    H251408   6.079   2.917  17.062 -0.3295  0.6531  1.1504
 9973TIP3   OH251409   0.059   5.283   2.300  0.0861  0.2099  0.3848
 9973TIP3    H151410  -0.004   5.215   2.277  1.9871 -1.4764 -0.1089
 9973TIP3    H251411   0.079   5.267   2.392 -0.2368  0.7655  0.5525
 9974TIP3   OH251412   2.888   0.520  13.765 -0.0434  0.0825  0.5737
 9974TIP3    H151413   2.863   0.475  13.684  1.1453 -0.2670  0.3801
 9974TIP3    H251414   2.823   0.590  13.774 -0.3377 -0.0140 -0.5622
 9975TIP3   OH251415   2.515   1.460   4.159 -0.2180 -0.2682 -0.8737
 9975TIP3    H151416   2.477   1.539   4.122 -1.0421 -1.6549 -3.1529
 9975TIP3    H251417   2.609   1.472   4.149 -0.3239  0.4585 -1.0663
 9976TIP3   OH251418   0.540   0.675  11.029 -0.1991  0.3059 -0.0267
 9976TIP3    H151419   0.635   0.685  11.021 -0.5142  2.2754 -2.1715
 9976TIP3    H251420   0.508   0.670  10.939 -2.2544  1.2232  0.5858
 9977TIP3   OH251421   3.561   3.141   5.413  0.1672 -0.0617  0.0092
 9977TIP3    H151422   3.483   3.109   5.368 -0.2593 -0.6280  1.1091
 9977TIP3    H251423   3.633   3.088   5.380  0.0492  0.2706 -0.8008
 9978TIP3   OH251424   6.155   4.112   4.296  0.2396 -0.2379  0.0965
 9978TIP3    H151425   6.200   4.165   4.361  1.6221 -2.2699  0.8859
 9978TIP3    H251426   6.071   4.089   4.337 -0.3171  1.1696 -0.2064
 9979TIP3   OH251427   0.717   6.691  16.144 -0.1696 -0.4867 -0.2872
 9979TIP3    H151428   0.701   6.599  16.167  1.3476 -0.5384  0.7561
 9979TIP3    H251429   0.801   6.711  16.185 -0.7491  1.5487  0.0087
 9980TIP3   OH251430   4.942   0.001   4.151 -0.2653 -0.7029  0.4143
 9980TIP3    H151431   4.869   0.062   4.164 -1.6188 -1.1563 -3.7369
 9980TIP3    H251432   5.017   0.057   4.134 -0.7746 -0.1798 -0.1701
 9981TIP3   OH251433   6.180   5.889   5.063 -0.2242 -0.6099 -0.2936
 9981TIP3    H151434   6.274   5.905   5.069 -0.2262 -1.0283  1.2570
 9981TIP3    H251435   6.172   5.804   5.020  0.1366 -0.8715  0.1562
 9982TIP3   OH251436   4.329   4.929   1.869  0.2289 -0.5088 -0.5701
 9982TIP3    H151437   4.373   4.845   1.877 -2.0648 -1.7511 -0.0849
 9982TIP3    H251438   4.255   4.923   1.930 -1.0837  1.1204 -1.9058
 9983TIP3   OH251439   0.386   0.317  13.944 -0.4146  0.0185 -0.0860
 9983TIP3    H151440   0.338   0.341  13.865  1.2671 -1.5331 -1.7003
 9983TIP3    H251441   0.476   0.303  13.913  0.3671 -0.3088  2.1815
 9984TIP3   OH251442   2.001   4.234  10.761  0.2611  0.6557 -0.0082
 9984TIP3    H151443   1.961   4.278  10.836  1.0910  1.1188  0.1690
 9984TIP3    H251444   1.948   4.155  10.749 -1.4248  1.7992 -0.4920
 9985TIP3   OH251445   6.187   5.787  14.951 -0.1445  0.0677  0.8343
 9985TIP3    H151446   6.091   5.796  14.951 -0.1854 -0.3717  0.4382
 9985TIP3    H251447   6.208   5.761  15.041 -0.5621 -1.4778  0.5157
 9986TIP3   OH251448   3.219   6.056   4.770 -0.1756  0.2067 -0.3095
 9986TIP3    H151449   3.305   6.095   4.786  0.1817  0.3892 -2.4738
 9986TIP3    H251450   3.215   5.983   4.833  0.6115  1.4997  1.3353
 9987TIP3   OH251451   4.469   2.328  13.219 -0.5244  0.3497  0.3485
 9987TIP3    H151452   4.515   2.315  13.136 -2.1969 -0.3831 -0.5106
 9987TIP3    H251453   4.385   2.284  13.207 -1.5278  1.7623  1.7926
 9988TIP3   OH251454   1.771   3.736  11.389 -0.0506 -0.0061 -0.5600
 9988TIP3    H151455   1.738   3.826  11.381 -0.3788  0.1282  1.7182
 9988TIP3    H251456   1.862   3.741  11.362  0.2950  1.3168  0.7126
 9989TIP3   OH251457   4.509   3.465   5.560  0.2587  0.6773 -0.1460
 9989TIP3    H151458   4.545   3.427   5.480  0.0279  0.3544 -0.0985
 9989TIP3    H251459   4.559   3.424   5.630 -0.7958 -0.4741 -0.0280
 9990TIP3   OH251460   4.590   6.520   1.561 -0.3462  0.3217 -0.0220
 9990TIP3    H151461   4.607   6.595   1.503 -0.3821  0.0243 -0.4194
 9990TIP3    H251462   4.542   6.458   1.506  1.0369 -0.6599 -0.1608
 9991TIP3   OH251463   2.068   4.668  16.444 -0.1531  0.1923  0.9828
 9991TIP3    H151464   2.022   4.636  16.521  0.3279 -0.2609  1.0875
 9991TIP3    H251465   2.065   4.596  16.382 -1.0798  0.7711  0.3240
 9992TIP3   OH251466   4.636   2.280  16.367  0.1339  0.3269  0.3887
 9992TIP3    H151467   4.604   2.203  16.414 -1.1013  1.2094  1.0487
 9992TIP3    H251468   4.722   2.298  16.406 -0.6167  0.6952  1.9351
 9993TIP3   OH251469   4.543   2.506   4.000  0.4771  0.5321 -0.4566
 9993TIP3    H151470   4.544   2.555   3.918  2.4906 -0.6112 -1.1839
 9993TIP3    H251471   4.579   2.566   4.065  1.4416  0.5675 -1.0050
 9994TIP3   OH251472   6.633   6.488   6.218 -0.5530  0.3255  0.1255
 9994TIP3    H151473   6.555   6.451   6.175  0.2814 -1.1927 -0.1834
 9994TIP3    H251474   6.598   6.553   6.278 -1.8400  2.1036 -2.3538
 9995TIP3   OH251475   2.431   1.493  12.858  0.6563  0.5359  0.5318
 9995TIP3    H151476   2.340   1.490  12.886  0.0263  2.1699 -1.1533
 9995TIP3    H251477   2.481   1.484  12.940 -0.9430 -1.1586  1.4047
 9996TIP3   OH251478   5.293   1.203   4.782 -0.5197 -0.1353  0.4877
 9996TIP3    H151479   5.386   1.220   4.768 -0.4862 -1.6063 -1.5592
 9996TIP3    H251480   5.291   1.147   4.860  0.0457  1.9108  2.0351
 9997TIP3   OH251481   3.304   5.302   6.802  0.2421 -0.8094  0.5519
 9997TIP3    H151482   3.381   5.301   6.746  0.8322  0.2513  1.3247
 9997TIP3    H251483   3.338   5.291   6.890 -0.5412 -0.7725  0.8703
 9998TIP3   OH251484   3.353   4.215  12.850  0.5523 -0.7998 -0.0857
 9998TIP3    H151485   3.369   4.297  12.897  0.2871 -0.9011  0.1873
 9998TIP3    H251486   3.281   4.235  12.790  0.6067 -0.7823 -0.1442
 9999TIP3   OH251487   3.088   3.404   1.364  0.0148  0.6400 -0.6572
 9999TIP3    H151488   3.142   3.448   1.299  1.0616  0.1236 -0.1706
 9999TIP3    H251489   3.116   3.442   1.448  1.3913 -1.3278 -0.1622
10000TIP3   OH251490   1.074   3.618  16.030 -0.0950 -1.0349 -0.2199
10000TIP3    H151491   1.057   3.589  16.120 -0.0396 -1.7978 -0.4490
10000TIP3    H251492   1.148   3.679  16.038 -1.0436  0.0908  0.4263
10001TIP3   OH251493   0.963   2.789   5.766 -0.2695  0.3768 -0.0476
10001TIP3    H151494   0.975   2.708   5.717  0.5781  0.5913 -0.2029
10001TIP3    H251495   0.908   2.843   5.710  2.1288  1.3287 -1.6491
10002TIP3   OH251496   4.723   5.696  14.418  0.9750 -0.0352  0.1487
10002TIP3    H151497   4.631   5.719  14.435  0.1977 -1.6102 -1.4492
10002TIP3    H251498   4.719   5.646  14.336  3.4733  1.1635 -0.8053
10003TIP3   OH251499   0.112   0.683  12.679  0.2506  0.1658  0.8026
10003TIP3    H151500   0.202   0.717  12.687  1.4580 -2.4205 -0.6918
10003TIP3    H251501   0.082   0.715  12.594  1.1241 -1.7207 -0.2795
10004TIP3   OH251502   1.364   4.623   0.547 -0.3576 -0.0841 -0.8866
10004TIP3    H151503   1.291   4.673   0.511 -1.5480 -0.3749  0.9594
10004TIP3    H251504   1.325   4.575   0.621  0.9452 -2.9159 -1.9039
10005TIP3   OH251505   0.739   5.381  12.397  0.4430 -0.7433  0.4111
10005TIP3    H151506   0.835   5.376  12.390  0.6284  1.4633  0.6492
10005TIP3    H251507   0.713   5.445  12.332 -0.7442 -0.4581  1.1323
10006TIP3   OH251508   4.458   4.693   4.599 -0.0098 -0.9007  0.2802
10006TIP3    H151509   4.508   4.763   4.641 -0.0838 -0.6036 -0.1150
10006TIP3    H251510   4.517   4.657   4.533 -0.5976  0.0333 -0.7903
10007TIP3   OH251511   2.817   1.538   1.237 -0.1090 -0.1009 -0.0703
10007TIP3    H151512   2.846   1.628   1.250  0.7714 -0.4714  0.6034
10007TIP3    H251513   2.722   1.545   1.225  0.3239  1.3094 -3.9575
10008TIP3   OH251514   4.184   3.145   0.959 -0.1652  0.4977  0.3333
10008TIP3    H151515   4.243   3.161   1.033 -0.2304  1.1895  0.2474
10008TIP3    H251516   4.098   3.173   0.991  0.0613  2.2718 -0.4813
10009TIP3   OH251517   1.929   2.123  11.932  0.4275  0.7858 -0.4731
10009TIP3    H151518   1.899   2.209  11.960 -2.2975 -0.6860  1.7443
10009TIP3    H251519   1.886   2.108  11.848 -2.6072  0.1216  1.0353
10010TIP3   OH251520   3.340   2.782  13.410  0.3008 -0.5774  0.0278
10010TIP3    H151521   3.308   2.713  13.353 -2.4126 -0.1344  0.8869
10010TIP3    H251522   3.318   2.863  13.364  1.8453 -0.2272 -0.1488
10011TIP3   OH251523   2.973   5.118  13.473  0.2201  0.5552 -0.2557
10011TIP3    H151524   2.968   5.067  13.554 -1.1325  1.7329  0.4437
10011TIP3    H251525   2.943   5.058  13.405 -0.1671  0.0360  0.3618
10012TIP3   OH251526   3.231   3.354   0.373  0.5374 -0.8221  0.1762
10012TIP3    H151527   3.242   3.362   0.278 -0.7819 -2.5495 -0.1711
10012TIP3    H251528   3.138   3.335   0.385 -0.0207  2.3738  2.0953
10013TIP3   OH251529   5.285   6.096   4.366  0.1856  0.4558  0.3146
10013TIP3    H151530   5.323   6.014   4.395  1.5400 -0.6661 -3.8464
10013TIP3    H251531   5.190   6.079   4.362  0.3476 -0.5441  0.5332
10014TIP3   OH251532   3.451   2.966  12.350 -0.0303 -0.1031 -0.7730
10014TIP3    H151533   3.486   2.891  12.397  1.4318  0.3297 -1.1443
10014TIP3    H251534   3.523   3.028  12.345 -1.8344  2.4190  1.6777
10015TIP3   OH251535   5.450   4.772  12.561  0.7680  0.2327  0.2515
10015TIP3    H151536   5.490   4.831  12.625 -0.7798 -0.5082  1.9780
10015TIP3    H251537   5.500   4.691  12.568  1.3096  0.5120 -0.3112
10016TIP3   OH251538   2.171   4.714   0.845  0.3189  0.3906 -0.1403
10016TIP3    H151539   2.164   4.768   0.924 -0.4475 -1.4807  1.1636
10016TIP3    H251540   2.133   4.629   0.871  0.3222 -0.3858 -2.4465
10017TIP3   OH251541   2.554   5.813  17.085  0.1018 -0.4380 -0.1058
10017TIP3    H151542   2.499   5.891  17.073  1.4875  0.3879 -1.5990
10017TIP3    H251543   2.635   5.847  17.123  0.0405 -1.4540  0.9843
10018TIP3   OH251544   1.141   1.630   4.071 -0.3578 -0.3408 -0.3980
10018TIP3    H151545   1.137   1.720   4.104  2.4573  0.4639 -1.8689
10018TIP3    H251546   1.078   1.628   3.999  0.7781  1.0714 -1.4948
10019TIP3   OH251547   0.891   6.388   0.254 -0.5032  0.0807  0.2507
10019TIP3    H151548   0.950   6.354   0.321 -2.6380  0.9166  2.6975
10019TIP3    H251549   0.860   6.311   0.208 -0.8181 -0.7766  1.8457
10020TIP3   OH251550   0.209   3.291   2.243  0.5352 -0.4759 -0.2366
10020TIP3    H151551   0.232   3.277   2.335 -1.7284  0.2800  0.5076
10020TIP3    H251552   0.209   3.386   2.233  0.2983 -0.5425 -0.8849
10021TIP3   OH251553   1.331   1.123   4.593 -0.4803  0.4276  0.1457
10021TIP3    H151554   1.297   1.097   4.507  0.1379 -1.5595  0.4504
10021TIP3    H251555   1.357   1.214   4.582  1.8221 -0.4142 -2.5177
10022TIP3   OH251556   6.513   6.739   3.892  0.1542 -0.0209  0.2127
10022TIP3    H151557   6.502   6.833   3.883  1.7519  0.0988 -0.8665
10022TIP3    H251558   6.538   6.709   3.805  0.2140 -1.3693  0.6636
10023TIP3   OH251559   1.283   4.790   3.788 -0.5876  0.0346  0.2717
10023TIP3    H151560   1.299   4.697   3.803 -0.2959  0.0032 -0.2246
10023TIP3    H251561   1.369   4.831   3.802 -0.3314  0.0199 -1.1703
10024TIP3   OH251562   1.865   1.508  12.993 -0.5688  0.4988  0.0699
10024TIP3    H151563   1.901   1.560  12.921 -0.6621 -0.1553 -0.4727
10024TIP3    H251564   1.781   1.548  13.012 -0.8061  0.3407 -0.5927
10025TIP3   OH251565   4.460   2.352  14.319  0.1207  0.7352 -0.3920
10025TIP3    H151566   4.551   2.325  14.306  0.2215  1.2806 -0.8832
10025TIP3    H251567   4.409   2.271  14.313  0.7549  0.0647  2.1434
10026TIP3   OH251568   5.566   1.905   2.279  0.5470 -0.4574  0.6285
10026TIP3    H151569   5.524   1.944   2.356  0.0819 -0.9660  0.6419
10026TIP3    H251570   5.520   1.943   2.204 -0.3077 -1.3813  0.6515
10027TIP3   OH251571   3.156   3.491   1.663  0.8536  0.0677 -0.4019
10027TIP3    H151572   3.139   3.398   1.678  0.0959  0.3390  0.4792
10027TIP3    H251573   3.123   3.535   1.741  0.9698  1.1097 -0.9167
10028TIP3   OH251574   4.152   0.998  11.963  0.1555  0.4665  0.0054
10028TIP3    H151575   4.069   0.989  11.916 -0.1767  0.1754  0.6358
10028TIP3    H251576   4.211   1.039  11.899 -0.7777  1.7008 -0.1199
10029TIP3   OH251577   4.813   5.488  11.795  0.0042 -0.0991 -0.1318
10029TIP3    H151578   4.763   5.444  11.863  1.1731 -0.3053  0.6242
10029TIP3    H251579   4.829   5.576  11.830  0.7568 -0.2607 -0.0488
10030TIP3   OH251580   6.097   4.203  16.142 -0.6645  0.4938 -0.4094
10030TIP3    H151581   6.134   4.115  16.142 -1.0090  0.3470 -0.4766
10030TIP3    H251582   6.134   4.244  16.064  1.0138  1.0674  0.6352
10031TIP3   OH251583   1.422   0.284   2.747  0.3442  0.2973  0.4261
10031TIP3    H151584   1.485   0.213   2.737 -0.6408 -0.6896  1.0158
10031TIP3    H251585   1.402   0.285   2.841 -1.7199 -0.5243  0.0528
10032TIP3   OH251586   1.526   3.860   6.570  0.0171  0.1991  0.5610
10032TIP3    H151587   1.474   3.924   6.618 -1.5459 -0.4861 -0.1585
10032TIP3    H251588   1.558   3.908   6.493 -1.6534  0.0291 -0.2999
10033TIP3   OH251589   2.556   1.931   3.818  0.6412 -0.2051 -0.4547
10033TIP3    H151590   2.567   2.019   3.852 -2.8432 -0.2094  1.1741
10033TIP3    H251591   2.590   1.874   3.888  1.0395 -0.1809 -0.6258
10034TIP3   OH251592   0.303   6.682  14.145  0.2123 -0.4856  0.3249
10034TIP3    H151593   0.288   6.644  14.059  0.2022 -1.0826  0.5834
10034TIP3    H251594   0.265   6.770  14.140 -1.5620 -1.2112  0.3250
10035TIP3   OH251595   0.550   4.378  13.638  0.1385  0.7282  0.2712
10035TIP3    H151596   0.644   4.358  13.637  0.0880  0.1810 -2.5266
10035TIP3    H251597   0.508   4.295  13.615 -0.9423  1.2674  0.2331
10036TIP3   OH251598   2.619   0.549  17.233  0.1697  0.3296 -0.1178
10036TIP3    H151599   2.635   0.610  17.162  0.2123  1.3432  0.7386
10036TIP3    H251600   2.524   0.539  17.236  0.1740  0.1938 -0.3804
10037TIP3   OH251601   3.532   1.589   0.579 -0.5515  0.3400 -0.1140
10037TIP3    H151602   3.609   1.568   0.527  2.2397 -0.4946  3.9183
10037TIP3    H251603   3.524   1.685   0.574  1.1656  0.4995 -0.0819
10038TIP3   OH251604   3.169   2.184   0.315 -0.1879 -0.1615 -0.2043
10038TIP3    H151605   3.092   2.158   0.264 -0.0130 -0.2181 -0.4413
10038TIP3    H251606   3.193   2.270   0.280 -0.1685 -0.1243 -0.1002
10039TIP3   OH251607   6.138   5.344  15.864  0.3211  0.0915  0.5110
10039TIP3    H151608   6.173   5.314  15.948  2.4655  0.8571 -0.0765
10039TIP3    H251609   6.156   5.437  15.861 -3.1192  0.9101  0.7557
10040TIP3   OH251610   6.177   1.278  14.514  0.0415  0.1739 -0.0240
10040TIP3    H151611   6.180   1.188  14.482  1.0367  0.3324 -0.3979
10040TIP3    H251612   6.118   1.274  14.590  0.3065 -0.8484  0.1420
10041TIP3   OH251613   2.803   4.279  15.363 -0.7353 -0.2803 -0.3326
10041TIP3    H151614   2.852   4.347  15.411 -0.4836  0.3896 -1.4925
10041TIP3    H251615   2.783   4.213  15.429 -1.8497  1.3783  1.0822
10042TIP3   OH251616   5.539   0.307   2.636 -0.1307  0.4852  0.3283
10042TIP3    H151617   5.561   0.322   2.544 -0.0286  0.0473  0.2783
10042TIP3    H251618   5.623   0.290   2.679 -0.4022 -2.1284 -0.0401
10043TIP3   OH251619   6.342   0.441  16.645 -0.1238  0.4274 -0.3741
10043TIP3    H151620   6.352   0.346  16.638  1.0457  0.5012 -0.0638
10043TIP3    H251621   6.275   0.464  16.581 -0.8624 -0.6714 -0.0223
10044TIP3   OH251622   3.217   0.185   5.920  0.0413 -0.4796 -0.6398
10044TIP3    H151623   3.255   0.176   6.008  0.1459  1.6266 -0.4322
10044TIP3    H251624   3.128   0.217   5.936  0.0883 -0.0180 -1.3139
10045TIP3   OH251625   5.897   1.034  12.147 -0.0399 -0.5492  0.3643
10045TIP3    H151626   5.900   1.116  12.198  2.0515 -0.5236  0.2780
10045TIP3    H251627   5.805   1.006  12.153 -0.4814  0.9935  1.6819
10046TIP3   OH251628   2.891   5.428  11.128  0.3543  0.0161  0.4740
10046TIP3    H151629   2.959   5.493  11.112 -0.1274  0.8195  1.5604
10046TIP3    H251630   2.882   5.426  11.223 -1.6414  0.4515  0.3307
10047TIP3   OH251631   3.399   2.724  15.850  0.1925  0.1357  0.4751
10047TIP3    H151632   3.429   2.766  15.769 -0.1105  0.2318  0.4112
10047TIP3    H251633   3.474   2.729  15.909 -0.1315  1.5745  0.7847
10048TIP3   OH251634   2.696   1.591  16.552 -0.1886 -0.5562 -0.4220
10048TIP3    H151635   2.610   1.630  16.542  0.9242  1.8183 -1.3597
10048TIP3    H251636   2.737   1.598  16.466  1.2266 -0.9096  0.1837
10049TIP3   OH251637   0.054   5.723   3.543 -0.2211 -0.2380 -0.2190
10049TIP3    H151638   0.135   5.697   3.586 -0.7485 -0.5102  0.6604
10049TIP3    H251639   0.013   5.641   3.516  0.2236 -0.0512 -1.4872
10050TIP3   OH251640   2.394   2.450  14.467  0.2248 -0.5021 -0.1405
10050TIP3    H151641   2.445   2.518  14.511  0.0257 -1.7858  2.2764
10050TIP3    H251642   2.349   2.495  14.396  1.8553  1.3972 -0.0473
10051TIP3   OH251643   1.466   1.125  14.880  0.5678  0.1688  0.6025
10051TIP3    H151644   1.512   1.044  14.903  1.1500  0.5272  0.7176
10051TIP3    H251645   1.382   1.119  14.926  0.4873 -0.5015  0.3735
10052TIP3   OH251646   6.203   0.330  11.719 -0.5933 -0.6263 -0.0680
10052TIP3    H151647   6.113   0.329  11.687 -0.2911 -2.0764 -0.9599
10052TIP3    H251648   6.202   0.271  11.795 -0.1922 -1.4703 -0.7095
10053TIP3   OH251649   1.262   1.963  16.302  0.3241  0.4475  0.3550
10053TIP3    H151650   1.317   2.025  16.255  2.8680 -0.8713  1.3618
10053TIP3    H251651   1.185   1.950  16.247  1.8136  1.1343 -1.9924
10054TIP3   OH251652   2.463   2.652   1.428  0.2096 -0.2272 -0.0308
10054TIP3    H151653   2.439   2.735   1.470  0.0901 -1.2935  2.1486
10054TIP3    H251654   2.488   2.677   1.339  1.6150  2.3580  0.9710
10055TIP3   OH251655   4.557   5.861  16.597  0.0076 -0.4313 -0.0598
10055TIP3    H151656   4.555   5.766  16.586  0.0202 -0.3876 -0.4415
10055TIP3    H251657   4.647   5.879  16.626 -0.3367 -0.6594  1.1986
10056TIP3   OH251658   6.460   5.456  15.721 -0.4264  0.0744 -0.4477
10056TIP3    H151659   6.434   5.515  15.792  1.8041  0.1946  0.3655
10056TIP3    H251660   6.495   5.514  15.654 -0.3457 -0.1740 -0.6195
10057TIP3   OH251661   0.976   4.169  11.734  0.0391 -0.3298  0.0142
10057TIP3    H151662   1.046   4.139  11.793 -0.2278 -2.2707 -0.5839
10057TIP3    H251663   0.913   4.213  11.792  0.4587 -0.9480  0.9626
10058TIP3   OH251664   1.244   4.404   0.735  1.2887  0.3661  0.2751
10058TIP3    H151665   1.336   4.383   0.719  1.0943 -2.0047  1.7437
10058TIP3    H251666   1.200   4.319   0.740 -0.7854  1.3900  0.7888
10059TIP3   OH251667   0.334   4.138  13.359  0.0423  0.5269  0.3206
10059TIP3    H151668   0.303   4.226  13.337  1.0885  0.9079  0.2651
10059TIP3    H251669   0.347   4.095  13.274  1.6331  1.1066  0.2350
10060TIP3   OH251670   2.640   5.084  11.720  0.2609  0.2837  0.1388
10060TIP3    H151671   2.685   5.168  11.709 -0.2097  0.7364  1.5138
10060TIP3    H251672   2.673   5.051  11.804 -1.6228  0.4216  0.9682
10061TIP3   OH251673   2.180   0.938  16.923  0.4124  0.1635  0.4913
10061TIP3    H151674   2.126   0.911  16.849  0.6263  0.7762  0.1019
10061TIP3    H251675   2.248   0.870  16.930  0.4199  0.1314  0.0942
10062TIP3   OH251676   2.662   6.509   6.183  0.1070 -0.2590  0.2318
10062TIP3    H151677   2.716   6.430   6.183 -0.4221 -0.6227  0.3224
10062TIP3    H251678   2.607   6.500   6.261  1.0290  0.8720  1.0475
10063TIP3   OH251679   0.356   6.310   1.345 -0.3097  0.0141  0.3513
10063TIP3    H151680   0.265   6.340   1.354 -0.3244 -0.1910  0.9149
10063TIP3    H251681   0.399   6.340   1.425 -0.0448 -0.4597  0.3878
10064TIP3   OH251682   2.698   5.652   4.468 -0.5512  0.0956  0.7036
10064TIP3    H151683   2.614   5.625   4.431 -0.7178 -1.3531  2.0307
10064TIP3    H251684   2.688   5.641   4.563  1.3416 -0.7728  0.8528
10065TIP3   OH251685   1.672   5.024   1.713  0.5066 -0.4837  0.4315
10065TIP3    H151686   1.627   5.079   1.777 -0.7273 -0.8578 -0.0842
10065TIP3    H251687   1.639   4.936   1.731  1.1840 -0.8031  0.1481
10066TIP3   OH251688   2.167   6.726   4.329  0.1939 -0.8644  0.2615
10066TIP3    H151689   2.120   6.723   4.246  0.2242  0.7647  0.1619
10066TIP3    H251690   2.127   6.657   4.382 -0.1523 -1.5991 -0.9263
10067TIP3   OH251691   0.135   4.791  13.837  0.2930  0.2127  0.2396
10067TIP3    H151692   0.101   4.837  13.913  0.0540  0.7701 -0.1960
10067TIP3    H251693   0.164   4.706  13.871  0.8771  0.7374  1.0743
10068TIP3   OH251694   1.393   2.197  16.222  0.3889  0.1797 -0.1201
10068TIP3    H151695   1.371   2.288  16.242  0.0489 -0.1452  1.0757
10068TIP3    H251696   1.461   2.203  16.155 -0.4038  1.2830 -0.8634
10069TIP3   OH251697   3.645   5.742  16.040 -0.4171 -0.3276  0.2438
10069TIP3    H151698   3.574   5.709  15.985 -0.9086  0.7217  0.2300
10069TIP3    H251699   3.711   5.672  16.038 -1.1834 -1.0597 -0.2265
10070TIP3   OH251700   1.024   4.058  17.295  0.3770  0.1451  0.2773
10070TIP3    H151701   1.096   4.109  17.259  0.8582 -0.7737 -0.1161
10070TIP3    H251702   0.945   4.091  17.251  0.5552  1.1561  0.7125
10071TIP3   OH251703   2.840   1.512   2.137  0.5305 -0.0108  0.1887
10071TIP3    H151704   2.839   1.502   2.042 -1.3916 -1.4074  0.2934
10071TIP3    H251705   2.776   1.581   2.155  1.4040  0.7520  0.4607
10072TIP3   OH251706   3.447   0.461   3.797  0.0978  0.2749  0.2203
10072TIP3    H151707   3.379   0.395   3.785 -0.1959  0.6014  0.1039
10072TIP3    H251708   3.493   0.433   3.876  0.1744 -0.2431 -0.0016
10073TIP3   OH251709   2.509   4.823  13.967 -0.1292  0.2935  0.4748
10073TIP3    H151710   2.433   4.828  13.909  1.2467  0.9683 -1.3809
10073TIP3    H251711   2.521   4.913  13.998 -0.1490  0.1684  0.8460
10074TIP3   OH251712   4.985   3.259   3.313  0.6928 -0.1747 -0.3996
10074TIP3    H151713   5.047   3.282   3.381 -0.6664  1.0013  0.4856
10074TIP3    H251714   4.971   3.340   3.264 -0.3126 -0.3534 -0.4338
10075TIP3   OH251715   1.797   0.248   3.297  0.0790 -0.2706 -0.6275
10075TIP3    H151716   1.728   0.245   3.364 -0.1464  2.3196 -0.6708
10075TIP3    H251717   1.875   0.216   3.342 -0.1285  1.1322  0.8320
10076TIP3   OH251718   1.857   3.266   2.773 -0.1250  0.0260  0.3522
10076TIP3    H151719   1.949   3.292   2.763 -0.2512  0.2738 -0.1810
10076TIP3    H251720   1.860   3.193   2.835  0.7649 -1.8846 -1.7953
10077TIP3   OH251721   4.917   5.057   1.092 -0.6910 -0.4718  0.4629
10077TIP3    H151722   4.823   5.049   1.109 -0.4879 -0.5488  1.6424
10077TIP3    H251723   4.926   5.143   1.050 -1.0267  0.7803  2.7573
10078TIP3   OH251724   3.660   4.993   1.250 -0.0695 -0.1002  0.2976
10078TIP3    H151725   3.751   4.979   1.226  0.1614  0.8866  0.5696
10078TIP3    H251726   3.618   4.908   1.237  1.1995 -0.9703  1.6782
10079TIP3   OH251727   3.865   3.072   1.967  0.1971  0.6768  0.1633
10079TIP3    H151728   3.934   3.134   1.992  0.9106 -0.3913  0.9809
10079TIP3    H251729   3.822   3.051   2.050  1.3756 -1.5154  0.2913
10080TIP3   OH251730   5.969   6.267   3.222 -0.1845 -0.0732  0.5653
10080TIP3    H151731   5.954   6.190   3.168 -0.4811  0.6578 -0.4347
10080TIP3    H251732   6.053   6.251   3.264 -0.9948 -1.6701  1.7064
10081TIP3   OH251733   6.442   0.576   5.090  0.3650  0.5210 -0.0429
10081TIP3    H151734   6.385   0.506   5.061 -1.5900  0.3105  3.7035
10081TIP3    H251735   6.519   0.531   5.124 -0.7552  0.0913  2.0780
10082TIP3   OH251736   5.138   5.450   3.726 -0.4087  0.2969 -0.2629
10082TIP3    H151737   5.046   5.454   3.753  0.5518 -0.2000  3.6229
10082TIP3    H251738   5.188   5.472   3.805  2.8578  0.4208 -2.1791
10083TIP3   OH251739   0.432   2.039  12.716  0.3155  0.1128 -0.1202
10083TIP3    H151740   0.394   1.994  12.792  1.2289 -2.2137 -0.9628
10083TIP3    H251741   0.514   2.076  12.749  0.8066 -1.0557 -0.0001
10084TIP3   OH251742   2.068   4.300   1.275 -0.3023 -0.5043 -0.3537
10084TIP3    H151743   2.112   4.245   1.210 -1.3309 -1.7405 -0.0616
10084TIP3    H251744   2.072   4.249   1.356  0.1546  0.6008  0.3409
10085TIP3   OH251745   4.219   4.486  16.065 -0.5212  0.5426 -0.6290
10085TIP3    H151746   4.161   4.558  16.090  0.1823  0.5850  0.9763
10085TIP3    H251747   4.238   4.441  16.147  2.9800  1.4543 -0.7855
10086TIP3   OH251748   5.603   1.295  11.207  0.4203  0.5392 -0.2130
10086TIP3    H151749   5.698   1.294  11.205  0.4152  0.5770 -1.1957
10086TIP3    H251750   5.578   1.362  11.142 -0.2784 -0.3541 -0.9002
10087TIP3   OH251751   0.050   4.889   4.417 -0.4917  0.6057  0.0256
10087TIP3    H151752   0.084   4.903   4.506 -1.4340 -0.3785  0.5627
10087TIP3    H251753  -0.032   4.842   4.430 -1.6474  2.1468 -1.2848
10088TIP3   OH251754   3.955   0.676   0.583  0.1217 -0.1017 -0.3866
10088TIP3    H151755   3.898   0.752   0.594  0.3339 -0.1861  1.7097
10088TIP3    H251756   4.019   0.703   0.517  0.4893  1.7484  0.6464
10089TIP3   OH251757   2.840   1.767   4.495 -0.5700  0.1551 -0.1496
10089TIP3    H151758   2.749   1.747   4.477 -0.0893 -1.3006 -1.1623
10089TIP3    H251759   2.889   1.718   4.430  1.0045 -0.1479  1.1869
10090TIP3   OH251760   1.017   0.189  14.782 -0.1167 -0.2532 -0.1253
10090TIP3    H151761   1.077   0.145  14.721  0.2788  1.4610 -1.0287
10090TIP3    H251762   1.073   0.227  14.849 -0.0692  1.7799 -1.2407
10091TIP3   OH251763   2.171   1.317  10.596  0.0403 -0.3152 -0.6445
10091TIP3    H151764   2.096   1.271  10.560 -0.2918  0.2985 -0.7420
10091TIP3    H251765   2.220   1.347  10.520  1.7044 -2.7515 -0.6536
10092TIP3   OH251766   5.737   4.236  12.770 -0.5103  0.7397  0.4746
10092TIP3    H151767   5.703   4.161  12.819  0.5569  0.8025  1.3333
10092TIP3    H251768   5.681   4.240  12.692 -0.4437 -1.0882  0.2868
10093TIP3   OH251769   5.928   4.109   0.276  0.0609 -0.1967 -0.3281
10093TIP3    H151770   5.940   4.098   0.370  1.1242  1.6341 -0.1968
10093TIP3    H251771   5.882   4.031   0.248 -1.3638 -0.2313  1.9116
10094TIP3   OH251772   2.097   5.283  17.010 -0.4812  0.4869 -0.1303
10094TIP3    H151773   2.161   5.277  16.940 -0.4396 -0.6616 -0.0066
10094TIP3    H251774   2.131   5.226  17.079 -0.4749  1.6511  0.8755
10095TIP3   OH251775   0.121   1.626   1.256  0.4585  0.1864  0.0954
10095TIP3    H151776   0.143   1.574   1.334 -2.1739  0.0258  0.8254
10095TIP3    H251777   0.133   1.717   1.283  2.0904  0.1003 -0.2108
10096TIP3   OH251778   5.515   0.534   6.080  0.5980 -0.9598  0.2382
10096TIP3    H151779   5.600   0.575   6.094  0.2883  0.2962 -1.2147
10096TIP3    H251780   5.483   0.513   6.167  1.6939  0.0203  0.9018
10097TIP3   OH251781   2.097   5.936  13.015 -0.2451  0.2951 -0.2775
10097TIP3    H151782   2.081   6.031  13.015  2.5233  0.8825 -1.8809
10097TIP3    H251783   2.029   5.901  12.958 -1.5205  1.2321  0.6049
10098TIP3   OH251784   6.345   0.174  14.119  0.5736  0.2133 -0.5054
10098TIP3    H151785   6.271   0.171  14.180  0.7611 -0.0528 -0.2817
10098TIP3    H251786   6.373   0.082  14.112  1.3600  0.4005  0.0128
10099TIP3   OH251787   3.083   2.980   3.025 -0.0921 -0.1397  0.0731
10099TIP3    H151788   3.147   2.910   3.035  0.6600  0.2120 -1.7908
10099TIP3    H251789   3.123   3.056   3.067  1.5433  0.5030 -2.4259
10100TIP3   OH251790   0.581   5.155   0.615 -0.5783  0.5008 -0.1032
10100TIP3    H151791   0.517   5.098   0.658  0.7631 -1.0553 -0.0238
10100TIP3    H251792   0.557   5.153   0.523  0.0627 -1.1589 -0.2790
10101TIP3   OH251793   6.407   1.634   0.061  0.5783 -0.2300  0.5659
10101TIP3    H151794   6.493   1.676   0.057  0.4351 -0.0337 -0.8618
10101TIP3    H251795   6.404   1.576  -0.015 -0.0672 -1.2132  1.3174
10102TIP3   OH251796   6.533   1.227   4.126 -0.1324 -0.4591 -0.4928
10102TIP3    H151797   6.587   1.195   4.054  0.5494  0.5544 -0.4548
10102TIP3    H251798   6.593   1.234   4.200 -0.6719 -0.8231 -0.0157
10103TIP3   OH251799   6.212   6.584  16.957 -0.1684  0.5201  0.8125
10103TIP3    H151800   6.301   6.589  16.923 -0.5698  0.4346 -0.2928
10103TIP3    H251801   6.213   6.639  17.035  0.8027  0.6731  0.7023
10104TIP3   OH251802   6.553   3.394   4.436  0.4897  0.0041  0.1173
10104TIP3    H151803   6.533   3.317   4.384 -0.9569  1.1684 -1.1749
10104TIP3    H251804   6.636   3.426   4.401  1.9626 -1.7953  1.7590
10105TIP3   OH251805   2.302   1.871   3.223 -0.2147 -0.4167  0.6402
10105TIP3    H151806   2.323   1.780   3.203 -3.0532 -1.3215  1.3558
10105TIP3    H251807   2.309   1.917   3.140 -0.4776 -1.6550 -0.0818
10106TIP3   OH251808   3.429   6.619   0.133 -0.2806 -0.8959  0.0900
10106TIP3    H151809   3.428   6.588   0.043 -3.6825 -0.3250 -0.2263
10106TIP3    H251810   3.521   6.624   0.157  0.7244 -1.1281 -3.3048
10107TIP3   OH251811   1.547   2.949  13.164 -0.4064 -0.4123  0.0674
10107TIP3    H151812   1.513   2.879  13.109 -0.5502 -0.8784  0.7386
10107TIP3    H251813   1.508   3.029  13.127 -2.4521 -0.9412  0.9189
10108TIP3   OH251814   3.847   2.052  13.188  0.2171  0.0959 -0.3561
10108TIP3    H151815   3.843   2.148  13.192  2.2671  0.2422 -0.4983
10108TIP3    H251816   3.769   2.026  13.139 -0.1899  1.7046 -0.6236
10109TIP3   OH251817   0.647   5.446  17.202  0.1589  0.3274  0.1605
10109TIP3    H151818   0.560   5.431  17.165  0.5302 -1.2405 -0.1493
10109TIP3    H251819   0.645   5.537  17.233 -1.8977  0.0255  1.0393
10110TIP3   OH251820   2.032   6.343  11.881  0.1213  0.4961  0.4522
10110TIP3    H151821   1.963   6.354  11.815 -0.0539 -1.4101  0.2584
10110TIP3    H251822   1.985   6.330  11.963  0.2315 -0.5506  0.3623
10111TIP3   OH251823   1.564   5.057  13.048  0.0552  0.5401  0.5901
10111TIP3    H151824   1.566   5.102  13.132  2.3783  1.7413 -0.0114
10111TIP3    H251825   1.473   5.064  13.019 -1.4171 -2.0755  4.0067
10112TIP3   OH251826   1.941   0.097  14.936 -0.4760  0.0321  0.4618
10112TIP3    H151827   1.954   0.002  14.931  0.1666  0.0446  1.5524
10112TIP3    H251828   1.848   0.107  14.956 -1.1450 -0.2477 -2.1329
10113TIP3   OH251829   5.479   6.069  11.441 -0.0730 -0.3333 -0.5237
10113TIP3    H151830   5.472   6.152  11.393  2.5168  1.1761  1.4034
10113TIP3    H251831   5.566   6.036  11.418 -1.6398 -3.5102 -2.5143
10114TIP3   OH251832   0.980   2.676  12.677  0.1196  0.0962 -0.3022
10114TIP3    H151833   0.926   2.752  12.656 -0.2929 -0.5718 -1.8191
10114TIP3    H251834   1.068   2.699  12.645 -0.2969 -0.5398 -2.0302
10115TIP3   OH251835   6.792   3.788  12.601  0.0357  0.7248  0.5871
10115TIP3    H151836   6.831   3.720  12.546 -0.3855  0.5870  0.4505
10115TIP3    H251837   6.846   3.791  12.679  0.3177  0.5391  0.3986
10116TIP3   OH251838   6.799   4.251  16.700 -0.4527  0.4337  0.0854
10116TIP3    H151839   6.799   4.240  16.795  1.2070 -0.7779 -0.0034
10116TIP3    H251840   6.709   4.276  16.679 -1.0914 -0.1518  1.8780
10117TIP3   OH251841   5.627   3.286   1.712  0.3576 -0.1958  0.1670
10117TIP3    H151842   5.695   3.219   1.722  1.2947  0.8557  1.1254
10117TIP3    H251843   5.676   3.366   1.692 -0.6716  0.4101  0.0321
10118TIP3   OH251844   0.840   2.552  14.707  0.1198 -0.0719 -0.2982
10118TIP3    H151845   0.806   2.602  14.782  1.1306 -0.0044  0.1408
10118TIP3    H251846   0.765   2.540  14.650 -0.3406  1.2458 -0.0168
10119TIP3   OH251847   5.748   2.276  11.130 -0.5379 -0.0415 -0.2192
10119TIP3    H151848   5.776   2.355  11.085 -0.1960 -0.1114 -0.1286
10119TIP3    H251849   5.695   2.229  11.065  1.6362 -1.1549 -1.3020
10120TIP3   OH251850   1.784   1.288   3.974 -0.7354 -0.0191 -0.2096
10120TIP3    H151851   1.701   1.281   3.927 -1.6190 -0.8159  1.4046
10120TIP3    H251852   1.845   1.233   3.924 -1.6123 -0.7676 -0.4694
10121TIP3   OH251853   0.792   5.380   4.331  0.3686 -0.1473  0.3559
10121TIP3    H151854   0.843   5.442   4.279 -0.5497 -0.3288 -0.8188
10121TIP3    H251855   0.786   5.302   4.275 -0.1870 -0.5442  0.9570
10122TIP3   OH251856   5.316   3.896  11.433 -0.9472 -0.2140  0.3198
10122TIP3    H151857   5.234   3.935  11.464 -1.8131 -0.3114 -1.6768
10122TIP3    H251858   5.370   3.970  11.406 -0.7337 -0.2010  0.7647
10123TIP3   OH251859   3.823   3.167  15.886 -0.2767 -0.0601  0.3556
10123TIP3    H151860   3.752   3.227  15.863 -0.6515 -0.7377 -0.2960
10123TIP3    H251861   3.861   3.205  15.966 -1.1306  0.5144  0.5068
10124TIP3   OH251862   4.053   0.995   0.137  0.7963 -0.0253 -0.6819
10124TIP3    H151863   4.143   0.996   0.171  0.9995  1.6846 -1.2043
10124TIP3    H251864   4.063   0.996   0.042  0.2861  2.4121 -0.7796
10125TIP3   OH251865   4.198   0.351   2.112  0.9810 -0.1086 -0.4090
10125TIP3    H151866   4.251   0.315   2.183 -0.2437 -1.3019 -0.0625
10125TIP3    H251867   4.147   0.277   2.079 -2.2144  1.3563  0.8239
10126TIP3   OH251868   2.185   5.404   3.742  0.1159 -0.2088  0.1843
10126TIP3    H151869   2.151   5.454   3.668 -1.9458 -3.6396 -1.4242
10126TIP3    H251870   2.146   5.446   3.819  1.7402  2.9957 -0.5266
10127TIP3   OH251871   6.046   4.574  14.601 -0.6020  0.1191 -0.0521
10127TIP3    H151872   6.139   4.554  14.615 -0.3495  1.7731  0.8232
10127TIP3    H251873   6.031   4.553  14.509  0.9591  0.9263 -0.5286
10128TIP3   OH251874   0.571   6.196   3.620  0.2043  0.1493 -0.1389
10128TIP3    H151875   0.631   6.122   3.621  0.6908  0.5177 -0.8627
10128TIP3    H251876   0.529   6.192   3.534  1.6501  1.7848 -0.9839
10129TIP3   OH251877   4.534   1.680   1.965  0.8285  0.1450 -0.0006
10129TIP3    H151878   4.458   1.728   1.932  0.9063 -0.8310 -1.6875
10129TIP3    H251879   4.608   1.716   1.916  0.7261 -2.5098 -2.3505
10130TIP3   OH251880   6.042   2.796   6.057 -0.8658 -0.8682 -0.3195
10130TIP3    H151881   6.041   2.824   6.148  0.2210  0.4446 -0.6695
10130TIP3    H251882   5.950   2.791   6.032 -1.1543  0.2068  0.4563
10131TIP3   OH251883   4.001   4.234   2.024 -0.0543 -0.9896  0.2954
10131TIP3    H151884   3.925   4.185   1.993 -0.7801 -0.3052  0.9676
10131TIP3    H251885   3.967   4.291   2.093  0.6244  0.9434 -0.8936
10132TIP3   OH251886   3.523   6.100  11.990  0.9053 -0.1497  0.7761
10132TIP3    H151887   3.460   6.057  12.048 -1.7948 -1.6413 -2.8777
10132TIP3    H251888   3.482   6.184  11.969  1.0660 -0.2974 -0.1647
10133TIP3   OH251889   1.662   0.080  12.997  0.3108 -0.3227  0.0354
10133TIP3    H151890   1.724   0.083  13.071 -1.3224  0.4106  1.4590
10133TIP3    H251891   1.697   0.144  12.935  0.7577  0.4550  1.0398
10134TIP3   OH251892   0.295   0.641  13.797  0.7570 -0.1196  0.1574
10134TIP3    H151893   0.305   0.726  13.755 -0.8563 -1.0067 -2.2215
10134TIP3    H251894   0.232   0.656  13.868 -2.3689  0.1386 -2.4526
10135TIP3   OH251895   6.767   1.257  11.450 -0.4324 -0.1684 -0.3721
10135TIP3    H151896   6.828   1.311  11.399  0.5106 -0.8749 -0.0104
10135TIP3    H251897   6.817   1.232  11.528 -1.0019 -1.2275 -0.3414
10136TIP3   OH251898   1.802   1.050   3.725 -0.3016  0.6176  0.0366
10136TIP3    H151899   1.793   0.980   3.789  2.2831  0.2268  0.0890
10136TIP3    H251900   1.723   1.043   3.671  0.2953 -3.0708 -0.6433
10137TIP3   OH251901   5.597   2.359  14.695  0.3698 -0.2491 -0.2082
10137TIP3    H151902   5.554   2.437  14.729  0.1118 -0.3282 -0.3547
10137TIP3    H251903   5.687   2.388  14.678  1.0531 -0.6854  2.2907
10138TIP3   OH251904   3.948   4.362   3.614 -0.0867  0.0685 -0.3668
10138TIP3    H151905   3.931   4.300   3.686 -1.7269  0.1899 -0.6115
10138TIP3    H251906   3.983   4.439   3.657  1.2531 -0.7301  0.0284
10139TIP3   OH251907   1.456   5.703  13.836 -0.0769  0.0271 -0.1656
10139TIP3    H151908   1.481   5.657  13.755  0.0491 -2.4962  1.1801
10139TIP3    H251909   1.538   5.738  13.870  0.1529 -0.3496 -0.3221
10140TIP3   OH251910   1.529   0.681  12.465 -0.3989 -0.4595 -0.3037
10140TIP3    H151911   1.614   0.707  12.428  0.1873  0.6922  1.6804
10140TIP3    H251912   1.529   0.585  12.459  1.6374 -0.5924  0.7681
10141TIP3   OH251913   3.123   4.722   3.521 -0.4200  0.0861 -0.4936
10141TIP3    H151914   3.131   4.692   3.611 -0.5660  0.3125 -0.4051
10141TIP3    H251915   3.119   4.817   3.527 -3.2060  0.0552 -0.4875
10142TIP3   OH251916   5.499   6.317  11.888 -0.2936  0.3395  0.6910
10142TIP3    H151917   5.443   6.284  11.818  0.9084 -2.5987  0.9549
10142TIP3    H251918   5.446   6.306  11.967 -0.3658  0.1937  0.6252
10143TIP3   OH251919   0.117   3.335   5.125 -0.2383  0.4394  0.1438
10143TIP3    H151920   0.155   3.399   5.185  0.7868 -1.7520  1.9903
10143TIP3    H251921   0.190   3.307   5.070  0.0744 -1.2514  1.3565
10144TIP3   OH251922   3.354   6.472  11.454 -0.3428 -0.3773 -0.2626
10144TIP3    H151923   3.423   6.463  11.388  0.0383 -1.5057  0.2673
10144TIP3    H251924   3.401   6.471  11.537 -0.8685  0.4981  0.0578
10145TIP3   OH251925   6.319   0.630  16.282 -0.0642 -0.2856 -0.2686
10145TIP3    H151926   6.277   0.596  16.361  0.7380  1.4958  0.9850
10145TIP3    H251927   6.262   0.701  16.254  0.4205  0.0307 -0.4506
10146TIP3   OH251928   6.176   1.648   0.810 -0.3544  0.1580  0.1735
10146TIP3    H151929   6.097   1.595   0.801 -2.5777  3.4476 -1.2633
10146TIP3    H251930   6.221   1.638   0.726 -0.7625  0.5086 -0.0905
10147TIP3   OH251931   0.226   6.608  15.962  0.5755 -0.2536  0.2316
10147TIP3    H151932   0.314   6.620  15.926  0.3739 -2.4291 -1.1746
10147TIP3    H251933   0.235   6.537  16.025 -0.2288 -0.8370 -0.2854
10148TIP3   OH251934   1.161   3.652   5.886  0.2511  0.0660 -0.2189
10148TIP3    H151935   1.067   3.644   5.872  0.0456  1.4946  0.2492
10148TIP3    H251936   1.173   3.641   5.980  0.5087  0.3080 -0.2209
10149TIP3   OH251937   2.766   4.583  15.072 -0.3595  0.1786 -0.3237
10149TIP3    H151938   2.712   4.555  15.145 -1.2888  0.3189 -0.9464
10149TIP3    H251939   2.778   4.677  15.086 -1.3798  0.3984 -0.8835
10150TIP3   OH251940   5.317   1.295   5.794 -0.1932 -0.4075  0.0612
10150TIP3    H151941   5.396   1.298   5.741  0.7375  1.9602  1.4328
10150TIP3    H251942   5.329   1.219   5.851  0.5277 -0.7695 -0.5592
10151TIP3   OH251943   4.108   6.557   0.623  0.2707 -0.0238  0.1532
10151TIP3    H151944   4.145   6.485   0.572 -0.1087 -0.4891  0.5231
10151TIP3    H251945   4.038   6.517   0.673 -0.6752  0.8302 -0.4546
10152TIP3   OH251946   2.404   4.349  15.782  0.1837 -0.3532 -0.0840
10152TIP3    H151947   2.320   4.384  15.752  0.9510  1.3029 -0.4094
10152TIP3    H251948   2.456   4.340  15.702 -0.2459 -3.2103 -0.1548
10153TIP3   OH251949   0.060   0.900  14.597  0.1320  0.0199 -0.7908
10153TIP3    H151950   0.013   0.889  14.680  0.2905 -0.4970 -0.7675
10153TIP3    H251951   0.015   0.973  14.553 -0.4295 -0.2051 -0.5896
10154TIP3   OH251952   5.991   2.060   1.654  0.7843 -0.1332  0.1042
10154TIP3    H151953   6.008   1.971   1.687  0.6387  0.0056  0.5671
10154TIP3    H251954   6.035   2.117   1.717  0.2550  0.1487  0.2237
10155TIP3   OH251955   0.648   2.412  13.207 -0.0998 -0.2368  0.0720
10155TIP3    H151956   0.686   2.493  13.242  0.5023  1.1433 -3.4087
10155TIP3    H251957   0.724   2.354  13.195  0.0492  0.1538 -0.9772
10156TIP3   OH251958   4.236   3.437  15.657  0.2794  0.4606  0.0150
10156TIP3    H151959   4.316   3.488  15.674 -0.5919  2.2097 -0.8393
10156TIP3    H251960   4.195   3.427  15.743  0.1616  1.8155  0.1464
10157TIP3   OH251961   0.155   4.719  12.176  0.3698  0.7023  0.4256
10157TIP3    H151962   0.158   4.627  12.202 -1.4440  0.2543 -0.7766
10157TIP3    H251963   0.167   4.767  12.258  0.8381 -0.6018  1.1480
10158TIP3   OH251964   0.544   0.051   0.830  0.3599  0.4597 -0.2927
10158TIP3    H151965   0.555   0.051   0.735 -0.6457 -1.8650 -0.4749
10158TIP3    H251966   0.633   0.063   0.865  1.0616 -0.7022 -1.5695
10159TIP3   OH251967   2.188   6.681  12.262 -0.5100 -0.2891 -0.0143
10159TIP3    H151968   2.145   6.665  12.178  1.5987  2.2656 -1.7251
10159TIP3    H251969   2.277   6.650  12.250 -0.1915  0.0489  1.3178
10160TIP3   OH251970   5.254   0.020  12.809 -0.4007 -0.0074  0.3622
10160TIP3    H151971   5.182  -0.006  12.751  1.5627  0.4609 -2.4843
10160TIP3    H251972   5.246   0.115  12.817 -0.8902 -0.1076  1.2771
10161TIP3   OH251973   0.045   2.380   4.819  0.6389 -0.2778  0.3071
10161TIP3    H151974   0.063   2.350   4.907 -2.0014  1.5338  1.6049
10161TIP3    H251975   0.075   2.471   4.818 -1.5632  0.5172  0.2517
10162TIP3   OH251976   5.275   0.349  11.687 -0.1911  0.0771 -0.0740
10162TIP3    H151977   5.197   0.340  11.633 -0.5786 -1.0362  0.6293
10162TIP3    H251978   5.276   0.441  11.714 -1.1644  0.1380 -0.2271
10163TIP3   OH251979   2.637   3.100  10.515  0.2177  0.1551 -0.0079
10163TIP3    H151980   2.722   3.070  10.547 -0.1784 -0.7576  0.2096
10163TIP3    H251981   2.655   3.186  10.477  1.3491 -0.2884 -0.5226
10164TIP3   OH251982   4.604   4.798  16.061 -0.2265 -0.1760  0.1342
10164TIP3    H151983   4.534   4.828  16.119  0.7035 -0.3115  1.3524
10164TIP3    H251984   4.671   4.763  16.119  0.0542 -1.7984 -1.0986
10165TIP3   OH251985   1.467   5.851  13.486 -0.1824 -0.3377  0.2818
10165TIP3    H151986   1.533   5.837  13.419  1.4844  1.1796  1.5031
10165TIP3    H251987   1.505   5.814  13.565  0.1256  2.1629  1.4159
10166TIP3   OH251988   3.338   2.154  12.497  0.0386  0.3224  0.1591
10166TIP3    H151989   3.402   2.180  12.430  2.2471 -1.6691  1.3300
10166TIP3    H251990   3.312   2.065  12.472 -0.1650  0.0806  1.1701
10167TIP3   OH251991   5.801   3.213  16.192 -0.6704 -0.0863  0.0797
10167TIP3    H151992   5.733   3.279  16.206 -0.0501  0.2260  1.9182
10167TIP3    H251993   5.880   3.264  16.172 -0.3125 -0.2824  0.9692
10168TIP3   OH251994   3.570   5.627  13.055 -0.1955 -0.2404  0.8163
10168TIP3    H151995   3.609   5.660  12.974 -0.8546 -2.6220 -0.6019
10168TIP3    H251996   3.561   5.703  13.111  2.1355  1.1808 -0.5723
10169TIP3   OH251997   6.469   4.603  11.443  0.1112 -0.1836  0.2596
10169TIP3    H151998   6.419   4.684  11.440  0.7538  0.1970 -0.7386
10169TIP3    H251999   6.407   4.535  11.416 -0.1317  0.1412 -0.0032
10170TIP3   OH252000   3.663   5.807  11.927 -0.0806  0.0288 -0.1033
10170TIP3    H152001   3.624   5.891  11.904  0.2277 -0.1544 -1.3901
10170TIP3    H252002   3.739   5.830  11.981 -0.9171  0.4753  0.8968
10171TIP3   OH252003   4.057   6.621   2.271  0.6980 -0.0791  0.1491
10171TIP3    H152004   4.060   6.707   2.312  0.1104 -0.1949  0.4494
10171TIP3    H252005   4.087   6.635   2.182 -1.5227  0.8768 -0.5247
10172TIP3   OH252006   2.327   1.207   2.216  0.0444 -0.1958 -0.0736
10172TIP3    H152007   2.258   1.214   2.282  1.0072 -1.7781  1.1816
10172TIP3    H252008   2.297   1.138   2.157  0.5509 -0.9474  0.5241
10173TIP3   OH252009   4.814   4.276   0.798 -0.1258  0.6004  0.2182
10173TIP3    H152010   4.782   4.340   0.861  1.4596  1.3135  0.3306
10173TIP3    H252011   4.765   4.196   0.818 -0.7981  1.2575  1.2817
10174TIP3   OH252012   3.947   4.461  15.736 -0.0888  0.1715  0.4596
10174TIP3    H152013   3.948   4.382  15.681  0.2836  1.1216 -0.9477
10174TIP3    H252014   3.858   4.465  15.770 -0.1664 -0.7540  0.3976
10175TIP3   OH252015   5.946   2.086   0.571 -0.1130  0.2356 -0.7355
10175TIP3    H152016   5.971   2.044   0.489 -0.1362 -0.1113 -0.5688
10175TIP3    H252017   6.020   2.069   0.630  0.1246  0.9148 -0.8333
10176TIP3   OH252018   3.324   2.799   5.732  0.1268  0.1142  1.0751
10176TIP3    H152019   3.295   2.861   5.666 -0.3441  1.3239  2.3716
10176TIP3    H252020   3.315   2.713   5.690  1.6412  0.9147 -1.0776
10177TIP3   OH252021   2.444   3.088   2.181 -0.0469 -0.2663 -0.0233
10177TIP3    H152022   2.356   3.082   2.217 -0.4244 -1.7017 -1.0785
10177TIP3    H252023   2.448   3.018   2.115  2.4878 -1.5516  1.3118
10178TIP3   OH252024   5.935   6.807   5.989  0.4988  0.3655  0.1704
10178TIP3    H152025   5.897   6.876   6.042  1.7686  1.4353 -0.2539
10178TIP3    H252026   5.909   6.726   6.032 -0.4668  1.1213  1.0525
10179TIP3   OH252027   1.851   1.674   3.445 -0.1077  0.8894  0.1058
10179TIP3    H152028   1.835   1.637   3.358  0.6418  2.5841 -0.7981
10179TIP3    H252029   1.810   1.612   3.506  1.4450 -1.6549 -1.2711
10180TIP3   OH252030   0.430   4.892   4.809  0.2157 -0.1353  0.1298
10180TIP3    H152031   0.388   4.840   4.877 -2.5907 -0.5761 -1.7710
10180TIP3    H252032   0.481   4.829   4.758  0.7058 -0.1458  0.6219
10181TIP3   OH252033   1.785   1.535   3.853 -0.1482  0.5151  0.1156
10181TIP3    H152034   1.877   1.560   3.858  0.0133  0.1115 -0.7343
10181TIP3    H252035   1.779   1.452   3.899  0.2553 -0.3416 -1.3368
10182TIP3   OH252036   5.323   3.007  11.710 -0.2949  0.5340  0.4643
10182TIP3    H152037   5.387   3.012  11.639 -0.2548  0.2247  0.4739
10182TIP3    H252038   5.334   3.088  11.759 -0.3334  0.7557  0.1060
10183TIP3   OH252039   2.262   5.677  15.258  0.0716 -0.7107  0.6806
10183TIP3    H152040   2.169   5.654  15.265 -0.6488  1.4947 -0.6424
10183TIP3    H252041   2.272   5.754  15.314  0.6858  0.0827 -0.4868
10184TIP3   OH252042   4.234   0.281   3.587  0.2927  0.2491 -0.1628
10184TIP3    H152043   4.316   0.317   3.553  0.4266  0.2529  0.1601
10184TIP3    H252044   4.246   0.186   3.583  0.4784  0.2501  0.2710
10185TIP3   OH252045   2.542   5.904  16.547  0.0136 -0.0801 -0.1669
10185TIP3    H152046   2.484   5.874  16.617 -0.0395  0.4968  0.0412
10185TIP3    H252047   2.485   5.916  16.471 -0.8103  3.5394  0.8438
10186TIP3   OH252048   6.702   3.409   1.914  0.5267 -0.3340  0.0771
10186TIP3    H152049   6.687   3.475   1.846 -2.0322  0.2072  1.0591
10186TIP3    H252050   6.691   3.325   1.868 -1.0640  0.0197 -0.2719
10187TIP3   OH252051   6.315   1.933  16.019 -0.0585  0.2020  0.5960
10187TIP3    H152052   6.371   1.855  16.009 -1.0259 -0.2538 -2.0290
10187TIP3    H252053   6.352   1.997  15.958 -0.4420  1.1278  1.3111
10188TIP3   OH252054   1.056   4.699   5.108  0.7705 -0.1711 -0.1736
10188TIP3    H152055   1.150   4.691   5.127  0.6051 -0.0609  0.7315
10188TIP3    H252056   1.043   4.647   5.029  1.5041 -0.6223 -0.0090
10189TIP3   OH252057   6.604   2.736  13.537  0.1207  0.1271  0.8109
10189TIP3    H152058   6.522   2.782  13.520 -1.3537 -1.8653  2.0652
10189TIP3    H252059   6.612   2.675  13.464  1.2642  1.2484 -0.0404
10190TIP3   OH252060   1.311   2.331  12.756  1.1517 -0.2832 -0.0403
10190TIP3    H152061   1.292   2.244  12.792  1.2881 -0.1465  0.3702
10190TIP3    H252062   1.355   2.314  12.673  0.1533 -0.6073 -0.5262
10191TIP3   OH252063   5.712   0.622   1.920  0.3551  0.2669  0.1858
10191TIP3    H152064   5.793   0.670   1.903 -0.9597  2.2682 -0.8185
10191TIP3    H252065   5.703   0.563   1.845  0.6648  0.3409  0.0877
10192TIP3   OH252066   2.055   5.109   3.479 -0.3856 -0.1375 -0.6117
10192TIP3    H152067   2.052   5.082   3.571  0.9350  0.2408 -0.4315
10192TIP3    H252068   2.036   5.202   3.480  2.9828  0.6907 -0.2476
10193TIP3   OH252069   3.808   6.425  13.361 -0.0332 -0.6685  0.0912
10193TIP3    H152070   3.864   6.497  13.386 -1.0068 -0.1495  0.8493
10193TIP3    H252071   3.720   6.463  13.355 -0.6023 -1.8032  0.6954
10194TIP3   OH252072   5.964   3.182   2.782  0.3659  0.1996 -0.8252
10194TIP3    H152073   5.907   3.259   2.777  0.7481  0.4860 -0.8585
10194TIP3    H252074   5.904   3.108   2.783 -0.0304  0.5261 -0.0087
10195TIP3   OH252075   2.969   3.961   6.554  0.1713 -0.3652  0.1340
10195TIP3    H152076   2.884   3.929   6.524  0.3498 -0.6205 -0.1022
10195TIP3    H252077   3.033   3.898   6.519  0.6691  1.0209 -1.5812
10196TIP3   OH252078   1.952   2.889  17.274 -0.1540  0.1072  0.4498
10196TIP3    H152079   1.924   2.825  17.208 -0.6860 -1.0353  1.7268
10196TIP3    H252080   1.891   2.875  17.347  0.5780  1.1592  1.2766
10197TIP3   OH252081   4.782   3.176   4.208 -0.3517  0.0323 -0.2771
10197TIP3    H152082   4.868   3.215   4.194 -0.7183  2.0759  2.4437
10197TIP3    H252083   4.799   3.083   4.220  1.8796  0.6808  2.5740
10198TIP3   OH252084   3.474   0.776   1.216  0.1803  0.0885  0.3653
10198TIP3    H152085   3.504   0.686   1.204  0.2547  0.1632 -0.0238
10198TIP3    H252086   3.506   0.800   1.303  1.3097  0.1752 -0.0454
10199TIP3   OH252087   6.222   5.021   0.421 -0.2939  0.0496 -0.6531
10199TIP3    H152088   6.318   5.014   0.419 -0.2351  0.4780  0.2310
10199TIP3    H252089   6.203   5.100   0.371 -0.1107  0.5165  0.0003
10200TIP3   OH252090   2.737   3.900  14.681 -0.1704 -0.4019 -0.1004
10200TIP3    H152091   2.673   3.959  14.723  0.7129 -0.0623  0.8160
10200TIP3    H252092   2.792   3.958  14.629 -1.0261 -0.7809 -1.4686
10201TIP3   OH252093   5.846   4.959   2.021  0.1336 -0.0062  0.0833
10201TIP3    H152094   5.842   4.889   2.086  1.0263 -1.0824 -0.9692
10201TIP3    H252095   5.812   4.919   1.940 -0.0191  0.9924 -0.3648
10202TIP3   OH252096   4.735   5.956   0.276 -0.3232 -1.0682  0.6343
10202TIP3    H152097   4.643   5.935   0.295 -0.7520 -1.0757 -1.2168
10202TIP3    H252098   4.760   5.891   0.210  1.3164 -1.6159  1.7449
10203TIP3   OH252099   4.412   4.227  11.331 -0.2448 -0.3300  0.7591
10203TIP3    H152100   4.403   4.133  11.316 -0.5322 -0.3236  0.8782
10203TIP3    H252101   4.326   4.263  11.309  0.1257  0.0190 -0.1311
10204TIP3   OH252102   2.918   0.623   4.640 -0.1661  0.4556 -0.3632
10204TIP3    H152103   2.950   0.631   4.730  0.6962  1.6277 -0.7470
10204TIP3    H252104   2.913   0.713   4.608 -0.8066  0.0782 -1.3837
10205TIP3   OH252105   6.014   2.421  10.323  0.5195 -0.2080 -0.0849
10205TIP3    H152106   5.972   2.506  10.331  0.7262 -0.2406  1.8095
10205TIP3    H252107   6.042   2.399  10.412  0.7872 -2.0950 -0.5834
10206TIP3   OH252108   5.679   5.277   0.452 -0.0537  0.7323  0.0035
10206TIP3    H152109   5.697   5.338   0.523 -2.1506  1.0060  0.3441
10206TIP3    H252110   5.677   5.331   0.373 -0.3563  0.8630  0.0989
10207TIP3   OH252111   2.171   1.309   1.433  0.3279 -0.4176 -0.2585
10207TIP3    H152112   2.251   1.260   1.452  0.7647 -0.1984 -1.4717
10207TIP3    H252113   2.132   1.326   1.519  2.0318  0.2298  0.4202
10208TIP3   OH252114   5.057   2.068  12.410 -0.2492 -0.0654  0.4426
10208TIP3    H152115   5.126   2.129  12.383 -0.7001 -0.3022 -1.4450
10208TIP3    H252116   5.007   2.053  12.330 -0.1482 -2.9236  0.8027
10209TIP3   OH252117   2.269   4.196  10.068  0.4374 -0.3536  0.1060
10209TIP3    H152118   2.359   4.228  10.080  0.4941 -0.5300  0.1569
10209TIP3    H252119   2.222   4.270  10.030  0.0708  0.4917  2.0948
10210TIP3   OH252120   5.603   2.328   5.247 -0.3027 -0.1663  0.0185
10210TIP3    H152121   5.692   2.325   5.282 -0.1229 -0.5729 -0.4735
10210TIP3    H252122   5.609   2.389   5.173 -0.3507 -0.4793 -0.2436
10211TIP3   OH252123   0.016   3.746  12.172  0.2614 -0.2969 -0.2813
10211TIP3    H152124  -0.035   3.822  12.200  0.2256 -1.0761  2.0409
10211TIP3    H252125   0.100   3.783  12.143  0.5558  0.6280  1.5767
10212TIP3   OH252126   6.380   1.762  14.091 -0.5021 -0.6146  0.0900
10212TIP3    H152127   6.303   1.755  14.148  0.4386 -0.1440  1.4723
10212TIP3    H252128   6.410   1.852  14.102 -0.4341 -0.4350 -1.3787
10213TIP3   OH252129   5.756   0.450   3.644  0.6207 -0.0411  0.5553
10213TIP3    H152130   5.825   0.515   3.658  0.1735  0.1782  1.9557
10213TIP3    H252131   5.799   0.379   3.596  1.9416 -0.0742  1.7013
10214TIP3   OH252132   4.888   4.514  15.365 -0.2118 -0.4402 -0.4720
10214TIP3    H152133   4.834   4.575  15.416  0.7454 -1.2315  1.6276
10214TIP3    H252134   4.844   4.507  15.280 -1.7233  1.2073  0.1236
10215TIP3   OH252135   3.687   5.780   4.865 -0.2748  0.4210  0.4718
10215TIP3    H152136   3.642   5.826   4.936  0.9467 -0.4220  1.8301
10215TIP3    H252137   3.768   5.830   4.852  0.8231 -0.9974  1.6159
10216TIP3   OH252138   3.119   5.031  10.745  0.2663  0.4192  0.3412
10216TIP3    H152139   3.126   4.964  10.813  1.4141  0.6232  0.4425
10216TIP3    H252140   3.210   5.057  10.728 -0.0948  1.1891 -0.4524
10217TIP3   OH252141   1.191   4.803  15.758  0.2153  0.0364  0.1219
10217TIP3    H152142   1.154   4.814  15.670 -1.4300 -2.8577  0.3377
10217TIP3    H252143   1.115   4.802  15.816  1.0679 -0.7545  1.2551
10218TIP3   OH252144   2.449   2.586  13.832  0.7380  0.0962  0.4420
10218TIP3    H152145   2.387   2.608  13.762  0.7893  1.1893  0.7286
10218TIP3    H252146   2.488   2.670  13.857  1.2416 -0.3812  1.2976
10219TIP3   OH252147   3.707   5.420   3.469  0.2780 -0.0038 -0.1366
10219TIP3    H152148   3.718   5.337   3.515  0.8055  0.0412 -0.1786
10219TIP3    H252149   3.641   5.467   3.521 -0.4208 -0.6535 -0.4058
10220TIP3   OH252150   6.145   6.083   4.226  0.0918 -0.4763  0.1617
10220TIP3    H152151   6.239   6.068   4.214 -0.2878 -2.4934 -0.7080
10220TIP3    H252152   6.105   5.999   4.204 -2.1575  1.1334 -2.6103
10221TIP3   OH252153   4.796   2.519   3.809 -0.0679 -0.6069 -0.1581
10221TIP3    H152154   4.764   2.595   3.761 -0.1527 -0.4554  0.1397
10221TIP3    H252155   4.757   2.444   3.764 -3.7680 -0.3652  2.2405
10222TIP3   OH252156   0.889   1.252  14.179  0.7315 -0.5281 -0.3960
10222TIP3    H152157   0.844   1.335  14.165 -0.4640 -1.0147  0.4221
10222TIP3    H252158   0.910   1.221  14.090  2.2869  1.1891 -0.6892
10223TIP3   OH252159   0.541   0.831  14.523  0.8820 -0.8462  0.1191
10223TIP3    H152160   0.535   0.765  14.454 -0.6937 -1.8686  1.1705
10223TIP3    H252161   0.456   0.829  14.565  2.0615 -0.8856  2.6772
10224TIP3   OH252162   3.435   4.329   0.178  0.1238  0.1038  0.2766
10224TIP3    H152163   3.391   4.410   0.203 -0.4128 -0.7104  2.1330
10224TIP3    H252164   3.502   4.356   0.115 -1.9881  1.5691 -1.5029
10225TIP3   OH252165   5.359   3.917   1.911  0.5463  0.3128 -0.2128
10225TIP3    H152166   5.430   3.891   1.970 -0.2059  0.3014  0.6972
10225TIP3    H252167   5.379   4.008   1.888  0.3160  0.6454  0.8635
10226TIP3   OH252168   4.342   4.517   0.746 -0.0535 -0.6144 -0.1194
10226TIP3    H152169   4.273   4.491   0.685 -0.2708  1.5745 -0.8843
10226TIP3    H252170   4.399   4.575   0.696  0.7699 -0.1398  1.2879
10227TIP3   OH252171   5.082   0.122  17.259 -0.0918  0.0158 -0.2604
10227TIP3    H152172   5.065   0.043  17.208 -0.3374 -0.6749  0.8516
10227TIP3    H252173   4.999   0.139  17.305  0.1557  0.5468  0.0006
10228TIP3   OH252174   4.856   3.253   1.602 -0.0203 -0.2647 -0.3379
10228TIP3    H152175   4.893   3.338   1.625 -1.0347  0.2808 -0.6820
10228TIP3    H252176   4.779   3.273   1.550 -1.5411 -1.3278  1.4007
10229TIP3   OH252177   4.933   0.699   2.677 -0.3123  0.4064 -0.2520
10229TIP3    H152178   4.877   0.776   2.679  0.1163  0.7165  2.0423
10229TIP3    H252179   4.942   0.673   2.768  1.4010 -1.0178 -0.7687
10230TIP3   OH252180   3.997   4.855  10.723 -0.0064 -0.5125  0.2493
10230TIP3    H152181   4.012   4.931  10.780 -1.0774 -0.0005 -0.1304
10230TIP3    H252182   3.906   4.864  10.694  0.8587 -0.0267 -2.5973
10231TIP3   OH252183   0.029   3.046   6.221  0.0787  0.6770  0.1139
10231TIP3    H152184   0.116   3.016   6.193 -0.3238  1.8800 -2.6869
10231TIP3    H252185   0.048   3.111   6.289  1.1093 -1.8636  2.5159
10232TIP3   OH252186   1.940   1.303  16.644 -0.4644  0.0917  0.0699
10232TIP3    H152187   1.857   1.269  16.678 -0.0603 -0.7821  0.2114
10232TIP3    H252188   1.928   1.306  16.549 -0.9562  0.7921  0.1520
10233TIP3   OH252189   5.433   0.976   2.353 -0.2510  0.2928  0.3895
10233TIP3    H152190   5.386   1.035   2.411  0.3604  0.8502  0.3317
10233TIP3    H252191   5.447   1.028   2.273  1.3556  0.4938  0.7861
10234TIP3   OH252192   1.583   6.754  12.144 -0.3549 -0.2485 -0.3563
10234TIP3    H152193   1.491   6.779  12.139  0.1457  1.6115 -1.2750
10234TIP3    H252194   1.630   6.837  12.156  1.1378 -1.2609  1.2349
10235TIP3   OH252195   3.258   5.565  13.303 -0.6764  0.6854 -0.4252
10235TIP3    H152196   3.232   5.510  13.377 -0.6156 -0.2223 -1.0643
10235TIP3    H252197   3.346   5.593  13.324  0.1916 -1.3242 -1.1000
10236TIP3   OH252198   1.055   1.705  11.474  0.1900  0.0368 -0.6637
10236TIP3    H152199   1.082   1.627  11.424 -0.3616 -0.7491  0.2330
10236TIP3    H252200   1.138   1.746  11.499  0.5335 -0.9038 -0.1808
10237TIP3   OH252201   6.434   6.544  15.535  0.1611  0.0322  0.1541
10237TIP3    H152202   6.375   6.591  15.595 -0.4925  0.6922 -0.9739
10237TIP3    H252203   6.381   6.527  15.457  0.9778 -0.8728 -0.2193
10238TIP3   OH252204   4.225   5.486   3.684  0.1765 -0.0804 -0.2483
10238TIP3    H152205   4.303   5.435   3.707  1.0621 -0.0037 -2.7573
10238TIP3    H252206   4.195   5.523   3.767  1.0842 -2.4504  1.2443
10239TIP3   OH252207   1.968   5.970  12.374  0.2577  0.5341  0.3657
10239TIP3    H152208   1.955   5.960  12.279 -0.8637  1.6010  0.3728
10239TIP3    H252209   1.893   5.924  12.413  1.6241 -1.3931  0.8318
10240TIP3   OH252210   1.960   6.144   0.854  0.7256 -0.3706 -0.0239
10240TIP3    H152211   2.004   6.085   0.794 -0.8339 -2.4302  0.7380
10240TIP3    H252212   1.946   6.224   0.804 -2.1053 -2.5472 -3.1577
10241TIP3   OH252213   1.711   1.415  14.519 -0.1328 -0.0057  0.8492
10241TIP3    H152214   1.767   1.384  14.448 -0.9089  2.8103 -1.1313
10241TIP3    H252215   1.766   1.475  14.569 -0.7089  1.0901  0.1967
10242TIP3   OH252216   4.651   5.630  12.422 -0.4126  0.4104 -0.1475
10242TIP3    H152217   4.733   5.597  12.385  0.3720 -2.0416  3.2713
10242TIP3    H252218   4.603   5.552  12.447 -2.9581  1.8519 -0.2277
10243TIP3   OH252219   0.315   2.689  13.521  0.1207  0.0591  0.0379
10243TIP3    H152220   0.406   2.689  13.549  0.1134 -0.9625  0.0997
10243TIP3    H252221   0.311   2.758  13.454  0.8772  0.2866  0.2149
10244TIP3   OH252222   6.619   5.417   1.989 -0.1776 -0.0043  0.3587
10244TIP3    H152223   6.647   5.331   1.957  0.0616 -0.2022  1.0862
10244TIP3    H252224   6.552   5.445   1.927  0.2391 -0.4018 -0.2842
10245TIP3   OH252225   0.766   1.429  15.133 -0.4204  0.3003  0.1036
10245TIP3    H152226   0.814   1.467  15.060 -0.6986  0.1578 -0.1595
10245TIP3    H252227   0.695   1.491  15.150 -0.1310  0.5227  0.5059
10246TIP3   OH252228   2.890   2.836  16.572 -0.1738  0.1317  0.1416
10246TIP3    H152229   2.951   2.765  16.591 -0.8987 -0.4980  0.1747
10246TIP3    H252230   2.805   2.803  16.603 -0.6537  0.7098 -0.5364
10247TIP3   OH252231   4.965   3.141  15.928  0.1299 -0.1074  0.0925
10247TIP3    H152232   5.029   3.208  15.906 -0.1787 -0.3646 -1.8513
10247TIP3    H252233   4.934   3.109  15.843 -1.8793 -0.6457  0.9499
10248TIP3   OH252234   1.617   2.769  12.286 -0.5052  0.5181  0.3448
10248TIP3    H152235   1.549   2.833  12.310  0.1248  1.2151  0.3150
10248TIP3    H252236   1.700   2.814  12.304 -0.0447 -0.4149  0.6292
10249TIP3   OH252237   1.160   5.449   1.267 -0.0238  0.2471  0.0352
10249TIP3    H152238   1.136   5.402   1.346  0.8550  1.4197  1.0443
10249TIP3    H252239   1.203   5.384   1.211 -0.1876 -0.4706  0.7377
10250TIP3   OH252240   5.251   0.227   0.927  0.0936  0.3173 -0.1302
10250TIP3    H152241   5.268   0.310   0.882 -0.4373  1.1923  1.2207
10250TIP3    H252242   5.162   0.236   0.960 -0.1038 -0.9593 -0.2754
10251TIP3   OH252243   4.900   1.458  12.476 -0.2582  0.4101  0.4449
10251TIP3    H152244   4.987   1.489  12.454 -0.6696  1.8201  0.7095
10251TIP3    H252245   4.846   1.479  12.400 -0.5597  0.3678  0.6426
10252TIP3   OH252246   0.250   3.568   2.222 -0.5245  0.7194 -0.1659
10252TIP3    H152247   0.217   3.635   2.282 -2.2177 -1.2531  1.2930
10252TIP3    H252248   0.195   3.577   2.144  0.2497  1.9317 -0.5948
10253TIP3   OH252249   4.255   0.940   5.446 -0.3466  0.0846  0.4142
10253TIP3    H152250   4.322   0.962   5.511 -0.7114 -1.4117  1.3531
10253TIP3    H252251   4.282   0.854   5.412 -1.6635 -0.4594  0.6776
10254TIP3   OH252252   2.973   3.479  14.753  0.1156 -0.4082 -0.0910
10254TIP3    H152253   2.905   3.412  14.751  0.5415 -0.8475  0.0023
10254TIP3    H252254   3.026   3.458  14.830 -0.1255  0.4174  0.3161
10255TIP3   OH252255   4.815   1.135   1.125 -0.5829 -0.0093 -0.4935
10255TIP3    H152256   4.905   1.109   1.146 -0.0616  0.5694 -1.8435
10255TIP3    H252257   4.798   1.094   1.040 -2.3434 -1.7201  0.6060
10256TIP3   OH252258   5.226   0.724   0.580 -0.2259 -0.4767  0.4119
10256TIP3    H152259   5.138   0.742   0.614 -0.0851 -1.3694  1.2829
10256TIP3    H252260   5.285   0.760   0.646  0.0530 -1.8853  0.9551
10257TIP3   OH252261   1.726   2.906  16.824  0.2769  0.3792  0.1523
10257TIP3    H152262   1.813   2.890  16.862  0.4986  1.1881 -0.0111
10257TIP3    H252263   1.744   2.948  16.740 -0.2118 -1.2870 -0.8491
10258TIP3   OH252264   6.192   1.616  11.133 -0.2448  0.8987 -0.2367
10258TIP3    H152265   6.165   1.682  11.069  1.7168  1.0444 -0.9807
10258TIP3    H252266   6.180   1.533  11.088  0.4301  0.9586 -0.5384
10259TIP3   OH252267   3.388   3.170   5.001 -0.1524 -0.0202  0.3231
10259TIP3    H152268   3.478   3.189   5.027 -0.1068  1.4111 -0.7470
10259TIP3    H252269   3.350   3.256   4.981 -1.5928 -0.6496  0.2268
10260TIP3   OH252270   2.971   0.379   2.571 -0.4138  0.1363  0.1394
10260TIP3    H152271   2.916   0.301   2.575 -0.1706 -0.0571 -0.2685
10260TIP3    H252272   2.929   0.441   2.631 -1.7531  0.4168 -1.0250
10261TIP3   OH252273   0.044   2.315  16.315 -0.0153 -0.4030  0.3302
10261TIP3    H152274   0.023   2.242  16.373 -1.6848 -1.5878 -1.6285
10261TIP3    H252275  -0.034   2.370  16.315 -0.2123 -0.6473 -1.0544
10262TIP3   OH252276   5.120   2.600  16.729 -0.3219 -0.2864 -0.1450
10262TIP3    H152277   5.069   2.534  16.776 -1.1340  0.8709  0.6588
10262TIP3    H252278   5.153   2.554  16.652 -0.9334 -1.5984  0.3386
10263TIP3   OH252279   2.821   3.072  15.883 -0.1686  0.1837  0.3912
10263TIP3    H152280   2.774   3.151  15.858  0.3666  1.1434  2.2431
10263TIP3    H252281   2.913   3.091  15.866 -0.0148  0.0451  1.0270
10264TIP3   OH252282   3.593   6.505  12.056 -0.2681  0.4176  0.4558
10264TIP3    H152283   3.688   6.510  12.057 -0.2784  0.7013  1.3946
10264TIP3    H252284   3.572   6.456  11.977  0.7041 -0.7290  0.8803
10265TIP3   OH252285   2.371   5.931  15.357 -0.7220  0.4093  0.9599
10265TIP3    H152286   2.466   5.943  15.363 -0.6909 -0.3730  2.5468
10265TIP3    H252287   2.335   6.019  15.370 -0.2348  0.9282 -0.8440
10266TIP3   OH252288   5.923   5.627  15.111  0.2091 -0.1451 -0.0993
10266TIP3    H152289   5.918   5.722  15.095  1.7003  0.3096  1.8642
10266TIP3    H252290   5.840   5.607  15.155 -0.6762 -0.0542 -1.6190
10267TIP3   OH252291   0.941   0.415   5.646 -0.3368 -0.7233 -0.4732
10267TIP3    H152292   1.029   0.428   5.681  0.3148 -1.8414 -1.5819
10267TIP3    H252293   0.927   0.488   5.586 -0.2975 -0.3698 -0.0527
10268TIP3   OH252294   1.774   6.122  17.108 -0.0097 -0.2023 -1.0457
10268TIP3    H152295   1.687   6.146  17.076 -0.0665  3.3048  1.2548
10268TIP3    H252296   1.757   6.055  17.175 -1.2036  1.5953  0.5318
10269TIP3   OH252297   1.646   3.730   3.773 -0.1934 -0.4438  0.1672
10269TIP3    H152298   1.671   3.745   3.682 -1.0363  2.0250  0.2625
10269TIP3    H252299   1.557   3.763   3.780  0.6865  1.8581  2.3916
10270TIP3   OH252300   5.595   0.367   2.360 -0.3102  0.5324 -0.4428
10270TIP3    H152301   5.572   0.437   2.299  1.4201 -1.7357 -4.0751
10270TIP3    H252302   5.690   0.371   2.367 -0.4281  0.6818  2.2926
10271TIP3   OH252303   1.571   4.527   1.847 -0.5110 -0.2305  0.3367
10271TIP3    H152304   1.638   4.542   1.913  0.2443 -0.8970 -0.2578
10271TIP3    H252305   1.515   4.604   1.850  1.5551  1.3996 -0.6725
10272TIP3   OH252306   4.046   2.082   5.206 -0.3989 -0.0576 -0.1162
10272TIP3    H152307   4.059   2.002   5.258 -0.0421  0.4487  0.5989
10272TIP3    H252308   3.952   2.088   5.194 -0.3404 -1.2991 -1.3378
10273TIP3   OH252309   1.372   2.675   3.477 -0.4909  0.6237 -0.1387
10273TIP3    H152310   1.319   2.597   3.462  0.6189 -0.0899 -0.4733
10273TIP3    H252311   1.367   2.723   3.394 -0.4481  0.4490 -0.2433
10274TIP3   OH252312   1.453   6.133  17.171 -0.0069 -0.6434  0.5759
10274TIP3    H152313   1.412   6.186  17.104  0.4043  2.3497  2.4780
10274TIP3    H252314   1.381   6.099  17.224 -0.2742 -2.1510 -0.6889
10275TIP3   OH252315   4.083   2.199   6.221  0.1015  0.6880 -0.2114
10275TIP3    H152316   4.051   2.114   6.253  0.6988  0.0102 -1.3370
10275TIP3    H252317   4.171   2.207   6.257  0.4094  0.3712 -0.8774
10276TIP3   OH252318   4.019   2.693   5.883  0.5036  0.5161 -0.1355
10276TIP3    H152319   4.018   2.603   5.849 -0.0482  0.7652 -0.7980
10276TIP3    H252320   3.930   2.706   5.917  0.5483  0.8504 -0.1495
10277TIP3   OH252321   6.274   0.067  11.513  0.0676  0.1273 -0.1220
10277TIP3    H152322   6.340   0.125  11.552  0.3039  1.0952 -1.8818
10277TIP3    H252323   6.308  -0.021  11.527  2.1490  0.6136 -1.6372
10278TIP3   OH252324   0.484   0.525  16.179  0.1324  0.3457 -0.1242
10278TIP3    H152325   0.568   0.498  16.215 -0.7974 -1.7430  0.6211
10278TIP3    H252326   0.506   0.578  16.102  2.1056 -0.0012  0.1647
10279TIP3   OH252327   0.634   4.775  11.671 -0.4163  0.2028  0.8964
10279TIP3    H152328   0.667   4.833  11.602 -0.7413 -0.4918  0.1505
10279TIP3    H252329   0.712   4.737  11.710 -0.1914  1.2038  1.4600
10280TIP3   OH252330   4.555   6.345   5.758 -0.1205 -0.3148  0.3694
10280TIP3    H152331   4.519   6.363   5.845 -0.6987 -3.2137  0.8445
10280TIP3    H252332   4.635   6.295   5.776  1.8990  2.2870 -0.7713
10281TIP3   OH252333   5.981   3.514  14.986 -0.4814 -0.0760  0.0719
10281TIP3    H152334   5.950   3.483  15.071  1.7511  1.0004  1.3841
10281TIP3    H252335   6.020   3.600  15.004 -0.8468  0.6390 -2.2467
10282TIP3   OH252336   3.225   4.172   6.517 -0.0164  0.3249  0.0436
10282TIP3    H152337   3.140   4.178   6.473  0.1981  0.3187 -0.3801
10282TIP3    H252338   3.274   4.106   6.466  0.4648  0.7840 -0.1026
10283TIP3   OH252339   4.996   0.495  15.006  0.4789 -0.3650 -0.4336
10283TIP3    H152340   5.006   0.446  14.924  1.6469  0.1340 -0.6035
10283TIP3    H252341   4.907   0.532  15.001 -0.4611 -2.4580 -0.2831
10284TIP3   OH252342   5.513   5.498  15.027 -0.4434  0.2184  0.1125
10284TIP3    H152343   5.496   5.435  15.097 -0.6514  0.4192  0.2431
10284TIP3    H252344   5.588   5.461  14.979 -0.0158  0.3067  0.7069
10285TIP3   OH252345   5.678   2.021   4.972 -0.2999 -0.5318 -0.5121
10285TIP3    H152346   5.754   1.971   4.941 -0.5723 -1.1336 -0.2211
10285TIP3    H252347   5.707   2.060   5.054  0.1845  0.4772 -1.1428
10286TIP3   OH252348   0.262   5.843   5.302  0.5564  0.1184  0.5682
10286TIP3    H152349   0.292   5.840   5.211 -2.1279  0.3319 -0.4145
10286TIP3    H252350   0.335   5.807   5.353  3.1036  2.1838 -1.3415
10287TIP3   OH252351   4.932   4.660   1.514 -0.0265  0.8595 -0.2010
10287TIP3    H152352   4.976   4.611   1.583 -0.3239 -0.1776 -0.7140
10287TIP3    H252353   4.840   4.661   1.541 -0.2800 -0.2187 -0.9080
10288TIP3   OH252354   5.674   6.737  15.439 -0.0584  0.6235 -0.6231
10288TIP3    H152355   5.604   6.732  15.503  1.3979 -1.0508  0.9680
10288TIP3    H252356   5.743   6.787  15.482  1.5392 -1.8162 -0.1646
10289TIP3   OH252357   3.659   4.409  14.185 -0.5495 -0.2416  0.2547
10289TIP3    H152358   3.710   4.444  14.257 -0.6548  0.7131 -0.1179
10289TIP3    H252359   3.568   4.420  14.212 -0.5884  0.0842 -0.0001
10290TIP3   OH252360   3.262   4.499  12.856  0.0763 -0.1067 -0.4536
10290TIP3    H152361   3.316   4.572  12.825  2.1184 -1.4867 -0.3662
10290TIP3    H252362   3.264   4.508  12.951 -0.9157  0.5474 -0.4870
10291TIP3   OH252363   4.005   5.324  16.429 -0.0060 -0.2870  0.0079
10291TIP3    H152364   3.957   5.369  16.498 -0.3154 -0.6331  0.0208
10291TIP3    H252365   3.992   5.231  16.447  0.7339 -0.3895  0.0520
10292TIP3   OH252366   1.880   5.162   2.820  0.4405  0.7209 -0.2505
10292TIP3    H152367   1.874   5.220   2.743 -3.5978 -0.0096 -0.7128
10292TIP3    H252368   1.823   5.089   2.798  1.4893 -0.9854  2.3552
10293TIP3   OH252369   0.626   3.499  15.396  0.4200  0.2495 -0.2323
10293TIP3    H152370   0.585   3.444  15.462 -0.9708 -0.3809 -1.5560
10293TIP3    H252371   0.684   3.557  15.446 -0.2569 -0.4654  1.4755
10294TIP3   OH252372   0.682   6.692   2.515 -0.2400 -0.5140 -0.2945
10294TIP3    H152373   0.773   6.719   2.530 -0.3456  0.6247 -1.4842
10294TIP3    H252374   0.672   6.694   2.420 -1.6974  0.0076 -0.1514
10295TIP3   OH252375   3.951   3.860   4.500 -0.3553 -0.4997 -0.5625
10295TIP3    H152376   3.983   3.802   4.431 -0.5494 -0.0118 -1.0774
10295TIP3    H252377   3.860   3.879   4.475 -1.8666 -3.4988  1.9260
10296TIP3   OH252378   6.700   0.541   5.890 -0.1828 -0.1435 -0.1576
10296TIP3    H152379   6.622   0.561   5.942 -0.4010 -0.8922 -0.1928
10296TIP3    H252380   6.772   0.546   5.952 -0.0626  1.8956 -0.3837
10297TIP3   OH252381   6.225   0.046  12.598  0.1319  0.2065  0.2632
10297TIP3    H152382   6.198   0.095  12.676 -0.9810  0.1729 -0.0835
10297TIP3    H252383   6.161   0.069  12.532  1.1905  0.3920 -0.7209
10298TIP3   OH252384   5.235   5.965  17.225  0.4249  0.1058  0.5059
10298TIP3    H152385   5.267   6.045  17.183 -0.4677 -0.2285 -0.8657
10298TIP3    H252386   5.219   5.991  17.316 -0.7213  1.7669 -0.1090
10299TIP3   OH252387   6.170   5.276  11.267 -0.4200  0.2504 -0.5560
10299TIP3    H152388   6.186   5.293  11.174  2.2821 -1.8673 -0.6003
10299TIP3    H252389   6.257   5.276  11.307 -1.4522  0.4168  1.8750
10300TIP3   OH252390   3.107   3.818  12.395  0.1028  0.3720 -0.5734
10300TIP3    H152391   3.118   3.879  12.468  0.7979  0.1663 -0.4943
10300TIP3    H252392   3.029   3.767  12.417  1.1863 -0.7844  0.8451
10301TIP3   OH252393   3.915   3.339  12.982 -0.1463 -0.1230 -0.3036
10301TIP3    H152394   4.009   3.355  12.978  0.1089 -0.4883  2.4385
10301TIP3    H252395   3.881   3.412  13.034 -1.1398 -0.8238  0.0454
10302TIP3   OH252396   5.169   0.526   0.392 -0.0480 -0.2951 -0.1328
10302TIP3    H152397   5.074   0.524   0.384  0.0227  1.6668 -2.9379
10302TIP3    H252398   5.188   0.608   0.437  0.3198  0.0224 -0.8440
10303TIP3   OH252399   4.677   4.534  17.196  0.7641  0.8581 -0.1087
10303TIP3    H152400   4.612   4.467  17.216  0.3893  0.8360 -1.3396
10303TIP3    H252401   4.705   4.567  17.282 -0.3138  0.3420  0.4546
10304TIP3   OH252402   0.150   3.175  14.053 -0.2468  0.0705  0.3141
10304TIP3    H152403   0.211   3.103  14.072 -0.1744 -0.1230 -0.6113
10304TIP3    H252404   0.077   3.161  14.113  0.5854  0.2725  1.4006
10305TIP3   OH252405   3.971   5.700  12.041 -0.3124  0.8890  0.0315
10305TIP3    H152406   3.915   5.738  12.108 -0.0022  1.9329 -0.2883
10305TIP3    H252407   3.984   5.770  11.977 -2.5823 -0.7307 -2.4335
10306TIP3   OH252408   0.350   0.428   2.623 -0.1443 -0.0087  0.3405
10306TIP3    H152409   0.379   0.423   2.714  1.0721  0.3085 -0.0085
10306TIP3    H252410   0.398   0.358   2.579 -0.2973  0.1949 -0.1579
10307TIP3   OH252411   5.964   0.820   1.418 -0.1000 -0.4183 -0.2841
10307TIP3    H152412   6.031   0.831   1.486 -0.2377 -0.6417 -0.1109
10307TIP3    H252413   5.986   0.737   1.376  1.2844  0.7129 -1.9732
10308TIP3   OH252414   5.472   2.774   3.658 -0.9143 -0.3492 -0.7141
10308TIP3    H152415   5.426   2.712   3.715 -0.3207  0.9043  1.2343
10308TIP3    H252416   5.414   2.849   3.653  0.3703  0.8518  0.9711
10309TIP3   OH252417   0.984   0.754  13.094 -0.3407  0.3465  0.5245
10309TIP3    H152418   0.974   0.823  13.161  1.9631  0.6311  0.6801
10309TIP3    H252419   1.062   0.780  13.046 -1.0504 -0.7131 -1.2820
10310TIP3   OH252420   2.736   5.805   0.166  0.3598  0.9112  0.1779
10310TIP3    H152421   2.701   5.722   0.198 -1.1204  1.6717  0.6611
10310TIP3    H252422   2.726   5.801   0.071  1.7827 -0.0736  0.0430
10311TIP3   OH252423   2.435   1.065  11.126  0.2973 -0.3626 -0.0778
10311TIP3    H152424   2.440   1.158  11.102 -0.4912 -0.2011  0.3421
10311TIP3    H252425   2.356   1.059  11.179  0.1077 -1.3673 -0.4664
10312TIP3   OH252426   5.987   0.631  13.165  0.0366  0.1577 -0.1322
10312TIP3    H152427   6.019   0.722  13.166 -0.5187  0.3638  1.0350
10312TIP3    H252428   6.033   0.589  13.238  1.3263 -0.9045 -1.5074
10313TIP3   OH252429   1.839   3.406  16.542  0.0992 -0.1994  0.1570
10313TIP3    H152430   1.798   3.424  16.457 -0.7891 -0.9791  0.3972
10313TIP3    H252431   1.932   3.398  16.522 -0.1040 -0.4418 -0.7646
10314TIP3   OH252432   2.410   0.018  16.806  0.1800 -0.6181  0.2821
10314TIP3    H152433   2.438  -0.049  16.743  0.6599 -0.3789  0.2319
10314TIP3    H252434   2.483   0.079  16.809 -0.6955  0.5068 -0.5219
10315TIP3   OH252435   2.182   3.206  12.378 -0.2491 -0.3444  0.8759
10315TIP3    H152436   2.098   3.250  12.368  0.1633  0.0709 -1.0260
10315TIP3    H252437   2.237   3.270  12.424  0.1599  0.9659 -1.3296
10316TIP3   OH252438   1.443   0.834   5.717 -0.0881 -0.9454 -0.1367
10316TIP3    H152439   1.525   0.878   5.739  0.2005 -1.2563 -0.5712
10316TIP3    H252440   1.457   0.743   5.742 -0.5162 -0.8865  0.3288
10317TIP3   OH252441   5.641   4.076  13.337  0.6838  0.0187  0.3556
10317TIP3    H152442   5.729   4.083  13.374  0.2709 -0.4071  1.4687
10317TIP3    H252443   5.638   3.989  13.297  0.9944  0.3159 -0.3306
10318TIP3   OH252444   1.726   0.148  12.232  0.4137  0.1136 -0.3913
10318TIP3    H152445   1.790   0.203  12.186  0.6587 -0.6789 -1.0353
10318TIP3    H252446   1.659   0.209  12.262 -0.2398  0.5922 -2.6360
10319TIP3   OH252447   0.684   2.895  10.992 -0.4521 -0.1896 -0.4161
10319TIP3    H152448   0.694   2.890  11.087 -1.3770  1.5223 -0.1853
10319TIP3    H252449   0.695   2.805  10.962 -1.9709 -1.1049  1.5040
10320TIP3   OH252450   0.940   3.840   4.221 -1.0989 -0.1492  0.1018
10320TIP3    H152451   0.977   3.860   4.135 -1.2503  0.8407  0.2626
10320TIP3    H252452   0.899   3.754   4.209  0.3864 -0.8278 -0.3395
10321TIP3   OH252453   0.534   4.870   4.429 -0.6096 -0.0227 -0.7840
10321TIP3    H152454   0.508   4.847   4.518  2.6702  0.2020  0.3898
10321TIP3    H252455   0.530   4.788   4.380 -2.5325 -0.1287 -0.4986
10322TIP3   OH252456   0.220   5.803   2.398  0.2215  0.7277 -0.7553
10322TIP3    H152457   0.194   5.787   2.307 -1.5292  1.1662 -0.3673
10322TIP3    H252458   0.176   5.885   2.421  1.6365  1.2685  0.1248
10323TIP3   OH252459   5.844   6.398  13.880  0.1372 -0.4009 -0.1653
10323TIP3    H152460   5.765   6.382  13.828  0.6354  0.5142 -1.2571
10323TIP3    H252461   5.909   6.425  13.815  0.3449  2.3618  1.0970
10324TIP3   OH252462   0.677   2.243   3.322 -0.4991  0.2805  0.0677
10324TIP3    H152463   0.746   2.214   3.261 -0.4248  3.5298 -1.5888
10324TIP3    H252464   0.598   2.197   3.292  0.2834 -1.0896  0.0114
10325TIP3   OH252465   5.617   6.726   3.534  0.4169  0.2539  0.0498
10325TIP3    H152466   5.601   6.766   3.448 -0.2821 -0.1251 -0.0089
10325TIP3    H252467   5.709   6.701   3.533  0.2277 -0.4218 -0.8770
10326TIP3   OH252468   4.408   6.374   0.862  0.0476  0.3904 -0.3797
10326TIP3    H152469   4.354   6.393   0.939 -1.0448 -0.5099 -0.8948
10326TIP3    H252470   4.436   6.283   0.875 -0.8791 -0.0778 -1.4368
10327TIP3   OH252471   2.862   1.010   0.451  0.4723  0.4767 -1.0181
10327TIP3    H152472   2.924   0.941   0.477 -1.2705 -0.0650  2.3168
10327TIP3    H252473   2.788   0.962   0.414 -0.3749  0.5343  0.5085
10328TIP3   OH252474   3.494   5.348   0.517  0.2901 -0.3546 -0.0347
10328TIP3    H152475   3.498   5.308   0.430 -1.2824  0.6899 -0.6218
10328TIP3    H252476   3.408   5.390   0.521  0.5686  0.1421  1.8037
10329TIP3   OH252477   3.866   2.711  13.194  0.9750  0.0188  0.0078
10329TIP3    H152478   3.849   2.722  13.100  0.5023 -0.2513  0.0643
10329TIP3    H252479   3.869   2.800  13.228 -0.1323  0.0807 -0.0349
10330TIP3   OH252480   2.646   0.833   4.644  0.4524  0.1945  0.7904
10330TIP3    H152481   2.662   0.884   4.564  1.3588 -1.5277 -0.1991
10330TIP3    H252482   2.728   0.840   4.693 -0.6689  2.6453  2.4721
10331TIP3   OH252483   6.760   5.786  16.734 -0.4724  0.4593  0.3305
10331TIP3    H152484   6.769   5.714  16.671 -2.7841 -1.6131  2.1349
10331TIP3    H252485   6.842   5.834  16.727  0.9414 -1.9429 -1.4908
10332TIP3   OH252486   4.323   4.551  16.495 -0.4453  0.4710 -0.0046
10332TIP3    H152487   4.283   4.486  16.438  1.6725 -0.2896 -0.7041
10332TIP3    H252488   4.276   4.542  16.578 -0.9898 -1.1178 -0.4531
10333TIP3   OH252489   2.615   6.492   5.204  0.0476  0.7049 -0.5386
10333TIP3    H152490   2.624   6.585   5.221  0.3415  0.6965 -0.6537
10333TIP3    H252491   2.582   6.456   5.286 -0.1990  0.9300 -0.5386
10334TIP3   OH252492   0.290   0.512   1.608  0.4212  0.3345  0.3953
10334TIP3    H152493   0.306   0.419   1.592 -1.4631  0.0286 -0.0591
10334TIP3    H252494   0.315   0.554   1.526 -3.0519 -0.4399 -1.3002
10335TIP3   OH252495   1.307   1.357  15.142 -0.4508 -0.8112 -0.1561
10335TIP3    H152496   1.286   1.434  15.195  1.0370  0.6864 -1.5865
10335TIP3    H252497   1.227   1.337  15.095 -0.1393  1.9940 -2.2003
10336TIP3   OH252498   2.704   5.395  15.435 -0.4059 -0.1498  0.0428
10336TIP3    H152499   2.642   5.343  15.384 -1.4204  0.9686  0.1002
10336TIP3    H252500   2.693   5.484  15.402  1.7691 -0.0256 -0.5110
10337TIP3   OH252501   6.050   0.004   6.496  0.1563 -0.2550 -0.0199
10337TIP3    H152502   6.005  -0.027   6.417 -1.5863 -2.7463  1.8030
10337TIP3    H252503   6.137  -0.036   6.490 -0.6755 -2.2448  0.2478
10338TIP3   OH252504   3.417   2.247   4.441 -0.1728 -0.4046  0.3345
10338TIP3    H152505   3.471   2.254   4.362 -1.8476 -0.5173 -0.8760
10338TIP3    H252506   3.435   2.327   4.490 -0.5716  0.6395 -1.1547
10339TIP3   OH252507   4.222   4.341   1.905  0.2373 -0.0379  0.3667
10339TIP3    H152508   4.158   4.271   1.918 -0.5164  0.6627  0.5084
10339TIP3    H252509   4.298   4.315   1.957  0.4760 -1.3786 -0.5943
10340TIP3   OH252510   5.161   3.875   3.887 -0.2518  0.7961  0.5834
10340TIP3    H152511   5.130   3.959   3.854  0.8654  0.0586 -2.6329
10340TIP3    H252512   5.233   3.897   3.946 -0.1788  2.0943  0.0185
10341TIP3   OH252513   2.003   3.391   4.354  0.1184 -0.6052  0.1543
10341TIP3    H152514   2.071   3.458   4.348 -1.0417  0.7029  0.6960
10341TIP3    H252515   2.025   3.341   4.432  2.1844 -2.3122 -1.4271
10342TIP3   OH252516   5.449   4.059   1.155 -0.3635  0.3354  0.0051
10342TIP3    H152517   5.429   3.966   1.166  0.3443  0.1510 -0.2186
10342TIP3    H252518   5.371   4.104   1.186  0.3653 -0.2169  2.9788
10343TIP3   OH252519   6.063   1.653   2.185 -0.4506 -0.3871  0.1630
10343TIP3    H152520   6.116   1.678   2.260  0.1329  0.1298 -0.4105
10343TIP3    H252521   5.975   1.684   2.206 -0.4809 -1.0017  0.9950
10344TIP3   OH252522   4.625   0.641  14.527  0.2528 -0.1007  0.3615
10344TIP3    H152523   4.615   0.730  14.492 -1.5253  0.5426  2.2797
10344TIP3    H252524   4.564   0.589  14.475  0.8627 -0.1133 -0.3691
10345TIP3   OH252525   2.569   6.280  14.806 -0.4258  0.3063 -0.3330
10345TIP3    H152526   2.559   6.279  14.901 -2.2564  1.5388 -0.4375
10345TIP3    H252527   2.621   6.359  14.788  1.2500 -0.7543 -0.3119
10346TIP3   OH252528   5.730   3.479  11.272 -0.3915 -0.0086 -0.0870
10346TIP3    H152529   5.751   3.572  11.278 -0.2144 -0.0826  0.5851
10346TIP3    H252530   5.784   3.446  11.201  0.4828  0.1591  0.4852
10347TIP3   OH252531   4.026   2.471   3.873  0.4045 -0.4367  0.2343
10347TIP3    H152532   4.019   2.475   3.968 -0.6398  0.0633  0.1472
10347TIP3    H252533   4.100   2.412   3.857 -0.4452 -1.8561  1.3385
10348TIP3   OH252534   2.053   3.303  11.128  0.2282 -0.1086  0.3408
10348TIP3    H152535   2.002   3.226  11.154 -0.4897  0.1110 -0.3766
10348TIP3    H252536   2.038   3.311  11.034 -0.5687  1.5033  0.5697
10349TIP3   OH252537   0.247   0.659  13.070  0.3408  0.7166  0.3970
10349TIP3    H152538   0.241   0.586  13.008 -0.9448 -0.2465  1.5848
10349TIP3    H252539   0.326   0.706  13.045  0.6068 -0.4573 -1.0778
10350TIP3   OH252540   0.314   4.475  13.846  0.7279 -0.2211  0.1212
10350TIP3    H152541   0.247   4.481  13.914 -1.5975 -1.7834 -1.8696
10350TIP3    H252542   0.285   4.402  13.791  2.3343  1.1601 -2.7325
10351TIP3   OH252543   5.208   4.015  15.267  0.4147  0.0086  0.2570
10351TIP3    H152544   5.129   4.027  15.214 -0.9151 -0.1584  2.0848
10351TIP3    H252545   5.247   3.934  15.235 -0.8476 -0.5653  0.1217
10352TIP3   OH252546   0.449   6.007  17.035  0.3406 -0.7755 -0.2237
10352TIP3    H152547   0.471   5.962  16.953 -1.8068 -1.4254 -0.4803
10352TIP3    H252548   0.473   6.099  17.018 -0.4912 -0.8154 -1.7585
10353TIP3   OH252549   4.959   0.203   1.699  0.2608  0.5896 -0.4150
10353TIP3    H152550   4.970   0.292   1.666  1.3070  0.4430 -0.4992
10353TIP3    H252551   5.048   0.176   1.723 -0.1796 -0.0958  0.4694
10354TIP3   OH252552   3.836   5.255   4.116  0.1264  0.2822 -0.2742
10354TIP3    H152553   3.745   5.226   4.112 -0.5373  2.3366 -2.6270
10354TIP3    H252554   3.830   5.350   4.128  2.0156  0.2870  1.0041
10355TIP3   OH252555   2.497   4.315   5.409 -0.6516 -0.1904  0.0913
10355TIP3    H152556   2.442   4.321   5.488  0.1329 -0.0379  0.6430
10355TIP3    H252557   2.557   4.243   5.428 -1.4083 -1.1453 -0.9955
10356TIP3   OH252558   0.410   3.454  10.792 -0.0146 -0.5985  0.4337
10356TIP3    H152559   0.371   3.415  10.870 -1.7940  2.1996  1.0934
10356TIP3    H252560   0.436   3.542  10.819  1.6271 -0.4150 -1.5160
10357TIP3   OH252561   0.473   3.244   1.402  0.0366 -0.4413 -0.1086
10357TIP3    H152562   0.565   3.257   1.424  0.2557 -2.0571  0.0573
10357TIP3    H252563   0.430   3.325   1.431  1.4447  0.5383 -0.6145
10358TIP3   OH252564   0.668   1.560  10.461  0.0288  0.1158 -0.1310
10358TIP3    H152565   0.715   1.637  10.429  0.1078  0.0815 -0.0976
10358TIP3    H252566   0.610   1.593  10.529  0.7191  0.0098  0.5198
10359TIP3   OH252567   1.525   3.306  13.378 -0.4862  0.7752 -0.3349
10359TIP3    H152568   1.507   3.367  13.306  0.2032  0.6542 -0.6202
10359TIP3    H252569   1.573   3.358  13.442  0.0376  0.5633 -0.5453
10360TIP3   OH252570   1.602   6.211  14.530 -0.5366  0.1428  0.1032
10360TIP3    H152571   1.627   6.198  14.621 -1.3382 -2.1696  0.0589
10360TIP3    H252572   1.507   6.198  14.529 -0.3518 -1.3834 -1.2581
10361TIP3   OH252573   4.822   2.297   4.037  0.1537 -0.5739  0.8676
10361TIP3    H152574   4.869   2.228   3.990  1.9506  0.0781  1.6169
10361TIP3    H252575   4.818   2.370   3.975 -0.8561 -0.9738  0.4332
10362TIP3   OH252576   5.749   0.461   1.677 -0.3779 -0.3380 -0.2256
10362TIP3    H152577   5.830   0.510   1.689 -2.3295  3.3331 -0.2799
10362TIP3    H252578   5.774   0.384   1.627  3.2090 -0.0983  0.9036
10363TIP3   OH252579   3.394   6.518  10.648 -0.4123  0.3706 -0.4116
10363TIP3    H152580   3.484   6.550  10.641 -0.7700  1.3137 -0.8071
10363TIP3    H252581   3.339   6.593  10.625 -1.4603  0.8992  3.1390
10364TIP3   OH252582   4.871   0.876  15.199  0.1086 -0.1391 -0.0159
10364TIP3    H152583   4.953   0.840  15.165 -0.1716 -1.2019  0.3882
10364TIP3    H252584   4.817   0.890  15.121  0.1908 -0.7094 -0.1853
10365TIP3   OH252585   2.477   0.242   4.497  0.2158 -0.5074  0.3329
10365TIP3    H152586   2.490   0.312   4.433  1.0083  0.0454  1.0862
10365TIP3    H252587   2.441   0.170   4.445  0.8745 -0.0889 -0.7468
10366TIP3   OH252588   1.928   4.065  15.305 -0.8364 -0.0659 -0.0442
10366TIP3    H152589   1.915   4.147  15.353  0.0832 -0.4266  0.8580
10366TIP3    H252590   2.007   4.027  15.344 -0.0998 -0.4302 -1.7871
10367TIP3   OH252591   5.583   6.138   4.480 -0.3262 -0.1840  0.4167
10367TIP3    H152592   5.670   6.102   4.468  0.2288  0.5526  1.9288
10367TIP3    H252593   5.543   6.136   4.393  0.3956 -2.5187  0.0918
10368TIP3   OH252594   5.504   4.413   4.568 -0.2460 -0.1294 -0.2290
10368TIP3    H152595   5.539   4.353   4.502  0.6367 -0.1150  0.2031
10368TIP3    H252596   5.547   4.386   4.649 -1.3871 -0.2125  0.3649
10369TIP3   OH252597   4.968   0.736   1.024 -0.0760  0.0081 -0.0406
10369TIP3    H152598   4.974   0.828   1.049  2.3016  0.4449 -1.8190
10369TIP3    H252599   5.007   0.688   1.097  0.6205  0.6264 -0.0029
10370TIP3   OH252600   3.019   1.999  14.309  0.0584 -0.3999  0.5405
10370TIP3    H152601   3.026   1.947  14.229  1.4673  0.8439 -0.1912
10370TIP3    H252602   3.109   2.011  14.338 -0.1626  2.0016  0.4050
10371TIP3   OH252603   4.655   1.115   3.771  0.3684  0.1315  0.0497
10371TIP3    H152604   4.664   1.103   3.676 -0.4560 -0.9192  0.0811
10371TIP3    H252605   4.561   1.108   3.787  0.5025  0.3201  0.9414
10372TIP3   OH252606   5.914   4.037  12.933 -0.2220  0.3580 -0.2246
10372TIP3    H152607   5.863   4.079  13.002  0.1590 -1.9367  1.5954
10372TIP3    H252608   5.852   4.028  12.860 -1.2039  1.1675  0.4738
10373TIP3   OH252609   4.195   3.956   1.366 -0.0719 -0.5845  0.1434
10373TIP3    H152610   4.101   3.942   1.360 -0.0778 -0.2320 -0.8597
10373TIP3    H252611   4.233   3.872   1.338 -0.0869 -0.5699  0.0799
10374TIP3   OH252612   6.659   4.498   5.560  1.0058 -0.0433 -0.5865
10374TIP3    H152613   6.702   4.468   5.640 -0.0690  0.9188  0.3819
10374TIP3    H252614   6.579   4.541   5.590  0.6444  0.4672 -2.1731
10375TIP3   OH252615   0.826   1.544   2.407  0.0309 -0.1007 -0.0870
10375TIP3    H152616   0.831   1.513   2.498 -1.1813  0.1436  0.0833
10375TIP3    H252617   0.818   1.639   2.415 -1.9876 -0.1961 -0.3221
10376TIP3   OH252618   4.398   2.925  15.552  0.1504  0.3159 -0.0685
10376TIP3    H152619   4.357   3.011  15.551 -1.1988 -0.2903 -0.2024
10376TIP3    H252620   4.324   2.864  15.551  1.0133 -0.8515  1.7481
10377TIP3   OH252621   2.484   1.979  13.908 -0.2723  0.1075 -0.0102
10377TIP3    H152622   2.561   1.988  13.965 -0.0350  1.0911 -0.4688
10377TIP3    H252623   2.410   1.977  13.969  0.0085  0.7846  0.3694
10378TIP3   OH252624   2.274   4.664  14.689 -0.2154  0.0475  0.0675
10378TIP3    H152625   2.280   4.703  14.776 -0.0204 -1.1471  0.6012
10378TIP3    H252626   2.346   4.704  14.640 -1.3120  1.9771 -0.0826
10379TIP3   OH252627   4.479   4.181  12.273  0.1336  0.2040  0.1033
10379TIP3    H152628   4.457   4.088  12.273 -1.8608  0.6094  1.0342
10379TIP3    H252629   4.544   4.191  12.204  0.9067 -1.9772  0.4379
10380TIP3   OH252630   1.434   0.435   6.010 -0.6702  0.0947 -0.0734
10380TIP3    H152631   1.475   0.520   6.021  0.1054  0.1503 -2.7409
10380TIP3    H252632   1.504   0.377   5.982 -1.6695 -0.7995 -0.8155
10381TIP3   OH252633   3.890   4.490  10.834 -0.0875  0.6623 -0.1800
10381TIP3    H152634   3.819   4.550  10.853  0.4072  1.3493 -0.4577
10381TIP3    H252635   3.968   4.546  10.827 -0.0503  0.4110 -3.2044
10382TIP3   OH252636   0.114   5.163  16.881  0.2856  0.2610  0.0920
10382TIP3    H152637   0.096   5.225  16.811 -0.3916 -0.4579 -0.3771
10382TIP3    H252638   0.028   5.140  16.916  0.5688  0.0060  0.6362
10383TIP3   OH252639   1.139   0.763  13.849  0.6582  0.0124  0.6051
10383TIP3    H152640   1.148   0.751  13.755  1.0786  1.2511  0.4578
10383TIP3    H252641   1.081   0.693  13.878  2.7115 -2.0932 -0.1130
10384TIP3   OH252642   3.729   5.470  14.192  0.0886 -0.5271 -0.0143
10384TIP3    H152643   3.822   5.490  14.201  0.4695 -2.1045 -0.0940
10384TIP3    H252644   3.685   5.532  14.251  1.1782  0.1934  0.0732
10385TIP3   OH252645   6.443   4.167  12.703 -0.5372 -0.3882  0.2552
10385TIP3    H152646   6.365   4.168  12.758 -1.7410  0.5855 -1.3758
10385TIP3    H252647   6.420   4.111  12.629 -0.1320  0.7618 -0.7927
10386TIP3   OH252648   4.121   3.031  10.703 -0.1433  0.2784  0.3163
10386TIP3    H152649   4.168   2.953  10.674  0.1492  0.6059 -0.1096
10386TIP3    H252650   4.029   3.006  10.700  0.0101 -0.4936  1.5405
10387TIP3   OH252651   6.445   4.976   0.256  0.5588 -0.3994 -0.1866
10387TIP3    H152652   6.449   5.049   0.195  0.0489 -2.1182 -2.4011
10387TIP3    H252653   6.528   4.980   0.304  0.8453  1.1834 -0.7755
10388TIP3   OH252654   3.739   5.436  11.224  0.2403  0.4198 -0.5735
10388TIP3    H152655   3.819   5.394  11.194  0.5578  2.2766 -2.5811
10388TIP3    H252656   3.705   5.483  11.147 -1.2359  2.0100  0.9252
10389TIP3   OH252657   5.022   5.573  12.886 -0.2188 -0.6165 -0.1891
10389TIP3    H152658   5.022   5.594  12.793  1.0444 -0.5892 -0.1974
10389TIP3    H252659   5.095   5.623  12.922 -2.0388  1.1869  1.2654
10390TIP3   OH252660   4.034   2.551   0.590 -0.6803  0.0778 -0.1116
10390TIP3    H152661   4.052   2.510   0.674  0.7353 -1.1899 -0.9754
10390TIP3    H252662   3.975   2.489   0.545  1.7714 -1.3600 -1.5754
10391TIP3   OH252663   2.326   5.159   4.663  0.2578 -0.3021  0.6526
10391TIP3    H152664   2.286   5.083   4.706 -0.4712  0.1593  0.8069
10391TIP3    H252665   2.369   5.207   4.734 -1.3917  0.7399  0.9858
10392TIP3   OH252666   1.392   6.111  15.357 -0.3213  0.2330  0.6821
10392TIP3    H152667   1.307   6.088  15.319  0.3362  0.8847 -1.3214
10392TIP3    H252668   1.405   6.203  15.335  0.9836  0.0978  0.7686
10393TIP3   OH252669   3.562   1.552  12.737 -0.3931 -0.1142  0.7780
10393TIP3    H152670   3.526   1.501  12.665 -2.4498  1.4173  0.6381
10393TIP3    H252671   3.488   1.602  12.771  0.8860  0.5130  2.8479
10394TIP3   OH252672   4.953   4.173   5.177  0.0321 -0.2033 -0.2530
10394TIP3    H152673   4.906   4.098   5.214 -1.6936  0.4684 -0.9483
10394TIP3    H252674   4.954   4.238   5.247 -0.4898 -0.0606 -0.3740
10395TIP3   OH252675   3.986   3.547   1.143  0.0696  0.0510 -0.2658
10395TIP3    H152676   4.000   3.583   1.056  0.2784  1.0022  0.1575
10395TIP3    H252677   3.956   3.621   1.195 -0.7576 -0.6593  0.3058
10396TIP3   OH252678   1.633   2.157   3.081 -0.1334  0.1379 -0.1433
10396TIP3    H152679   1.633   2.239   3.031  0.7298  0.5396  0.4821
10396TIP3    H252680   1.687   2.097   3.030 -2.7117 -0.8914 -1.8582
10397TIP3   OH252681   4.955   0.233  13.759 -0.1183  0.4135  0.3736
10397TIP3    H152682   4.895   0.165  13.728  0.5587 -0.3822  0.7510
10397TIP3    H252683   4.923   0.314  13.719 -1.4538  0.0177  0.6151
10398TIP3   OH252684   3.348   5.007   2.778 -0.0058 -0.0609  0.3578
10398TIP3    H152685   3.268   4.970   2.741  0.8947  0.9573 -3.0081
10398TIP3    H252686   3.321   5.048   2.860 -2.6511 -0.7244 -0.0988
10399TIP3   OH252687   2.239   2.309  11.783  0.2642  0.4146 -0.3768
10399TIP3    H152688   2.293   2.256  11.725  0.5919  2.0450 -1.6502
10399TIP3    H252689   2.258   2.277  11.871 -0.9979 -2.8327 -1.1649
10400TIP3   OH252690   4.176   6.337  11.664 -0.5308 -0.2574 -0.3412
10400TIP3    H152691   4.260   6.308  11.630 -0.4694 -1.1648  0.5416
10400TIP3    H252692   4.147   6.405  11.603  0.2424 -0.8260 -1.3674
10401TIP3   OH252693   6.729   6.714  12.621  0.9373 -0.2239 -0.7729
10401TIP3    H152694   6.701   6.659  12.694  0.0872 -1.0457 -1.7031
10401TIP3    H252695   6.657   6.776  12.608  0.9999 -0.2072 -1.0422
10402TIP3   OH252696   2.828   4.378   2.096 -0.4031  0.4890  0.2365
10402TIP3    H152697   2.920   4.390   2.073 -0.3859  0.3000  0.2070
10402TIP3    H252698   2.792   4.328   2.023 -0.5243  0.5456  0.2584
10403TIP3   OH252699   2.709   2.859   5.708 -0.6723 -0.1104  0.4818
10403TIP3    H152700   2.661   2.879   5.628  0.1061  1.6497  0.4011
10403TIP3    H252701   2.766   2.786   5.686 -1.0467 -0.1654 -0.3206
10404TIP3   OH252702   6.269   6.656   6.303  0.1729  0.3207  0.1346
10404TIP3    H152703   6.249   6.708   6.225 -0.1499 -1.5366 -1.0760
10404TIP3    H252704   6.364   6.653   6.307  0.1948 -0.1399 -0.5979
10405TIP3   OH252705   0.251   2.750   4.523  0.2112 -0.1782  0.2912
10405TIP3    H152706   0.312   2.823   4.535  1.0149 -0.9599  1.1717
10405TIP3    H252707   0.226   2.755   4.431  1.1460  0.5287  0.0522
10406TIP3   OH252708   1.527   5.155  12.450  0.3956 -0.1961 -0.0525
10406TIP3    H152709   1.497   5.206  12.374  0.5633 -0.9959 -0.6660
10406TIP3    H252710   1.458   5.169  12.516  0.0099  0.1261 -0.5136
10407TIP3   OH252711   6.336   0.455  13.188  0.2058 -0.1340 -0.4482
10407TIP3    H152712   6.286   0.510  13.248  1.3423  0.4445 -0.0079
10407TIP3    H252713   6.315   0.365  13.215  1.1320  0.1065  1.2222
10408TIP3   OH252714   6.409   2.917   6.154 -0.5241 -0.1842  0.2284
10408TIP3    H152715   6.332   2.956   6.112 -0.0254 -1.9716 -2.5763
10408TIP3    H252716   6.459   2.879   6.082  1.9184 -0.9442  2.2038
10409TIP3   OH252717   6.337   3.046   4.658 -0.5317 -0.1445 -0.2907
10409TIP3    H152718   6.387   3.061   4.578  1.3862 -0.7112  0.7297
10409TIP3    H252719   6.297   3.130   4.677  1.5211  0.8904 -0.2354
10410TIP3   OH252720   4.560   1.623   5.801 -0.8203  0.2731  0.0489
10410TIP3    H152721   4.638   1.678   5.810 -0.6789  0.1819 -0.5408
10410TIP3    H252722   4.575   1.574   5.719 -0.3945 -1.5424  1.1533
10411TIP3   OH252723   4.350   2.627  16.054 -0.0742  0.4105 -0.5581
10411TIP3    H152724   4.380   2.606  15.966 -1.1844 -0.0182 -0.8406
10411TIP3    H252725   4.262   2.590  16.060  0.5948 -1.0655  1.3062
10412TIP3   OH252726   1.092   1.248   1.340  0.2446 -0.2699 -0.0162
10412TIP3    H152727   1.014   1.303   1.341  0.8869  0.7095  2.0526
10412TIP3    H252728   1.156   1.297   1.392  0.5573 -3.3442  2.7863
10413TIP3   OH252729   2.718   5.210   3.606 -0.0846  0.0261 -0.4051
10413TIP3    H152730   2.638   5.235   3.560 -0.8593 -0.6147  0.5554
10413TIP3    H252731   2.764   5.292   3.623 -0.5804  0.4026 -0.8869
10414TIP3   OH252732   6.496   0.090  12.624 -0.0563  1.0931 -0.0032
10414TIP3    H152733   6.483   0.069  12.717  2.0586 -1.7040 -0.1990
10414TIP3    H252734   6.410   0.078  12.585 -0.7226  1.0972  1.3902
10415TIP3   OH252735   2.479   4.739  15.003  0.1758  0.0310 -0.1755
10415TIP3    H152736   2.503   4.656  14.963  2.0907  0.4154  0.0655
10415TIP3    H252737   2.404   4.769  14.953  0.2541 -1.2258 -1.1031
10416TIP3   OH252738   2.915   6.587  14.462  0.2660 -0.5169 -0.2125
10416TIP3    H152739   2.957   6.651  14.519 -0.3650  0.1192 -0.4456
10416TIP3    H252740   2.973   6.510  14.464  0.8401 -0.0726  0.3551
10417TIP3   OH252741   3.894   4.192  15.597  0.0484 -0.5801  0.1002
10417TIP3    H152742   3.803   4.216  15.576 -0.0801  0.8357  2.0140
10417TIP3    H252743   3.936   4.180  15.512 -1.5783  0.1091 -0.8469
10418TIP3   OH252744   0.921   4.316   1.905  0.1361 -0.1562 -0.4775
10418TIP3    H152745   0.914   4.261   1.827 -1.2602 -2.5992  1.2358
10418TIP3    H252746   0.845   4.375   1.899 -0.7404 -1.2409 -0.3522
10419TIP3   OH252747   0.089   1.619   0.870 -0.0816 -0.4335  0.4478
10419TIP3    H152748   0.135   1.690   0.916  2.4509 -0.2642 -2.0835
10419TIP3    H252749   0.098   1.543   0.928  0.4111  0.4150  1.5241
10420TIP3   OH252750   6.258   1.150   4.816 -0.2202  0.0530 -0.5513
10420TIP3    H152751   6.333   1.099   4.786  0.1796 -0.4356  1.2180
10420TIP3    H252752   6.229   1.198   4.738  1.5613 -0.1918 -1.3939
10421TIP3   OH252753   1.555   2.901   0.293 -0.0320  0.3153  0.9060
10421TIP3    H152754   1.604   2.961   0.237  0.6539 -0.4292  0.6971
10421TIP3    H252755   1.536   2.826   0.238  1.0428 -0.6234  1.7719
10422TIP3   OH252756   1.841   3.106  15.655  0.5332 -0.3341 -0.2120
10422TIP3    H152757   1.803   3.194  15.647 -0.6072 -0.1662  4.0766
10422TIP3    H252758   1.772   3.054  15.697  1.6402 -2.9678 -1.4387
10423TIP3   OH252759   5.704   1.160   0.436  0.1131 -0.4861 -0.3555
10423TIP3    H152760   5.721   1.247   0.473 -0.0082 -0.4292 -0.4348
10423TIP3    H252761   5.787   1.136   0.396 -0.1838  0.0934 -1.3496
10424TIP3   OH252762   6.556   4.255  13.137  0.0074 -0.4785  0.1200
10424TIP3    H152763   6.472   4.284  13.101 -0.4479  0.0018  1.5235
10424TIP3    H252764   6.536   4.227  13.226  1.3336 -0.4281  0.4576
10425TIP3   OH252765   0.261   1.450  13.691 -0.5340  0.4514  0.3611
10425TIP3    H152766   0.167   1.433  13.697 -0.7508 -0.7910 -3.6009
10425TIP3    H252767   0.267   1.541  13.663 -0.5931  0.3604  0.0514
10426TIP3   OH252768   2.911   0.322  11.175 -0.4091 -0.6295 -0.3127
10426TIP3    H152769   2.875   0.261  11.239 -1.5738  0.4563  0.1241
10426TIP3    H252770   2.968   0.379  11.226  1.5832 -2.0002 -0.9091
10427TIP3   OH252771   4.758   4.725  10.812  0.4242  0.4705  0.4020
10427TIP3    H152772   4.705   4.780  10.753  1.4511 -0.2509 -1.2491
10427TIP3    H252773   4.832   4.696  10.759  0.7147 -1.2978  1.6786
10428TIP3   OH252774   3.492   6.488   0.981 -0.1870  0.0488 -0.2877
10428TIP3    H152775   3.439   6.504   1.059  0.3482 -2.4693  0.6995
10428TIP3    H252776   3.447   6.416   0.936 -0.0157  0.8940 -1.8926
10429TIP3   OH252777   4.425   6.580  14.357 -0.9960 -0.3620 -0.1861
10429TIP3    H152778   4.421   6.628  14.274  2.8010 -1.3947 -1.1480
10429TIP3    H252779   4.390   6.493  14.336  0.5757 -0.8388 -0.9609
10430TIP3   OH252780   3.772   1.932  13.449  0.1480  0.4047  0.2539
10430TIP3    H152781   3.834   1.991  13.407  0.3414 -0.5044 -0.7810
10430TIP3    H252782   3.689   1.950  13.405  0.6575 -1.6511 -1.7703
10431TIP3   OH252783   3.731   4.284   4.445 -0.3368  0.5954  0.2160
10431TIP3    H152784   3.691   4.276   4.532  0.8227  0.2167  0.7248
10431TIP3    H252785   3.822   4.258   4.458 -0.2234  0.2583 -1.1757
10432TIP3   OH252786   5.876   0.215   0.017  0.2432  0.1283 -0.1492
10432TIP3    H152787   5.792   0.256  -0.004 -0.3289  0.1794  2.0522
10432TIP3    H252788   5.862   0.172   0.101  2.3828 -0.0568  0.1715
10433TIP3   OH252789   0.420   6.423   1.596 -0.2078 -0.2921 -0.6039
10433TIP3    H152790   0.405   6.464   1.681  2.0096 -0.9162  0.1584
10433TIP3    H252791   0.408   6.329   1.613 -0.5807 -0.3584 -1.2031
10434TIP3   OH252792   6.637   3.211   3.664 -0.2863 -0.0271 -0.2207
10434TIP3    H152793   6.639   3.235   3.571  0.3108  1.2836  0.1131
10434TIP3    H252794   6.545   3.198   3.683 -0.4526  0.1048 -0.9077
10435TIP3   OH252795   3.988   2.093  13.584 -0.3970 -0.4080  0.3898
10435TIP3    H152796   4.065   2.141  13.556 -0.0270 -0.6349  0.9906
10435TIP3    H252797   3.915   2.136  13.540  0.2141 -1.1850 -1.4500
10436TIP3   OH252798   2.674   5.299  17.242  0.4623  0.2615 -0.4958
10436TIP3    H152799   2.631   5.365  17.296  1.4391  1.0176 -0.6159
10436TIP3    H252800   2.612   5.283  17.170  0.0997  0.8532 -0.3204
10437TIP3   OH252801   5.344   6.261  16.840  0.2739  0.5243  0.0255
10437TIP3    H152802   5.295   6.218  16.910 -0.4234  2.2080  0.6362
10437TIP3    H252803   5.353   6.194  16.772 -1.9696 -0.1786  0.3426
10438TIP3   OH252804   3.138   6.145  14.335  0.0095 -0.1759  0.4702
10438TIP3    H152805   3.111   6.084  14.266 -1.2222  0.1219  0.6669
10438TIP3    H252806   3.150   6.089  14.412  0.5187 -0.3864  0.2430
10439TIP3   OH252807   1.376   3.403   3.488  0.0390  0.1221 -0.2052
10439TIP3    H152808   1.457   3.453   3.482  0.0421  0.1913  0.3995
10439TIP3    H252809   1.307   3.466   3.467  0.1400  0.0530 -0.7609
10440TIP3   OH252810   4.281   5.104   6.538  0.3726 -0.4996  0.4181
10440TIP3    H152811   4.330   5.081   6.617  1.4087 -1.0515 -0.3624
10440TIP3    H252812   4.340   5.083   6.466 -1.1531 -1.5709 -0.5891
10441TIP3   OH252813   5.911   5.751  15.545  0.3171 -0.5764  0.5400
10441TIP3    H152814   5.896   5.661  15.518 -0.6464 -0.8132  1.7716
10441TIP3    H252815   5.847   5.766  15.615 -1.8641  2.0937 -1.7651
10442TIP3   OH252816   0.183   5.410  11.285  0.4947 -0.0030 -0.5068
10442TIP3    H152817   0.223   5.371  11.207  0.1633 -1.7878  0.1625
10442TIP3    H252818   0.257   5.439  11.338  0.7311  0.8795 -1.2844
10443TIP3   OH252819   5.416   1.032  17.146  0.3796 -0.0939  0.9509
10443TIP3    H152820   5.388   1.010  17.057 -0.7401  1.2803  0.9341
10443TIP3    H252821   5.510   1.049  17.139  0.7193 -1.9358  0.4436
10444TIP3   OH252822   6.613   4.438  13.471 -0.2430  0.3372  0.0668
10444TIP3    H152823   6.589   4.500  13.403  0.3776  1.1533  0.5768
10444TIP3    H252824   6.708   4.431  13.466 -0.2915 -0.5336  0.0651
10445TIP3   OH252825   4.668   6.174   4.506 -0.0544 -0.0617  0.2109
10445TIP3    H152826   4.663   6.144   4.416 -0.9803  0.5782  0.0287
10445TIP3    H252827   4.692   6.096   4.557  3.6822  0.2117 -0.8975
10446TIP3   OH252828   2.331   2.650  13.060  0.3481  0.1604 -0.3645
10446TIP3    H152829   2.315   2.574  13.116  2.4822 -0.8048 -0.9249
10446TIP3    H252830   2.268   2.641  12.989 -1.9922  1.0850  1.4943
10447TIP3   OH252831   3.664   6.605  15.014 -0.0600  0.2018  0.1918
10447TIP3    H152832   3.584   6.584  14.967 -0.4230  1.7728  0.0559
10447TIP3    H252833   3.641   6.594  15.107 -0.7374  1.5249  0.2057
10448TIP3   OH252834   5.064   6.796  14.771  0.1859 -0.1776 -0.1587
10448TIP3    H152835   5.017   6.794  14.854  1.1836 -0.0272  0.4316
10448TIP3    H252836   5.131   6.728  14.780  0.6341  0.1903 -0.6389
10449TIP3   OH252837   1.879   5.617   0.692 -0.1820 -0.5660 -0.4564
10449TIP3    H152838   1.896   5.671   0.769 -1.4747  0.1667 -0.6551
10449TIP3    H252839   1.861   5.679   0.622 -1.3087 -1.2265 -0.7914
10450TIP3   OH252840   1.638   0.117  14.967  0.4796 -0.0154 -0.4762
10450TIP3    H152841   1.573   0.147  15.031  3.9461  2.5737  2.2531
10450TIP3    H252842   1.643   0.188  14.903  1.1525  0.2154 -0.1805
10451TIP3   OH252843   2.634   1.641   6.294 -0.1086  0.5131  0.7147
10451TIP3    H152844   2.582   1.669   6.369 -2.8523 -0.5062 -0.6551
10451TIP3    H252845   2.724   1.664   6.317 -1.0293  1.7370  3.5602
10452TIP3   OH252846   5.407   2.018  12.157  0.0129  0.1905  0.3687
10452TIP3    H152847   5.454   2.080  12.101 -2.6109  0.6892 -1.4587
10452TIP3    H252848   5.449   2.027  12.243  2.2619  1.5716 -0.7851
10453TIP3   OH252849   1.945   6.792  16.514  0.1483 -0.0223 -0.8232
10453TIP3    H152850   2.015   6.844  16.555 -0.7528  0.2498  0.4177
10453TIP3    H252851   1.992   6.725  16.464  1.3135 -0.1842  0.4156
10454TIP3   OH252852   5.332   2.877  15.476 -0.0951 -0.3599 -0.7757
10454TIP3    H152853   5.343   2.817  15.550  0.1266  2.3266  1.5534
10454TIP3    H252854   5.284   2.952  15.513 -0.3961  0.9253 -3.4989
10455TIP3   OH252855   6.149   5.455  17.268 -0.3089 -0.0398  0.0770
10455TIP3    H152856   6.058   5.480  17.252 -0.4293  0.6405  1.6255
10455TIP3    H252857   6.144   5.373  17.316 -0.2213  0.9624  1.8867
10456TIP3   OH252858   1.525   4.347  14.466 -0.8393 -0.1972  0.1360
10456TIP3    H152859   1.567   4.306  14.541 -0.7919  0.8327  0.6943
10456TIP3    H252860   1.593   4.403  14.428 -1.2876  0.4160  0.2164
10457TIP3   OH252861   6.769   0.102   3.954  0.1336 -0.6543  0.1100
10457TIP3    H152862   6.853   0.128   3.992  0.6354  1.3096 -2.0676
10457TIP3    H252863   6.708   0.099   4.028  1.5932  0.2921  1.4108
10458TIP3   OH252864   4.843   5.887  14.039  0.2331 -0.8244  0.0207
10458TIP3    H152865   4.879   5.844  14.116 -0.5048 -2.9997 -0.7735
10458TIP3    H252866   4.917   5.894  13.978 -0.0342 -2.9717 -0.6367
10459TIP3   OH252867   1.903   6.208   3.507  0.9001 -0.3652  0.0125
10459TIP3    H152868   1.844   6.135   3.493 -0.3770  0.4109  1.0473
10459TIP3    H252869   1.916   6.210   3.602 -0.1145  1.4716  0.1566
10460TIP3   OH252870   5.056   4.724   4.767 -0.2993  0.6049 -0.3607
10460TIP3    H152871   5.090   4.781   4.835  0.5102 -0.6699  0.3539
10460TIP3    H252872   5.129   4.666   4.745 -1.7222 -1.8047  0.7789
10461TIP3   OH252873   2.132   0.238   1.516  0.7788 -0.5652 -0.4019
10461TIP3    H152874   2.116   0.330   1.495 -0.9006 -0.8648 -0.5355
10461TIP3    H252875   2.183   0.241   1.597 -0.6570  0.4895  0.5196
10462TIP3   OH252876   5.529   0.758  15.827 -0.0740 -0.3917 -0.7136
10462TIP3    H152877   5.481   0.744  15.908  0.7487  0.0325 -0.1353
10462TIP3    H252878   5.466   0.741  15.757 -1.1094  0.3915  0.0200
10463TIP3   OH252879   3.445   4.060   1.922  0.3965 -0.5760 -0.3713
10463TIP3    H152880   3.356   4.025   1.926 -1.8737  4.2560 -1.3856
10463TIP3    H252881   3.466   4.062   1.828  0.1890  1.1084 -0.4093
10464TIP3   OH252882   2.449   5.489  13.392  0.6987 -0.6061  0.5860
10464TIP3    H152883   2.473   5.461  13.304 -0.0281  0.8042 -0.0860
10464TIP3    H252884   2.362   5.527  13.383  0.1493 -1.3823  2.1191
10465TIP3   OH252885   6.394   5.611  13.551  0.1195 -0.2090  0.2971
10465TIP3    H152886   6.310   5.588  13.512 -0.1934  1.8651 -0.3870
10465TIP3    H252887   6.372   5.636  13.641  0.0971 -0.2517  0.3036
10466TIP3   OH252888   5.357   6.247  11.256  0.0096 -0.2630 -0.4105
10466TIP3    H152889   5.350   6.262  11.161 -0.5711 -0.2738 -0.3717
10466TIP3    H252890   5.267   6.232  11.285 -0.6462  4.7213  1.0140
10467TIP3   OH252891   5.073   4.682  12.747  0.0771  0.3004 -0.2460
10467TIP3    H152892   5.034   4.659  12.663 -2.7612 -0.0366  1.0579
10467TIP3    H252893   5.002   4.724  12.796  1.9010  1.3591  1.6769
10468TIP3   OH252894   1.463   2.128  11.329  0.5009 -0.1042 -0.3058
10468TIP3    H152895   1.385   2.083  11.359 -0.2010  1.5423  0.4526
10468TIP3    H252896   1.519   2.136  11.406  0.2811  0.9479 -0.2334
10469TIP3   OH252897   2.517   6.069   4.987 -0.3111 -0.5792 -0.0982
10469TIP3    H152898   2.556   6.156   4.977 -0.0928 -0.8299 -1.7394
10469TIP3    H252899   2.426   6.086   5.009  0.0608  0.0288  1.1223
10470TIP3   OH252900   0.048   3.573  12.442  0.0919 -0.2739  0.2588
10470TIP3    H152901   0.000   3.491  12.430  0.0409 -0.2533  0.3206
10470TIP3    H252902   0.023   3.626  12.366 -0.2850 -0.1176  0.4875
10471TIP3   OH252903   5.172   6.169  14.672 -0.4582 -0.3663 -0.2347
10471TIP3    H152904   5.189   6.237  14.737  0.0026  0.7028 -1.4315
10471TIP3    H252905   5.258   6.136  14.649 -0.5735 -0.3526 -0.6921
10472TIP3   OH252906   1.618   6.455  15.663  0.3228  0.1188 -0.0192
10472TIP3    H152907   1.609   6.364  15.633  1.0052 -0.8073  2.3036
10472TIP3    H252908   1.693   6.489  15.615  1.5218 -1.3711  0.6939
10473TIP3   OH252909   6.323   6.789   1.849 -0.2553 -0.0617 -0.0255
10473TIP3    H152910   6.350   6.718   1.908  1.7249  0.0173 -0.7816
10473TIP3    H252911   6.377   6.778   1.771 -1.8321  0.6827 -1.2894
10474TIP3   OH252912   3.066   2.300   3.984  0.3711  0.2526  0.3048
10474TIP3    H152913   3.097   2.348   4.061 -1.0133  1.5639  0.1120
10474TIP3    H252914   3.074   2.208   4.008  1.2215  0.6150  1.4961
10475TIP3   OH252915   1.542   5.755   4.105  0.3343  0.1591  0.1228
10475TIP3    H152916   1.457   5.713   4.115  0.4432  0.3496  2.1023
10475TIP3    H252917   1.605   5.692   4.141  0.7485  1.0400  0.9743
10476TIP3   OH252918   0.541   5.901  16.809 -0.0742 -0.6873 -0.3792
10476TIP3    H152919   0.614   5.856  16.768 -0.5227 -0.0594 -1.9626
10476TIP3    H252920   0.523   5.975  16.751 -2.1414 -0.9922 -0.2199
10477TIP3   OH252921   4.925   4.866  14.441 -0.1225  0.2476 -0.4883
10477TIP3    H152922   4.883   4.817  14.512 -0.2131  2.0181  0.7748
10477TIP3    H252923   4.852   4.909  14.395 -0.0824 -1.0718 -1.8452
10478TIP3   OH252924   3.219   2.026  11.509  0.3798  0.4887 -0.0849
10478TIP3    H152925   3.310   2.037  11.535 -0.2561  2.6135  1.5285
10478TIP3    H252926   3.198   1.936  11.535  2.2329 -0.3947 -1.4165
10479TIP3   OH252927   4.739   1.334   3.908  0.1892  0.1792  0.0146
10479TIP3    H152928   4.713   1.250   3.870 -1.3885 -0.8345  2.9889
10479TIP3    H252929   4.829   1.347   3.879  0.2126 -2.1636 -1.1705
10480TIP3   OH252930   2.117   0.002  15.177 -0.0617  0.2104 -0.0718
10480TIP3    H152931   2.191  -0.029  15.229  0.2899  0.6120 -0.3291
10480TIP3    H252932   2.142   0.090  15.149  0.7924 -0.8052 -2.8624
10481TIP3   OH252933   6.618   3.605   5.118  0.2974  0.0743  0.3263
10481TIP3    H152934   6.713   3.594   5.114  0.4956  1.3737  0.8246
10481TIP3    H252935   6.583   3.517   5.104  1.5740 -0.4839  0.4641
10482TIP3   OH252936   2.155   1.859   5.864 -0.9751 -0.5198 -0.0035
10482TIP3    H152937   2.064   1.835   5.847 -1.2822 -0.1005  0.9328
10482TIP3    H252938   2.151   1.908   5.947  0.4108 -2.6462  1.4259
10483TIP3   OH252939   2.991   2.381   2.970 -0.6712 -0.0190  0.1636
10483TIP3    H152940   2.915   2.337   2.931 -0.6715  1.4166 -1.6027
10483TIP3    H252941   2.953   2.453   3.021 -0.5879 -0.8739  1.4590
10484TIP3   OH252942   2.664   5.176   2.121 -0.7748 -0.5955  0.1056
10484TIP3    H152943   2.708   5.142   2.043  1.4900  0.8635  0.6589
10484TIP3    H252944   2.611   5.103   2.152  1.2593 -2.5062 -0.6443
10485TIP3   OH252945   6.122   6.609  11.442 -0.2235 -0.1259  0.6324
10485TIP3    H152946   6.202   6.575  11.401  0.0290 -0.8483  1.7091
10485TIP3    H252947   6.127   6.580  11.533 -1.3351  0.4991  0.9072
10486TIP3   OH252948   6.566   4.624  11.818 -0.1357  0.1401 -0.5357
10486TIP3    H152949   6.594   4.561  11.752 -0.2119  0.3029 -0.7260
10486TIP3    H252950   6.647   4.657  11.856 -0.0944 -1.8253  1.2719
10487TIP3   OH252951   4.139   5.952  10.459 -0.1689 -0.3114  0.3059
10487TIP3    H152952   4.198   5.878  10.474  0.5560  0.6239  2.5669
10487TIP3    H252953   4.084   5.926  10.385  0.2407 -2.9778  0.8728
10488TIP3   OH252954   3.880   1.076  11.289 -0.1634 -0.4216  0.1471
10488TIP3    H152955   3.892   1.025  11.370  2.9463  0.6663  0.5089
10488TIP3    H252956   3.911   1.017  11.219  0.5186 -0.1431  0.2049
10489TIP3   OH252957   4.192   4.511  11.088  0.2455 -0.1932  1.1249
10489TIP3    H152958   4.239   4.569  11.147 -0.0572  0.7331  0.4742
10489TIP3    H252959   4.174   4.564  11.011  0.7050 -1.3999  0.1506
10490TIP3   OH252960   4.815   5.902  16.665 -0.5680  0.3581 -0.5125
10490TIP3    H152961   4.884   5.854  16.712 -1.1865  1.0251  1.1476
10490TIP3    H252962   4.863   5.961  16.607  0.2079 -1.6707 -2.0717
10491TIP3   OH252963   4.517   3.729  14.163  0.0506  0.4086 -0.1416
10491TIP3    H152964   4.600   3.774  14.182  0.4344 -0.3140 -0.0752
10491TIP3    H252965   4.520   3.650  14.217 -0.9138  0.6277  0.2485
10492TIP3   OH252966   1.397   2.890  15.214  0.3891 -0.0542 -0.0277
10492TIP3    H152967   1.399   2.799  15.186  0.2243  0.5497 -2.1604
10492TIP3    H252968   1.427   2.940  15.137 -0.2192  1.7462  0.8396
10493TIP3   OH252969   6.644   3.937   4.192 -0.6416 -0.2306  0.0221
10493TIP3    H152970   6.606   3.973   4.271 -0.7090  0.8959 -0.5048
10493TIP3    H252971   6.687   4.011   4.150 -0.5808 -0.8104 -0.9784
10494TIP3   OH252972   4.878   6.524  12.333 -0.2132 -0.1356 -0.1380
10494TIP3    H152973   4.851   6.555  12.420 -0.9043 -0.5341 -0.2015
10494TIP3    H252974   4.812   6.559  12.274 -0.2925 -0.6698 -0.3718
10495TIP3   OH252975   5.511   3.403   3.209 -0.0135  0.1697  0.4498
10495TIP3    H152976   5.471   3.413   3.123 -0.2670  0.6136  0.6157
10495TIP3    H252977   5.604   3.390   3.192  0.0544  1.0243  0.1389
10496TIP3   OH252978   3.352   2.455  16.084 -0.1019 -0.7372  0.0011
10496TIP3    H152979   3.445   2.436  16.092 -0.1429 -0.8811  0.1270
10496TIP3    H252980   3.308   2.376  16.114 -0.2786 -0.2259  1.1401
10497TIP3   OH252981   1.586   0.744  16.031  0.4822  0.6965 -0.1046
10497TIP3    H152982   1.522   0.724  16.100 -0.2156  1.4249 -0.5195
10497TIP3    H252983   1.533   0.776  15.958  1.1119 -1.0224 -1.3690
10498TIP3   OH252984   5.953   1.433  12.954 -0.1618 -0.3679 -0.0248
10498TIP3    H152985   5.939   1.360  12.893  1.2331  0.0609 -0.9050
10498TIP3    H252986   6.020   1.401  13.013  1.1577  0.4903 -0.9960
10499TIP3   OH252987   5.035   1.642  14.065  0.4654  0.1142 -0.3110
10499TIP3    H152988   5.012   1.642  13.972  0.9827  0.5635 -0.4421
10499TIP3    H252989   4.965   1.592  14.107  0.0282  0.2302 -0.8949
10500TIP3   OH252990   1.009   2.070  11.526 -0.0500 -0.3538  0.4181
10500TIP3    H152991   1.089   2.026  11.555  0.0418 -0.2503  0.3186
10500TIP3    H252992   0.939   2.018  11.565 -0.0001 -1.5549 -1.0221
10501TIP3   OH252993   1.590   2.304   5.598  1.2128 -0.1439  0.3964
10501TIP3    H152994   1.550   2.226   5.559  1.1118  0.1350 -0.0671
10501TIP3    H252995   1.521   2.342   5.651  1.5915 -0.9684  1.5221
10502TIP3   OH252996   0.404   5.652   1.390  0.7367  0.1553  0.2742
10502TIP3    H152997   0.365   5.575   1.431  1.3377  0.8836  2.3576
10502TIP3    H252998   0.438   5.621   1.306 -0.8614 -1.3430  0.1439
10503TIP3   OH252999   5.322   2.025   3.438  0.1303  0.5234 -0.3153
10503TIP3    H153000   5.400   1.970   3.452 -1.2957 -1.8277 -1.0146
10503TIP3    H253001   5.251   1.977   3.481 -1.5052  0.8921 -2.4369
10504TIP3   OH253002   3.637   6.094   5.947 -0.0058  0.1355  0.6555
10504TIP3    H153003   3.636   6.098   6.043 -1.6313  1.7499  0.6133
10504TIP3    H253004   3.695   6.165   5.920  1.9326 -1.4576  0.4177
10505TIP3   OH253005   4.338   2.815   2.414 -0.5270  0.2319  0.5488
10505TIP3    H153006   4.432   2.818   2.397 -0.9188  0.5441 -1.8182
10505TIP3    H253007   4.321   2.894   2.466  0.5077  0.1723  0.9952
10506TIP3   OH253008   1.594   5.129  14.657 -0.0371  0.5123 -0.4097
10506TIP3    H153009   1.684   5.133  14.624  1.4666 -0.1142  3.1761
10506TIP3    H253010   1.558   5.216  14.638  1.0393  0.5742 -2.4691
10507TIP3   OH253011   5.656   4.926   0.173  0.3141 -0.4327 -0.3883
10507TIP3    H153012   5.666   4.999   0.112  0.8998 -0.8297 -0.7813
10507TIP3    H253013   5.690   4.960   0.256  1.0871 -0.4104 -0.6973
10508TIP3   OH253014   5.832   3.085   4.640 -0.5931 -0.0055 -0.0930
10508TIP3    H153015   5.770   3.058   4.708 -1.7831  0.4947 -0.9365
10508TIP3    H253016   5.908   3.028   4.652 -0.5988  0.3312  1.8824
10509TIP3   OH253017   4.911   6.364  13.280 -0.6449  0.2742 -0.2251
10509TIP3    H153018   4.999   6.402  13.281  0.8742 -2.8047 -1.6757
10509TIP3    H253019   4.917   6.289  13.339 -3.1638  1.4786  1.7293
10510TIP3   OH253020   0.770   2.717  12.115 -0.1234  0.0551 -0.0234
10510TIP3    H153021   0.826   2.749  12.045 -0.0084  2.4000  1.0649
10510TIP3    H253022   0.683   2.751  12.095 -0.3381 -0.2641  0.3397
10511TIP3   OH253023   0.173   6.652  13.329  0.2280  0.3695 -0.1126
10511TIP3    H153024   0.230   6.579  13.352 -1.1835 -2.2673 -3.8628
10511TIP3    H253025   0.200   6.677  13.240 -2.6154  0.7901 -0.9874
10512TIP3   OH253026   0.743   2.231   4.870  0.0071 -0.2012 -0.0144
10512TIP3    H153027   0.695   2.313   4.882  0.8435  0.5728 -1.5494
10512TIP3    H253028   0.684   2.176   4.818  0.6773  0.7522 -1.9071
10513TIP3   OH253029   2.645   3.895  13.377 -0.1319 -0.4002  0.1373
10513TIP3    H153030   2.585   3.962  13.344  0.4302 -0.5167 -1.2175
10513TIP3    H253031   2.730   3.938  13.378  0.1756 -0.9719 -0.4182
10514TIP3   OH253032   2.992   5.736   5.759 -0.0125  0.0158  0.0915
10514TIP3    H153033   3.045   5.678   5.704 -2.0049 -2.6772  0.7876
10514TIP3    H253034   3.052   5.765   5.827  1.4626  0.1309 -1.1876
10515TIP3   OH253035   6.619   0.806  14.028 -0.1651  0.4047 -0.0421
10515TIP3    H153036   6.530   0.831  14.003 -0.4813 -0.5523  0.0615
10515TIP3    H253037   6.611   0.714  14.053  1.0926 -0.0727 -1.2666
10516TIP3   OH253038   4.539   4.525  16.011 -1.0523 -0.3803 -0.3418
10516TIP3    H153039   4.559   4.466  16.083 -1.5487 -1.1974 -0.8643
10516TIP3    H253040   4.581   4.608  16.036  0.9077 -1.3216 -0.2668
10517TIP3   OH253041   1.035   5.356  11.821  1.1620  0.6569 -0.3138
10517TIP3    H153042   1.099   5.413  11.862  1.6837 -1.1586  1.6320
10517TIP3    H253043   0.973   5.336  11.891  1.8765 -2.3209 -0.3947
10518TIP3   OH253044   5.264   4.651  12.392 -0.7040  0.2052 -0.0084
10518TIP3    H153045   5.182   4.693  12.418 -0.5833  0.8348 -0.6167
10518TIP3    H253046   5.325   4.672  12.463 -0.5212  1.4622 -0.5074
10519TIP3   OH253047   6.704   5.163  17.045 -0.3083  0.3691  0.1325
10519TIP3    H153048   6.664   5.078  17.024 -0.4160  0.5106 -0.2562
10519TIP3    H253049   6.697   5.171  17.140  0.9295 -0.6705  0.3407
10520TIP3   OH253050   2.549   6.255  14.150  0.3982 -0.2464 -0.2688
10520TIP3    H153051   2.534   6.350  14.151 -1.8506 -0.5563  0.3025
10520TIP3    H253052   2.464   6.217  14.172  0.5877 -2.5052 -2.9414
10521TIP3   OH253053   0.330   3.852   0.526  0.1413 -0.0180 -0.2062
10521TIP3    H153054   0.290   3.938   0.516 -0.7749 -0.5569 -1.4096
10521TIP3    H253055   0.412   3.869   0.573 -0.6207  1.3313  0.7124
10522TIP3   OH253056   4.387   3.968  16.072 -0.0066 -0.9015  0.0573
10522TIP3    H153057   4.405   3.957  15.979  1.1205  0.1190  0.1316
10522TIP3    H253058   4.341   3.887  16.097 -0.4509 -1.1293 -1.3912
10523TIP3   OH253059   2.943   3.632   3.392 -0.6739 -0.0292 -0.1920
10523TIP3    H153060   2.975   3.661   3.478 -0.1574  0.7068 -0.6190
10523TIP3    H253061   3.000   3.677   3.330 -0.7574 -0.9097 -0.9131
10524TIP3   OH253062   3.453   1.765   0.802  0.0888  0.1186 -0.5574
10524TIP3    H153063   3.484   1.805   0.720  0.7586  0.6415 -0.0679
10524TIP3    H253064   3.533   1.730   0.843 -0.6406 -3.5561 -1.8615
10525TIP3   OH253065   6.343   2.142  11.751  0.1569  0.4443 -0.6502
10525TIP3    H153066   6.305   2.168  11.835  3.5722 -0.8404  1.5079
10525TIP3    H253067   6.344   2.046  11.754 -0.1553  0.3496 -2.4713
10526TIP3   OH253068   4.573   0.441  12.835  0.7658 -0.1486  0.5684
10526TIP3    H153069   4.627   0.508  12.794  0.7325 -0.0365  0.7068
10526TIP3    H253070   4.586   0.453  12.929  0.8973 -0.4511  0.5895
10527TIP3   OH253071   1.088   1.567   1.544  0.1246  0.2118 -0.0467
10527TIP3    H153072   1.167   1.525   1.577 -0.3597 -1.7013 -1.1342
10527TIP3    H253073   1.036   1.587   1.622  2.0787  2.5611  0.7880
10528TIP3   OH253074   6.049   1.526   2.614 -0.1189  0.6313 -0.0462
10528TIP3    H153075   6.088   1.573   2.540  0.6773  0.9850  0.5797
10528TIP3    H253076   6.121   1.513   2.675 -0.5174 -0.6697  0.1769
10529TIP3   OH253077   3.676   0.158   4.318  0.1820 -0.3886 -0.3406
10529TIP3    H153078   3.727   0.169   4.237 -0.5037 -0.1908 -0.7557
10529TIP3    H253079   3.652   0.065   4.318 -0.7284 -0.1683 -0.9345
10530TIP3   OH253080   2.467   5.001  12.897 -0.0673 -0.2645  0.3603
10530TIP3    H153081   2.379   5.035  12.878 -0.2386  0.1924  1.8709
10530TIP3    H253082   2.505   4.984  12.810 -0.5222  2.4271 -0.4814
10531TIP3   OH253083   4.064   3.000   3.251  0.8302 -0.1896  0.1727
10531TIP3    H153084   4.018   3.039   3.177 -1.6679 -0.5054  1.4499
10531TIP3    H253085   4.132   2.946   3.212 -0.5122 -0.4789 -1.8847
10532TIP3   OH253086   2.784   0.471   0.891 -0.2611 -0.1019 -0.4196
10532TIP3    H153087   2.714   0.535   0.904  1.0717  1.6075 -1.2861
10532TIP3    H253088   2.839   0.480   0.969 -0.8145 -1.2669  0.1413
10533TIP3   OH253089   5.336   1.070  12.160 -0.3490  0.0368 -0.0698
10533TIP3    H153090   5.248   1.042  12.133  0.2341 -0.9648 -1.0275
10533TIP3    H253091   5.370   1.118  12.084  0.4022 -0.7081 -0.2187
10534TIP3   OH253092   4.254   0.400   4.843  0.1380 -0.1700 -0.6367
10534TIP3    H153093   4.177   0.367   4.889 -0.2649 -0.3410 -1.4034
10534TIP3    H253094   4.290   0.322   4.800  0.4186  0.0092 -0.7251
10535TIP3   OH253095   5.661   0.184   1.878  0.0712 -0.1656 -0.4847
10535TIP3    H153096   5.700   0.270   1.891  0.2359 -0.2994 -0.0804
10535TIP3    H253097   5.579   0.201   1.831 -1.3745  0.5013  2.1180
10536TIP3   OH253098   3.864   4.230  10.802 -0.3658 -0.0367  1.1475
10536TIP3    H153099   3.894   4.321  10.799  0.3526 -0.2481  1.7098
10536TIP3    H253100   3.786   4.229  10.747  0.3370  0.6465  0.1159
10537TIP3   OH253101   6.647   3.195  15.254 -0.1263 -0.2577  0.1287
10537TIP3    H153102   6.597   3.239  15.323  0.2719  0.2394  0.1064
10537TIP3    H253103   6.646   3.257  15.181  2.8991  1.0925  1.0561
10538TIP3   OH253104   0.813   1.731   0.815 -0.4410 -0.4787 -0.2487
10538TIP3    H153105   0.745   1.781   0.770  1.5711  0.3028 -2.6060
10538TIP3    H253106   0.784   1.640   0.808 -1.8436 -0.0867 -0.0155
10539TIP3   OH253107   1.933   1.934  16.205 -0.3809 -0.0486 -0.4414
10539TIP3    H153108   1.878   2.002  16.243  1.3241  1.4362 -0.4842
10539TIP3    H253109   1.988   1.980  16.142  0.3103 -1.6141 -1.0489
10540TIP3   OH253110   5.032   2.553  13.484 -1.0530  0.5020  0.2859
10540TIP3    H153111   5.083   2.478  13.513  0.0072  1.2896  0.5104
10540TIP3    H253112   4.984   2.521  13.408  1.1003  0.1869 -1.0117
10541TIP3   OH253113   4.471   2.613  15.034 -0.5513 -0.4575  0.2096
10541TIP3    H153114   4.400   2.675  15.052 -0.3322 -0.2699  0.4388
10541TIP3    H253115   4.430   2.542  14.985 -0.6365  0.2891 -0.8456
10542TIP3   OH253116   3.814   0.723   2.254 -0.1531 -0.1308  0.4627
10542TIP3    H153117   3.728   0.751   2.222 -0.2332 -0.0954  0.7118
10542TIP3    H253118   3.855   0.682   2.178 -0.5087 -0.4226  0.4259
10543TIP3   OH253119   0.842   1.709   5.903  0.2545  0.5750 -0.2734
10543TIP3    H153120   0.849   1.734   5.811  0.8358  0.9274 -0.1425
10543TIP3    H253121   0.783   1.633   5.904  1.2456 -0.2299 -1.0848
10544TIP3   OH253122   4.655   5.001  16.740  0.2858 -0.4003  0.0215
10544TIP3    H153123   4.573   4.954  16.723 -0.4434  0.9863 -0.4782
10544TIP3    H253124   4.686   5.026  16.653  0.9216 -0.3985  0.2474
10545TIP3   OH253125   4.190   4.698   0.413  0.2394 -0.3768 -0.3824
10545TIP3    H153126   4.194   4.697   0.317 -1.0138  0.1257 -0.4570
10545TIP3    H253127   4.112   4.749   0.433  2.0036  2.0342  0.9647
10546TIP3   OH253128   4.952   3.175  15.417  0.1123 -0.0134 -0.5426
10546TIP3    H153129   4.865   3.192  15.454  0.2481 -0.7397  0.1384
10546TIP3    H253130   4.939   3.096  15.364  0.8290 -1.5241  1.4262
10547TIP3   OH253131   6.301   4.728  16.559  0.1385 -0.2048 -0.1597
10547TIP3    H153132   6.290   4.703  16.467 -0.9338  0.6235 -0.2665
10547TIP3    H253133   6.226   4.689  16.604  0.9962 -1.1669  0.5164
10548TIP3   OH253134   0.007   1.619  12.732  0.2022 -0.3929  0.0837
10548TIP3    H153135   0.022   1.663  12.648 -2.4109  0.3323 -0.0935
10548TIP3    H253136  -0.055   1.676  12.778  0.2816 -1.6214  1.7886
10549TIP3   OH253137   0.778   1.123   1.807  0.0654 -0.2233  0.2681
10549TIP3    H153138   0.725   1.182   1.861 -2.2197 -1.8813 -0.0341
10549TIP3    H253139   0.828   1.071   1.870 -0.7431 -0.4893  0.7081
10550TIP3   OH253140   1.859   1.022   1.500 -0.4742  0.0934 -0.0312
10550TIP3    H153141   1.912   0.998   1.424 -1.0737 -0.2112 -0.3606
10550TIP3    H253142   1.903   1.099   1.536  0.7704 -0.7543  0.3103
10551TIP3   OH253143   1.262   4.558   4.894 -0.0472 -0.5570 -0.2457
10551TIP3    H153144   1.257   4.608   4.812 -0.4318  1.5113  0.9741
10551TIP3    H253145   1.200   4.486   4.881 -1.4760  0.7675 -1.1291
10552TIP3   OH253146   3.777   6.404  12.777  0.6431  0.0929 -0.2335
10552TIP3    H153147   3.789   6.354  12.696 -1.1557  2.0827 -1.8514
10552TIP3    H253148   3.716   6.352  12.829  0.2159 -0.2798 -1.0864
10553TIP3   OH253149   1.453   4.511  15.331  0.0291 -0.2639  0.5423
10553TIP3    H153150   1.418   4.600  15.321  2.4541  0.6611 -0.8227
10553TIP3    H253151   1.426   4.466  15.251 -0.3849 -0.4365  0.7809
10554TIP3   OH253152   1.805   1.525  17.238  0.5376  0.2851  0.1270
10554TIP3    H153153   1.762   1.604  17.272 -0.6748 -0.0285 -0.6261
10554TIP3    H253154   1.881   1.513  17.295  0.0670  1.3112  1.0081
10555TIP3   OH253155   1.369   5.641  15.427  0.4053  0.5380 -0.7489
10555TIP3    H153156   1.419   5.649  15.346 -0.0509  0.8123 -1.0093
10555TIP3    H253157   1.305   5.711  15.422  1.1351  1.3213  0.4091
10556TIP3   OH253158   0.700   1.988  16.217  0.4370  0.2743  0.0508
10556TIP3    H153159   0.626   2.049  16.218  0.3993  0.3074 -1.7513
10556TIP3    H253160   0.759   2.020  16.285 -1.3558  0.0178  1.8239
10557TIP3   OH253161   5.680   3.738   6.602 -0.2145  0.1953  0.1749
10557TIP3    H153162   5.669   3.828   6.632  0.2958  0.5239 -0.6090
10557TIP3    H253163   5.624   3.731   6.525 -1.0166 -0.4586  0.7915
10558TIP3   OH253164   1.914   1.967   5.766 -0.1431  0.3879 -0.8803
10558TIP3    H153165   1.977   2.009   5.707 -0.4274  1.9782 -0.0883
10558TIP3    H253166   1.830   1.974   5.721 -0.0368 -0.2344 -1.1856
10559TIP3   OH253167   2.404   1.818   0.519 -0.5592 -0.1109 -0.0411
10559TIP3    H153168   2.421   1.885   0.452 -0.0568  2.4676  2.4393
10559TIP3    H253169   2.467   1.749   0.500  1.5429  1.8276 -0.6120
10560TIP3   OH253170   1.714   5.065   3.060 -0.2434 -0.2881  0.2694
10560TIP3    H153171   1.709   5.106   3.146 -0.8625 -1.2845  0.7231
10560TIP3    H253172   1.737   4.974   3.077  0.2756 -0.3535 -0.6660
10561TIP3   OH253173   1.119   4.787  13.793  0.2493  0.3292  0.3477
10561TIP3    H153174   1.127   4.880  13.772 -0.2732 -0.1507 -2.3663
10561TIP3    H253175   1.204   4.749  13.770 -1.0298 -0.6002 -3.7891
10562TIP3   OH253176   3.327   0.734  11.790  0.4468  0.0635 -0.4446
10562TIP3    H153177   3.384   0.804  11.822  1.2739  0.0722 -1.8621
10562TIP3    H253178   3.271   0.777  11.726 -0.3903 -0.1939  0.1003
10563TIP3   OH253179   3.607   4.872   5.155  0.3426 -0.0732 -0.5688
10563TIP3    H153180   3.517   4.896   5.131  0.3443  0.5374  0.0138
10563TIP3    H253181   3.635   4.813   5.085 -0.3966 -0.0081 -0.9324
10564TIP3   OH253182   4.820   4.694  16.189 -0.2169 -0.0781 -0.1221
10564TIP3    H153183   4.868   4.755  16.134 -1.2330 -0.8230 -1.9000
10564TIP3    H253184   4.833   4.609  16.149 -0.1540 -0.8287  1.3972
10565TIP3   OH253185   0.757   6.000   3.596  0.4022 -0.2077 -0.1540
10565TIP3    H153186   0.838   6.049   3.608  1.9943 -2.2819 -1.7156
10565TIP3    H253187   0.783   5.908   3.602 -1.8657 -0.9391 -0.5204
10566TIP3   OH253188   6.205   1.041   1.492 -0.0745  0.0855 -0.2227
10566TIP3    H153189   6.146   1.044   1.417  0.5098 -1.2111 -0.7527
10566TIP3    H253190   6.149   1.059   1.567 -0.7630  0.8714 -0.9044
10567TIP3   OH253191   5.912   5.551   5.949 -0.1100 -0.4070  0.6248
10567TIP3    H153192   5.825   5.518   5.928  0.1740 -0.0979 -1.1493
10567TIP3    H253193   5.966   5.472   5.960 -0.4660 -0.5861  1.0993
10568TIP3   OH253194   2.065   3.176  15.491  0.3331  0.1588 -0.2052
10568TIP3    H153195   2.001   3.178  15.419  0.0559  0.2864  0.0413
10568TIP3    H253196   2.016   3.140  15.565  0.4146  0.6944  0.1112
10569TIP3   OH253197   3.083   3.827  12.882  0.0657  0.0003  0.9668
10569TIP3    H153198   3.159   3.885  12.884 -1.4727  2.2199  4.1527
10569TIP3    H253199   3.118   3.740  12.898  2.1019  0.5360 -0.2326
10570TIP3   OH253200   1.727   2.641   3.551  0.5513 -0.3385 -0.1651
10570TIP3    H153201   1.637   2.609   3.546 -0.3706  2.1112 -4.8493
10570TIP3    H253202   1.720   2.726   3.594  0.4043  0.2897 -1.3996
10571TIP3   OH253203   2.716   1.416   5.432  0.3178 -0.4358  0.4210
10571TIP3    H153204   2.684   1.336   5.391  2.0120 -1.9982  1.9662
10571TIP3    H253205   2.789   1.388   5.486  1.1874  2.2268  0.7971
10572TIP3   OH253206   5.926   1.844   4.075 -0.0677  0.2976 -0.5885
10572TIP3    H153207   5.948   1.752   4.088  0.3374  0.2659 -1.3923
10572TIP3    H253208   6.000   1.892   4.114 -0.0835  0.2711 -0.5261
10573TIP3   OH253209   0.185   6.417  16.496 -0.1685  0.8302 -0.2958
10573TIP3    H153210   0.216   6.404  16.406  0.2660 -0.2911  0.0056
10573TIP3    H253211   0.254   6.470  16.537  1.3313 -1.4774  0.3138
10574TIP3   OH253212   6.016   5.197  17.234 -0.4650  0.2627 -0.1676
10574TIP3    H153213   5.983   5.205  17.323 -1.4144  1.1792 -0.5727
10574TIP3    H253214   5.937   5.196  17.180  0.1217  2.3814 -1.1729
10575TIP3   OH253215   2.169   6.522  14.640 -0.3630  0.6203  0.3760
10575TIP3    H153216   2.113   6.452  14.672 -1.2955  0.7795 -0.8476
10575TIP3    H253217   2.236   6.532  14.708 -0.1711 -1.4638  0.5488
10576TIP3   OH253218   0.984   5.685  14.968  0.1618 -0.4185 -0.0664
10576TIP3    H153219   1.078   5.680  14.947 -0.0199 -0.6244 -0.8688
10576TIP3    H253220   0.951   5.753  14.909 -0.2308 -0.4752  0.0884
10577TIP3   OH253221   5.917   6.426   1.185  0.3797 -0.0236 -0.0501
10577TIP3    H153222   5.988   6.395   1.129  1.6317  0.2023  1.3319
10577TIP3    H253223   5.908   6.358   1.251 -0.0399  0.3861  0.3225
10578TIP3   OH253224   0.772   5.544   3.021 -0.6861 -0.1100 -0.5171
10578TIP3    H153225   0.832   5.494   3.075  0.0792 -0.0143 -1.2491
10578TIP3    H253226   0.817   5.627   3.005 -0.9322 -0.0959 -1.1978
10579TIP3   OH253227   5.176   2.754  13.360  0.0046 -0.4912  0.5382
10579TIP3    H153228   5.100   2.791  13.315  1.6049  0.8014 -1.2547
10579TIP3    H253229   5.143   2.676  13.404 -2.3433  0.0513 -0.1433
10580TIP3   OH253230   5.114   2.275   5.525  0.1521  0.2775 -0.9328
10580TIP3    H153231   5.050   2.297   5.593  0.5863  1.1726 -0.8034
10580TIP3    H253232   5.187   2.335   5.539  0.9411 -0.5733 -1.2202
10581TIP3   OH253233   6.011   5.404   5.644  0.1904  0.0362  0.1456
10581TIP3    H153234   5.989   5.371   5.731 -1.4779  1.0602  0.1553
10581TIP3    H253235   6.016   5.326   5.589 -2.0224 -0.4327  0.4982
10582TIP3   OH253236   5.525   6.343   5.004  0.3132  0.4441  0.2628
10582TIP3    H153237   5.506   6.390   4.923  1.5993  0.6206  0.0554
10582TIP3    H253238   5.597   6.284   4.983 -1.7489 -2.2695  0.3112
10583TIP3   OH253239   5.801   0.831  15.808  0.2729 -0.8829 -0.0218
10583TIP3    H153240   5.788   0.843  15.902 -2.0039  1.0279 -0.4795
10583TIP3    H253241   5.715   0.805  15.775  0.5115  0.3619 -1.7924
10584TIP3   OH253242   2.105   6.602  16.239 -0.4973  0.3905  0.3791
10584TIP3    H153243   2.100   6.520  16.287  0.4996 -0.1478 -0.4067
10584TIP3    H253244   2.136   6.578  16.152 -1.7724  1.4160 -0.3870
10585TIP3   OH253245   6.786   5.440  10.539 -0.4225 -0.0028  0.5148
10585TIP3    H153246   6.810   5.360  10.494  1.4547 -0.9722  3.0100
10585TIP3    H253247   6.800   5.509  10.474 -2.0856 -1.5849 -1.6871
10586TIP3   OH253248   4.015   0.909  12.387  0.0104  0.0222 -0.5165
10586TIP3    H153249   3.975   0.925  12.301 -1.7548 -0.0937  0.2222
10586TIP3    H253250   4.006   0.815  12.400 -1.7822  0.2882  0.6601
10587TIP3   OH253251   2.105   0.483  11.130  0.3470 -0.3993 -0.0785
10587TIP3    H153252   2.174   0.504  11.067 -0.8477 -0.2969 -1.3955
10587TIP3    H253253   2.049   0.561  11.131 -1.0445 -1.3580 -0.8205
10588TIP3   OH253254   4.051   3.604   2.088 -0.3154 -0.1997 -0.0221
10588TIP3    H153255   4.021   3.681   2.136 -0.8222  0.5976 -1.5224
10588TIP3    H253256   4.137   3.583   2.125  0.2145  1.6217 -0.1546
10589TIP3   OH253257   1.949   4.940  16.747 -0.5761  0.2949  0.0021
10589TIP3    H153258   2.044   4.930  16.735 -0.2700  2.8915 -0.2671
10589TIP3    H253259   1.914   4.948  16.659 -1.1793 -1.1369  0.0716
10590TIP3   OH253260   4.826   1.769  12.415 -0.0281 -0.1314 -0.4783
10590TIP3    H153261   4.791   1.858  12.421  1.1372  0.3405 -0.3751
10590TIP3    H253262   4.841   1.743  12.506 -1.8075 -1.0574 -0.4113
10591TIP3   OH253263   4.433   0.540  13.097 -0.4205 -0.5667  0.0416
10591TIP3    H153264   4.478   0.625  13.095 -0.1919 -0.6989 -1.1575
10591TIP3    H253265   4.353   0.554  13.048 -0.0631 -1.2128 -0.7437
10592TIP3   OH253266   3.393   4.522   5.686 -0.1451 -0.3344  0.4052
10592TIP3    H153267   3.363   4.431   5.691  0.8109 -0.6251  1.4062
10592TIP3    H253268   3.399   4.541   5.592  0.7734 -1.6980  0.1704
10593TIP3   OH253269   6.354   1.646  14.560  0.3183  0.0775 -0.0364
10593TIP3    H153270   6.432   1.599  14.530  0.8573 -0.4822  2.0930
10593TIP3    H253271   6.370   1.737  14.534 -0.0985 -0.5838 -2.9629
10594TIP3   OH253272   0.915   5.923  13.906  0.1012  0.1116  0.6147
10594TIP3    H153273   0.961   5.841  13.890 -0.8213 -0.0751 -1.3332
10594TIP3    H253274   0.910   5.930  14.001 -0.9764 -2.7651  0.8602
10595TIP3   OH253275   5.093   4.157   0.331  0.7325  0.6269 -0.0924
10595TIP3    H153276   4.998   4.161   0.321  0.6819  3.6101  0.5051
10595TIP3    H253277   5.106   4.121   0.419  0.0724  1.2403  0.2697
10596TIP3   OH253278   4.195   5.863   2.999 -0.1906 -0.6936 -0.0982
10596TIP3    H153279   4.149   5.781   3.019 -3.3656  1.3144  1.6162
10596TIP3    H253280   4.173   5.881   2.908 -3.6373  0.4878  0.8086
10597TIP3   OH253281   3.916   3.941  12.607 -0.0628  0.0887  0.2641
10597TIP3    H153282   4.010   3.932  12.624  0.3410  0.2178 -1.7014
10597TIP3    H253283   3.887   4.008  12.668  0.7123 -1.2134  2.1731
10598TIP3   OH253284   0.386   0.521   3.958  0.1893  0.0480 -0.0388
10598TIP3    H153285   0.432   0.451   3.912  0.0296  0.0813 -0.2546
10598TIP3    H253286   0.412   0.512   4.049 -1.3106 -1.4735  0.2782
10599TIP3   OH253287   0.701   2.331   1.505 -0.3872  0.4460 -0.3286
10599TIP3    H153288   0.610   2.355   1.485 -0.3546  0.4086 -0.5215
10599TIP3    H253289   0.695   2.240   1.535 -0.3852  0.3648 -0.5704
10600TIP3   OH253290   0.313   4.566  12.665 -0.1003 -0.3176  0.3739
10600TIP3    H153291   0.394   4.613  12.644 -1.3508  0.8248 -2.4955
10600TIP3    H253292   0.335   4.474  12.654  0.6828  0.0087 -1.1535
10601TIP3   OH253293   0.884   4.373  15.830 -0.0948  0.4480  0.1754
10601TIP3    H153294   0.887   4.448  15.890 -2.4479 -0.0946  1.0592
10601TIP3    H253295   0.966   4.327  15.847 -0.8033  0.1030  3.3476
10602TIP3   OH253296   4.486   0.471  16.720 -0.2023  0.1636 -0.2226
10602TIP3    H153297   4.408   0.433  16.761  1.8983 -2.9411  1.3248
10602TIP3    H253298   4.514   0.540  16.780 -1.4183  0.9141 -0.5053
10603TIP3   OH253299   0.097   3.125  15.864 -0.5272 -0.2780  0.0570
10603TIP3    H153300   0.185   3.146  15.897  0.1660  0.3719 -2.0421
10603TIP3    H253301   0.053   3.085  15.939  1.6507 -0.9232  1.0949
10604TIP3   OH253302   1.031   0.779   4.218 -0.5532  0.9271 -0.3385
10604TIP3    H153303   1.031   0.832   4.138 -1.9458  1.4059 -0.0473
10604TIP3    H253304   0.998   0.838   4.286  1.0288  0.6554  0.6999
10605TIP3   OH253305   0.030   1.523  14.348  0.2533  0.2521  0.2229
10605TIP3    H153306  -0.042   1.562  14.397  0.2799  3.4238 -1.9953
10605TIP3    H253307   0.045   1.439  14.391 -1.5104  1.5629  3.8220
10606TIP3   OH253308   0.375   6.259  11.700 -0.4500  0.1887 -0.2136
10606TIP3    H153309   0.458   6.247  11.747 -0.3703  0.5260 -0.2607
10606TIP3    H253310   0.313   6.202  11.745 -0.0282 -0.5998 -0.6099
10607TIP3   OH253311   2.767   6.302  15.831  0.1629 -0.2494  0.2560
10607TIP3    H153312   2.850   6.302  15.782  0.4933 -2.7280  0.7156
10607TIP3    H253313   2.711   6.361  15.781  1.5238 -0.1794 -1.2928
10608TIP3   OH253314   1.036   0.962  15.377 -0.6529  0.0511 -0.4147
10608TIP3    H153315   0.993   1.048  15.378  0.6271  0.7299 -1.5899
10608TIP3    H253316   1.015   0.925  15.292 -0.7244 -0.5734 -0.1338
10609TIP3   OH253317   6.751   2.036  12.691 -0.2030 -0.5366  0.4489
10609TIP3    H153318   6.815   2.052  12.759 -0.3272 -0.4575  0.5490
10609TIP3    H253319   6.666   2.050  12.733 -0.2591  0.2380  0.1005
10610TIP3   OH253320   3.318   0.635  11.446 -0.5972 -0.9328 -0.1548
10610TIP3    H153321   3.244   0.689  11.472 -0.2002 -0.0439 -0.8304
10610TIP3    H253322   3.317   0.636  11.351  0.3653 -0.7933 -0.1771
10611TIP3   OH253323   5.252   2.066   5.974  0.1806  0.1440 -0.1822
10611TIP3    H153324   5.233   1.986   5.924 -0.5396  1.2783 -1.8067
10611TIP3    H253325   5.331   2.045   6.023 -0.5600 -1.9083  0.2422
10612TIP3   OH253326   5.287   0.685  14.726  0.1022 -0.1023  0.6005
10612TIP3    H153327   5.204   0.704  14.770  1.2014 -0.3426  2.9498
10612TIP3    H253328   5.308   0.766  14.679 -0.6097  0.5930  1.4341
10613TIP3   OH253329   6.617   1.601  16.216  0.3291  0.6392  0.2221
10613TIP3    H153330   6.582   1.614  16.128 -3.5318  0.4233  1.4970
10613TIP3    H253331   6.637   1.689  16.247 -0.1444  0.9077 -0.2173
10614TIP3   OH253332   0.075   3.930  15.452  0.0476  0.2943 -0.3248
10614TIP3    H153333   0.170   3.923  15.436  0.5385  3.5254  0.5078
10614TIP3    H253334   0.067   3.999  15.518 -2.9883  0.9495 -1.2307
10615TIP3   OH253335   4.929   5.480  12.601  0.0937 -0.2043  0.3585
10615TIP3    H153336   4.906   5.506  12.512  0.3314  0.3199  0.4476
10615TIP3    H253337   5.025   5.479  12.601  0.0941 -1.0783  0.3612
10616TIP3   OH253338   0.932   4.510  14.836  0.1092  0.2500  0.0597
10616TIP3    H153339   0.933   4.541  14.745 -2.2757 -0.9579 -0.4578
10616TIP3    H253340   0.929   4.590  14.889 -1.9575  1.0119 -1.0805
10617TIP3   OH253341   6.213   0.140   1.241  0.0471  0.6515  0.2888
10617TIP3    H153342   6.162   0.102   1.312 -0.1148 -0.6476 -0.4839
10617TIP3    H253343   6.172   0.225   1.225 -0.8208  0.3466  0.8004
10618TIP3   OH253344   3.242   0.026   3.358 -0.0468 -0.2090 -0.0929
10618TIP3    H153345   3.252  -0.066   3.334  0.8917 -0.2963  0.5953
10618TIP3    H253346   3.176   0.060   3.297 -1.4911 -1.6970  0.5669
10619TIP3   OH253347   5.660   2.840  10.522 -0.2260  0.3542  0.1503
10619TIP3    H153348   5.571   2.847  10.489 -0.5249  0.0197  0.8748
10619TIP3    H253349   5.701   2.773  10.466 -0.0001  1.4895 -1.0736
10620TIP3   OH253350   0.334   5.324  14.122  0.1083  0.3246 -0.2402
10620TIP3    H153351   0.326   5.232  14.146  0.0124  0.3308 -0.2475
10620TIP3    H253352   0.427   5.343  14.130  0.0432  0.3989  0.3986
10621TIP3   OH253353   4.347   2.923  11.535  0.2373  0.6602 -0.1748
10621TIP3    H153354   4.332   2.871  11.614 -1.4862 -0.4633 -1.1929
10621TIP3    H253355   4.283   2.891  11.472  2.8795  0.0782 -2.7706
10622TIP3   OH253356   2.588   0.382  13.795 -0.0786 -0.0460  0.7871
10622TIP3    H153357   2.649   0.426  13.855 -0.2844  1.5454 -0.1097
10622TIP3    H253358   2.596   0.289  13.816  2.1672  0.1814  1.1547
10623TIP3   OH253359   2.042   4.790  14.331 -0.1964  0.1912  0.1938
10623TIP3    H153360   2.040   4.874  14.286 -0.8565  0.1153  0.0643
10623TIP3    H253361   1.965   4.744  14.299  1.1336 -1.2072 -1.1081
10624TIP3   OH253362   4.268   6.684  17.155  0.0459  0.3469 -0.5569
10624TIP3    H153363   4.338   6.725  17.206  0.5705  1.9035 -2.3935
10624TIP3    H253364   4.311   6.656  17.074 -1.4324  1.3612 -1.7407
10625TIP3   OH253365   0.369   3.308  16.759  0.5957  0.1209 -1.7053
10625TIP3    H153366   0.400   3.222  16.730  0.0934 -0.2477 -1.1652
10625TIP3    H253367   0.282   3.291  16.794  0.9244  0.6544 -0.5857
10626TIP3   OH253368   4.886   3.331  12.837 -0.5626  0.0408 -0.4078
10626TIP3    H153369   4.948   3.372  12.776  0.6991  0.5169  1.1024
10626TIP3    H253370   4.858   3.251  12.793 -0.3222  0.7569 -1.9328
10627TIP3   OH253371   3.478   0.749   6.305 -0.0269  0.2295  0.0983
10627TIP3    H153372   3.467   0.686   6.377 -0.0943  2.0711  1.7980
10627TIP3    H253373   3.492   0.833   6.349  2.3428  1.0870 -2.0477
10628TIP3   OH253374   1.058   0.361  12.541 -0.3052 -0.2006 -0.0498
10628TIP3    H153375   1.058   0.349  12.446  0.2939  2.1013 -0.4086
10628TIP3    H253376   1.124   0.428  12.557  0.4920 -1.4158  2.1531
10629TIP3   OH253377   0.975   0.988  17.065 -0.4211  0.5984 -0.0664
10629TIP3    H153378   0.950   1.063  17.011 -0.5009  0.9556  0.4602
10629TIP3    H253379   0.980   1.023  17.154 -0.4568 -0.0230  0.1850
10630TIP3   OH253380   5.515   4.202  15.140 -0.1110 -0.6724  0.7445
10630TIP3    H153381   5.576   4.245  15.200 -1.3009  1.0573  0.7700
10630TIP3    H253382   5.428   4.231  15.168 -0.6951  0.9931 -2.3309
10631TIP3   OH253383   2.221   4.816  14.908 -0.5538  0.6847 -0.6827
10631TIP3    H153384   2.209   4.896  14.959 -0.1008  0.2045  0.2099
10631TIP3    H253385   2.138   4.769  14.916 -0.5450  0.6944 -0.5397
10632TIP3   OH253386   5.474   4.383   1.496  0.0881 -0.2745  0.1213
10632TIP3    H153387   5.510   4.472   1.499 -1.1380  0.2210  1.0327
10632TIP3    H253388   5.381   4.394   1.516 -0.1250 -1.7550  0.0646
10633TIP3   OH253389   6.472   3.263   1.238  0.0795 -0.5691  0.1573
10633TIP3    H153390   6.466   3.338   1.179  1.2226 -1.7397 -1.5659
10633TIP3    H253391   6.420   3.195   1.195 -1.1035 -0.7379  1.7862
10634TIP3   OH253392   5.154   0.763   4.158 -0.3531 -0.0565 -0.2318
10634TIP3    H153393   5.067   0.802   4.161 -0.8840 -1.2012 -0.0896
10634TIP3    H253394   5.148   0.694   4.091  0.4328 -0.1670 -0.2033
10635TIP3   OH253395   1.532   2.102   4.388  0.3874 -0.4700 -0.5638
10635TIP3    H153396   1.559   2.079   4.477 -0.9701 -0.7182 -0.1968
10635TIP3    H253397   1.469   2.034   4.363 -2.8937  2.0428  0.1315
10636TIP3   OH253398   4.384   3.605   2.510 -0.2496 -0.1602  0.7857
10636TIP3    H153399   4.459   3.550   2.534  0.5133  1.0546  1.2924
10636TIP3    H253400   4.391   3.681   2.568 -0.8456  0.8255 -0.3897
10637TIP3   OH253401   0.727   6.580  14.838 -0.2898  0.3573  0.0280
10637TIP3    H153402   0.699   6.584  14.746 -1.4440  0.7362  0.3852
10637TIP3    H253403   0.673   6.644  14.883 -0.6868 -0.7698  1.2169
10638TIP3   OH253404   6.706   0.054  17.296 -0.1101  0.2270  0.3285
10638TIP3    H153405   6.617   0.021  17.292 -0.4457  0.9665  1.2884
10638TIP3    H253406   6.725   0.083  17.207 -1.3999  1.4917  0.4406
10639TIP3   OH253407   6.820   3.879   4.582 -0.5689  0.3253  0.1693
10639TIP3    H153408   6.759   3.816   4.541 -0.8332  1.3171 -1.0482
10639TIP3    H253409   6.806   3.869   4.676 -1.4818 -0.5798 -0.0457
10640TIP3   OH253410   3.715   1.007  10.704  0.1891 -0.3837 -0.1377
10640TIP3    H153411   3.695   0.918  10.732  1.3523 -1.4252 -2.3538
10640TIP3    H253412   3.809   1.017  10.721  0.2697  0.0485 -0.7886
10641TIP3   OH253413   3.473   4.448  13.918 -0.2166 -0.3781 -0.5793
10641TIP3    H153414   3.490   4.354  13.907 -2.3142 -0.7595 -1.0506
10641TIP3    H253415   3.558   4.489  13.904  0.2270 -2.0008 -3.4279
10642TIP3   OH253416   1.542   5.204  17.247  0.0142  0.1922  0.0971
10642TIP3    H153417   1.594   5.282  17.268 -1.1444  0.5701  1.7686
10642TIP3    H253418   1.547   5.198  17.151  1.2777  1.4968  0.0370
10643TIP3   OH253419   5.845   4.967  12.417  0.0309 -0.2728  0.4723
10643TIP3    H153420   5.781   5.027  12.379  0.2857  1.0331  1.9592
10643TIP3    H253421   5.839   4.984  12.511  1.2170 -1.5081  0.7918
10644TIP3   OH253422   2.620   0.687   0.868 -0.1036 -0.2912  0.1605
10644TIP3    H153423   2.602   0.733   0.950  1.2390 -1.4257  1.1458
10644TIP3    H253424   2.648   0.757   0.808  0.7244  0.3556  1.2506
10645TIP3   OH253425   5.062   6.411  14.438  0.0712  1.1304 -0.2289
10645TIP3    H153426   5.030   6.325  14.466 -1.1122  1.0976 -1.5511
10645TIP3    H253427   5.009   6.473  14.489 -1.1348  1.0647 -1.3577
10646TIP3   OH253428   5.318   6.539   5.731 -0.0863 -0.1366  0.4289
10646TIP3    H153429   5.328   6.478   5.804  1.8787 -0.1863  0.1773
10646TIP3    H253430   5.274   6.487   5.663  1.2816 -1.2244  0.3288
10647TIP3   OH253431   5.103   3.416  15.523 -0.3931 -0.7169  0.6986
10647TIP3    H153432   5.012   3.430  15.497 -0.6512 -0.5872  1.6328
10647TIP3    H253433   5.153   3.481  15.472 -1.0176  0.2978  1.3312
10648TIP3   OH253434   6.061   1.073   3.266 -0.2587 -0.1236 -0.1667
10648TIP3    H153435   6.022   1.088   3.180 -3.1216  1.5448  1.2753
10648TIP3    H253436   6.138   1.130   3.268 -1.1733  1.1862 -1.0123
10649TIP3   OH253437   2.785   3.261  16.193  0.0324 -0.1405 -0.5199
10649TIP3    H153438   2.795   3.199  16.265 -1.2948  0.4262  0.1966
10649TIP3    H253439   2.874   3.293  16.176  0.3307  0.0062  1.1577
10650TIP3   OH253440   0.982   2.892   3.244  0.0426  0.3243 -0.4955
10650TIP3    H153441   1.022   2.900   3.330  0.3738  0.6411 -0.6776
10650TIP3    H253442   0.991   2.979   3.205  1.2218 -0.1859 -1.4253
10651TIP3   OH253443   6.695   4.868  16.022 -0.2122  0.9597 -0.2655
10651TIP3    H153444   6.749   4.944  16.043 -0.7580  1.1882  0.3875
10651TIP3    H253445   6.636   4.899  15.953  0.3959  0.7468 -0.8877
10652TIP3   OH253446   1.104   0.500   0.886 -0.2954  0.0607  0.3671
10652TIP3    H153447   1.145   0.490   0.972 -1.0924 -0.6662  0.6752
10652TIP3    H253448   1.019   0.457   0.894  0.2473 -1.4439 -1.2433
10653TIP3   OH253449   6.698   1.933   1.693 -0.1940 -0.4432  0.4094
10653TIP3    H153450   6.739   2.017   1.712  0.1938 -0.2912 -1.0529
10653TIP3    H253451   6.605   1.953   1.685 -0.5350 -0.6677  2.9744
10654TIP3   OH253452   3.610   6.718   6.133 -0.3260 -0.2416  0.5647
10654TIP3    H153453   3.558   6.799   6.132 -2.0900 -1.2461  2.6787
10654TIP3    H253454   3.693   6.743   6.173 -0.2983  0.8112 -0.1282
10655TIP3   OH253455   4.436   2.017   6.510  0.6153 -0.4260  0.6328
10655TIP3    H153456   4.390   1.934   6.506  2.3296 -1.3762 -1.1932
10655TIP3    H253457   4.511   1.999   6.568  0.0029  0.4204  1.7216
10656TIP3   OH253458   2.248   0.894  11.824  0.2434  0.0012  0.1360
10656TIP3    H153459   2.234   0.864  11.734 -0.0755 -1.5402  0.6568
10656TIP3    H253460   2.185   0.843  11.876  0.4328  0.8468  1.2380
10657TIP3   OH253461   6.779   3.338   4.894 -0.0530  0.6963  0.4288
10657TIP3    H153462   6.727   3.260   4.872  2.3300 -0.3982 -1.8840
10657TIP3    H253463   6.826   3.313   4.974  0.8161 -0.3561 -0.3840
10658TIP3   OH253464   4.833   5.428   5.496  0.5960  0.4023  0.3681
10658TIP3    H153465   4.818   5.483   5.419  1.8723  1.8395  1.0972
10658TIP3    H253466   4.929   5.425   5.505  0.4967 -0.5187  1.3608
10659TIP3   OH253467   0.232   4.927  17.019 -0.5646  0.1709 -0.0918
10659TIP3    H153468   0.230   4.848  16.965 -0.9572  0.1548 -0.0599
10659TIP3    H253469   0.192   4.995  16.964  0.1537  0.4473 -0.2755
10660TIP3   OH253470   2.058   1.825  15.945 -0.1030 -0.3955 -0.2621
10660TIP3    H153471   2.004   1.748  15.930  0.4081 -0.6417 -0.8893
10660TIP3    H253472   1.999   1.899  15.931 -0.8159 -0.6661  1.1986
10661TIP3   OH253473   3.336   5.737   1.964  0.3820 -0.5689  0.4284
10661TIP3    H153474   3.333   5.647   1.931 -3.9993  0.0559 -1.6268
10661TIP3    H253475   3.324   5.791   1.886  2.1708  1.8669  1.6983
10662TIP3   OH253476   3.175   1.196   0.796 -0.6859 -0.0991  0.6146
10662TIP3    H153477   3.156   1.141   0.720 -0.6135  0.2459  0.3469
10662TIP3    H253478   3.268   1.218   0.788  0.1340 -2.4691  2.3617
10663TIP3   OH253479   3.262   6.457   0.276 -0.3507  0.3246 -0.2041
10663TIP3    H153480   3.198   6.518   0.312  1.2070  1.6178  0.4777
10663TIP3    H253481   3.327   6.513   0.233  1.2221 -0.8313  0.6009
10664TIP3   OH253482   0.661   4.330  14.328 -0.0831 -0.0338 -0.0637
10664TIP3    H153483   0.650   4.281  14.246 -0.3808 -1.5901  0.8581
10664TIP3    H253484   0.582   4.309  14.378  0.2676  0.6072  0.7707
10665TIP3   OH253485   1.999   4.933   4.969  0.5761 -0.2801  0.4421
10665TIP3    H153486   2.002   5.002   4.903  2.5944 -0.0851  0.6865
10665TIP3    H253487   1.906   4.911   4.976  0.0094  1.6106 -0.4483
10666TIP3   OH253488   1.078   4.468  16.208 -0.8025 -0.0886 -1.0734
10666TIP3    H153489   1.098   4.483  16.116  3.1075  1.2111 -0.2273
10666TIP3    H253490   1.119   4.384  16.228  0.5953  0.7797 -0.0808
10667TIP3   OH253491   4.625   1.312   0.172  0.0375 -0.2886 -0.1609
10667TIP3    H153492   4.637   1.393   0.221  0.0330 -1.2274  1.4405
10667TIP3    H253493   4.575   1.255   0.231 -0.5898 -1.2132 -1.5322
10668TIP3   OH253494   0.183   1.649  11.653  0.2317  0.1552 -0.3928
10668TIP3    H153495   0.144   1.734  11.676  1.1590  0.1771  1.2812
10668TIP3    H253496   0.276   1.668  11.640  0.5634 -0.6836  0.6375
10669TIP3   OH253497   4.933   1.412  16.244  0.2983 -0.1240 -0.5602
10669TIP3    H153498   4.866   1.473  16.273  0.8063 -0.2902  1.0304
10669TIP3    H253499   4.990   1.463  16.187 -0.5830  0.2716 -1.1073
10670TIP3   OH253500   6.427   0.251   3.329 -0.1920  0.5872 -0.2536
10670TIP3    H153501   6.405   0.196   3.253  1.3900 -1.1645  0.4809
10670TIP3    H253502   6.447   0.188   3.399  2.4124  2.0427  0.4287
10671TIP3   OH253503   5.983   5.034   1.602 -0.4223  0.0449 -0.6389
10671TIP3    H153504   5.910   5.061   1.547 -2.3416 -1.6627  0.9454
10671TIP3    H253505   6.040   4.985   1.542 -1.7943 -0.6843 -1.3925
10672TIP3   OH253506   6.129   4.661   4.473 -0.0094 -0.8980 -0.3107
10672TIP3    H153507   6.034   4.670   4.459 -0.1262  1.2183  1.2359
10672TIP3    H253508   6.159   4.607   4.400 -1.7175  2.1414 -3.5732
10673TIP3   OH253509   5.952   2.738   0.261 -0.0631 -0.1235 -0.0839
10673TIP3    H153510   5.903   2.662   0.231  0.1222 -0.0560 -0.5585
10673TIP3    H253511   6.034   2.701   0.294  0.4949 -0.0405 -1.3294
10674TIP3   OH253512   6.222   0.187  14.372  0.2115 -0.1453 -0.1451
10674TIP3    H153513   6.297   0.241  14.346  0.6140 -1.2064 -1.3135
10674TIP3    H253514   6.240   0.165  14.464 -0.0557  1.7999  0.4068
10675TIP3   OH253515   2.042   0.460  14.936 -0.2069  0.1708 -0.5429
10675TIP3    H153516   1.971   0.523  14.921 -1.4531 -1.4575 -1.9684
10675TIP3    H253517   2.047   0.410  14.854  2.3874 -0.0278 -0.3470
10676TIP3   OH253518   5.125   0.481  16.190  0.1664 -0.1875  0.3172
10676TIP3    H153519   5.057   0.495  16.256 -1.8205 -2.5573 -1.0225
10676TIP3    H253520   5.170   0.402  16.219 -0.7000 -1.2334 -1.0167
10677TIP3   OH253521   4.584   4.977  12.472 -0.1195 -0.4236  0.2799
10677TIP3    H153522   4.579   4.945  12.561 -1.1980 -0.4972  0.2033
10677TIP3    H253523   4.653   5.044  12.474  1.1565 -1.6965  0.7466
10678TIP3   OH253524   2.210   6.820  15.972  0.1681  0.0037  0.1094
10678TIP3    H153525   2.150   6.872  15.919  0.8482  0.5965 -0.1023
10678TIP3    H253526   2.188   6.841  16.062  2.7918  3.6264  0.1222
10679TIP3   OH253527   6.054   0.422   4.646 -0.1570  0.1981 -0.0495
10679TIP3    H153528   5.977   0.477   4.663 -0.4598 -0.2073 -0.0938
10679TIP3    H253529   6.127   0.483   4.642 -0.3854  0.5246  0.6380
10680TIP3   OH253530   3.509   2.902  16.651  0.6168 -0.2142  0.1446
10680TIP3    H153531   3.478   2.812  16.657 -0.3775 -0.0221 -1.4431
10680TIP3    H253532   3.525   2.929  16.742  1.2113 -2.0607  0.6181
10681TIP3   OH253533   5.888   6.736   3.485 -0.0515 -0.9076 -0.1559
10681TIP3    H153534   5.945   6.770   3.554 -1.0641 -0.1539  0.3427
10681TIP3    H253535   5.944   6.678   3.434  1.3671  0.3488 -0.1203
10682TIP3   OH253536   5.618   6.468   2.544 -0.1444  0.2516 -0.4145
10682TIP3    H153537   5.689   6.490   2.485 -0.3885 -0.0345 -0.8194
10682TIP3    H253538   5.657   6.470   2.631  0.6236 -0.9423 -0.7073
10683TIP3   OH253539   1.712   6.267   1.867 -0.5056  0.1252 -0.1791
10683TIP3    H153540   1.660   6.206   1.919 -1.5113 -1.2468 -2.6530
10683TIP3    H253541   1.776   6.301   1.929 -0.4979 -2.7155  1.5829
10684TIP3   OH253542   3.120   2.822  12.539 -0.1366  0.2300  0.0696
10684TIP3    H153543   3.106   2.865  12.624 -0.7360  2.6675 -1.1828
10684TIP3    H253544   3.140   2.732  12.562 -0.8626  0.6544  2.7869
10685TIP3   OH253545   3.804   2.822  11.757  0.1798  0.2367  0.6758
10685TIP3    H153546   3.848   2.874  11.691  0.3610  1.6024  1.8364
10685TIP3    H253547   3.868   2.813  11.828  0.4253 -2.2150  0.2385
10686TIP3   OH253548   5.481   4.463  13.511  0.3600 -0.0128  0.2231
10686TIP3    H153549   5.437   4.492  13.591  0.7119  0.3552  0.2905
10686TIP3    H253550   5.494   4.369  13.523 -1.6044 -0.4126 -0.3731
10687TIP3   OH253551   6.476   4.945  17.108 -0.4546 -0.4923  0.3655
10687TIP3    H153552   6.415   4.981  17.173 -0.8971 -0.9213  0.1950
10687TIP3    H253553   6.423   4.885  17.056  0.0225 -0.5592 -0.0529
10688TIP3   OH253554   4.910   2.181   1.992 -0.6925  0.7390 -0.0452
10688TIP3    H153555   4.835   2.186   2.050 -0.6142  2.9638 -0.0827
10688TIP3    H253556   4.986   2.198   2.048  0.0576 -2.7934  0.2782
10689TIP3   OH253557   4.021   0.519   1.197  0.1628  0.0289  0.3812
10689TIP3    H153558   4.031   0.601   1.150 -0.2298  0.9500  1.8560
10689TIP3    H253559   3.928   0.499   1.191  0.5384 -1.4672 -1.7703
10690TIP3   OH253560   1.906   0.335  12.030  0.6455  0.6895 -0.3642
10690TIP3    H153561   2.000   0.338  12.015  0.6695  1.1359 -0.1595
10690TIP3    H253562   1.878   0.251  11.995  1.2822  0.0905  0.5152
10691TIP3   OH253563   1.800   3.159   5.824  0.6056 -0.1160 -0.1781
10691TIP3    H153564   1.753   3.242   5.829  1.0200  0.1230 -0.1856
10691TIP3    H253565   1.843   3.151   5.909 -1.3594 -1.5007  0.7663
10692TIP3   OH253566   3.069   4.655   1.996 -0.4937  0.7965  0.4305
10692TIP3    H153567   3.151   4.705   1.995  0.1253 -0.1339  1.5067
10692TIP3    H253568   3.040   4.659   2.087 -1.0178  0.1441  0.2971
10693TIP3   OH253569   1.352   2.791   4.340  0.0176  0.3845  0.2856
10693TIP3    H153570   1.269   2.800   4.293 -1.1330 -1.0298  1.9134
10693TIP3    H253571   1.326   2.773   4.431  2.1298  1.3875  1.1537
10694TIP3   OH253572   2.601   2.160   3.950 -0.3680  0.0179  0.4458
10694TIP3    H153573   2.622   2.250   3.927  3.7668 -0.9096 -0.1540
10694TIP3    H253574   2.623   2.153   4.043  1.5952 -0.8531 -0.0438
10695TIP3   OH253575   1.358   1.829  13.895 -0.7764 -0.2360  0.1104
10695TIP3    H153576   1.416   1.780  13.837  0.0418  1.3649 -0.4920
10695TIP3    H253577   1.371   1.790  13.981 -0.5339 -1.3865 -0.4357
10696TIP3   OH253578   5.091   4.895   2.969  0.7973  0.2601 -0.5299
10696TIP3    H153579   5.088   4.845   2.887  0.0367 -2.0507  0.8190
10696TIP3    H253580   5.094   4.828   3.038 -1.3248  2.0424  1.4531
10697TIP3   OH253581   5.751   1.332   4.292 -0.0227  0.8797 -0.2516
10697TIP3    H153582   5.667   1.321   4.248  0.3341  2.7531 -1.5243
10697TIP3    H253583   5.806   1.263   4.255 -0.7427  0.1812 -0.0467
10698TIP3   OH253584   0.002   3.622  11.481  0.8658 -0.2587  0.3501
10698TIP3    H153585  -0.046   3.681  11.422  1.4845  0.5670  0.6606
10698TIP3    H253586   0.033   3.678  11.552  0.5971 -1.1426  1.1949
10699TIP3   OH253587   0.284   3.599  17.085  0.1394  0.1711 -1.0184
10699TIP3    H153588   0.241   3.577  17.002  1.1144 -0.3831 -1.3855
10699TIP3    H253589   0.349   3.531  17.097  0.7951  0.8949 -0.3699
10700TIP3   OH253590   2.121   1.285  14.027  0.5437 -0.0705 -0.4638
10700TIP3    H153591   2.080   1.326  13.951  0.7184  0.3145 -0.3544
10700TIP3    H253592   2.209   1.262  13.997 -0.1290 -2.0198 -1.0804
10701TIP3   OH253593   4.899   5.538  14.675 -0.0822 -0.1447  0.0148
10701TIP3    H153594   4.805   5.519  14.670 -0.1240  0.0218  0.1480
10701TIP3    H253595   4.903   5.632  14.694  0.1077 -0.1984  0.2415
10702TIP3   OH253596   6.101   4.320  13.531  1.0255 -0.3651  0.0671
10702TIP3    H153597   6.105   4.415  13.515 -0.0856  0.4248  3.5962
10702TIP3    H253598   6.176   4.302  13.587  0.9564 -1.5161 -0.1865
10703TIP3   OH253599   5.154   5.392  16.894  0.3876  0.1485 -0.1819
10703TIP3    H153600   5.194   5.384  16.808 -0.4021 -0.7620 -0.4846
10703TIP3    H253601   5.062   5.413  16.876  0.1167 -0.4959  0.4214
10704TIP3   OH253602   4.707   5.036  12.918  0.3460  0.1386  0.1881
10704TIP3    H153603   4.687   5.128  12.906  0.1177 -0.0665 -1.2172
10704TIP3    H253604   4.671   4.993  12.840  2.3791 -0.8498 -0.2810
10705TIP3   OH253605   1.160   3.576   0.976  0.2379 -0.1651 -0.7648
10705TIP3    H153606   1.123   3.650   1.024 -0.4844 -1.2921  0.4803
10705TIP3    H253607   1.183   3.612   0.890  0.5361  1.6496  0.0338
10706TIP3   OH253608   0.401   5.410  16.904  0.2699 -0.4392 -0.3652
10706TIP3    H153609   0.332   5.387  16.966 -0.7602  0.5834 -1.1004
10706TIP3    H253610   0.389   5.503  16.887  2.1798 -0.1049 -0.1144
10707TIP3   OH253611   2.714   1.666   3.638  0.0042 -0.2064  0.3717
10707TIP3    H153612   2.657   1.597   3.672 -0.1144 -0.1349  0.3197
10707TIP3    H253613   2.655   1.739   3.621 -0.0219 -0.3929 -0.4127
10708TIP3   OH253614   2.533   5.652  16.650  0.2314  0.0327  0.0749
10708TIP3    H153615   2.612   5.691  16.613  0.2167  1.4358  1.4056
10708TIP3    H253616   2.514   5.706  16.727 -1.3111 -1.0517  0.4979
10709TIP3   OH253617   6.562   4.132  17.211 -0.0161  0.6433  0.4034
10709TIP3    H153618   6.587   4.073  17.282  3.7238  5.3801  3.6576
10709TIP3    H253619   6.467   4.136  17.216 -0.2281 -2.7306  1.8345
10710TIP3   OH253620   5.550   5.560   3.346 -0.4174  0.3568  0.3233
10710TIP3    H153621   5.481   5.550   3.411  1.3357  1.5542  2.5083
10710TIP3    H253622   5.590   5.473   3.339 -1.7127 -0.1992 -0.5236
10711TIP3   OH253623   5.318   0.771  13.338  0.3297 -0.1748 -0.3807
10711TIP3    H153624   5.411   0.752  13.327  0.0312 -1.0706 -1.5592
10711TIP3    H253625   5.285   0.780  13.249 -0.9312 -1.0186 -0.0176
10712TIP3   OH253626   2.872   2.168  16.766  0.0358 -0.1153 -0.3449
10712TIP3    H153627   2.941   2.115  16.726 -0.0120 -0.9301  0.6306
10712TIP3    H253628   2.793   2.146  16.717  0.6298  1.7615 -2.3247
10713TIP3   OH253629   6.752   1.912   3.280  0.3448 -1.0561  0.2890
10713TIP3    H153630   6.839   1.916   3.240 -0.2452  0.4065 -0.9694
10713TIP3    H253631   6.717   1.828   3.252  1.0700 -1.3348  0.1862
10714TIP3   OH253632   6.587   4.088   2.623  0.3909 -0.0256 -0.1325
10714TIP3    H153633   6.656   4.145   2.588  0.0353  1.4646  1.4596
10714TIP3    H253634   6.584   4.108   2.716 -0.0201 -2.4472  0.4466
10715TIP3   OH253635   1.954   0.233   2.606  0.0785 -0.9132 -0.3782
10715TIP3    H153636   1.944   0.199   2.695  1.3409  0.4948  0.3290
10715TIP3    H253637   1.967   0.154   2.553  0.2553 -1.7220  0.8074
10716TIP3   OH253638   1.776   5.325   4.083  0.2851 -0.3936 -0.0750
10716TIP3    H153639   1.830   5.271   4.141  0.7632  0.1095 -0.0486
10716TIP3    H253640   1.771   5.274   4.002  0.8779 -0.4082 -0.1098
10717TIP3   OH253641   5.451   2.864  16.972 -0.0794  0.1502 -0.5991
10717TIP3    H153642   5.359   2.865  16.999  0.1466  0.9782  0.1898
10717TIP3    H253643   5.491   2.795  17.024 -0.2335 -0.1508 -0.8777
10718TIP3   OH253644   4.927   5.261   6.068 -0.0985  0.0171  0.0799
10718TIP3    H153645   4.902   5.338   6.018 -0.1678  0.5302  0.8871
10718TIP3    H253646   5.022   5.261   6.068 -0.0961 -0.2357 -0.4227
10719TIP3   OH253647   5.616   5.764  13.397 -0.0307 -0.5804 -0.8425
10719TIP3    H153648   5.668   5.809  13.464 -3.3338  1.5115  0.6066
10719TIP3    H253649   5.594   5.680  13.436  0.1590 -0.4298 -0.4014
10720TIP3   OH253650   3.863   3.593   2.848  0.5967  0.5965  0.1248
10720TIP3    H153651   3.913   3.513   2.867  1.0001  0.9583  0.6002
10720TIP3    H253652   3.866   3.601   2.752 -0.2665 -0.4767 -0.0196
10721TIP3   OH253653   6.288   2.065   0.386 -0.0761 -0.4190  0.1600
10721TIP3    H153654   6.316   2.010   0.313 -0.5394 -1.2011  0.5572
10721TIP3    H253655   6.195   2.080   0.370  0.3538  1.6634 -0.8322
10722TIP3   OH253656   2.715   4.103  15.581  0.6584 -0.2073  0.2084
10722TIP3    H153657   2.716   4.024  15.527  1.3630 -0.5689  0.7235
10722TIP3    H253658   2.623   4.121  15.597  0.4838 -0.7630 -0.1489
10723TIP3   OH253659   4.798   1.548  12.226  0.2846  0.3128  0.0157
10723TIP3    H153660   4.702   1.550  12.225  0.2503 -0.0080  1.5339
10723TIP3    H253661   4.823   1.629  12.271  0.7699  0.7087 -0.9236
10724TIP3   OH253662   2.338   4.425  10.446 -0.0543 -0.0091 -0.0749
10724TIP3    H153663   2.391   4.348  10.426  1.0379  0.7561 -0.2483
10724TIP3    H253664   2.339   4.477  10.366  0.3206  0.7936  0.4320
10725TIP3   OH253665   1.056   5.675   5.663  0.4694 -0.2612  0.1011
10725TIP3    H153666   1.093   5.607   5.720 -0.8049 -2.4877 -1.5503
10725TIP3    H253667   1.010   5.733   5.723 -0.4011 -2.2106  1.4534
10726TIP3   OH253668   2.273   4.842  13.793  0.7038 -0.4898 -0.4638
10726TIP3    H153669   2.292   4.926  13.752  0.6477 -0.0081  0.4641
10726TIP3    H253670   2.267   4.780  13.720 -1.4099  0.6763 -1.3768
10727TIP3   OH253671   4.684   0.255  12.180  0.0669  0.1019 -0.0850
10727TIP3    H153672   4.689   0.320  12.110 -0.6605 -0.2227 -0.4474
10727TIP3    H253673   4.638   0.299  12.251 -2.7799 -0.7557 -1.2489
10728TIP3   OH253674   2.303   6.155  16.132  0.4635  0.4014  0.0090
10728TIP3    H153675   2.323   6.099  16.207  1.8524  1.8366  0.7480
10728TIP3    H253676   2.381   6.150  16.077 -0.3830 -0.3074 -1.1581
10729TIP3   OH253677   5.012   1.885  13.467  0.2543  0.3116 -0.1950
10729TIP3    H153678   5.039   1.794  13.478  0.4826  0.3899 -0.0867
10729TIP3    H253679   4.917   1.882  13.456  0.1680  0.1209  0.5668
10730TIP3   OH253680   6.660   0.181  15.822 -0.0885  0.4770 -0.0858
10730TIP3    H153681   6.594   0.249  15.803 -0.0959  0.0764 -1.6050
10730TIP3    H253682   6.680   0.143  15.737 -1.2652 -2.5545  0.8517
10731TIP3   OH253683   3.873   1.154  17.041  0.0473  0.6592  0.1206
10731TIP3    H153684   3.847   1.192  16.957 -0.3382 -1.3488 -0.7483
10731TIP3    H253685   3.823   1.072  17.046  3.0875 -1.3459  0.2985
10732TIP3   OH253686   1.103   3.369   5.903 -0.8105 -0.2708  0.0715
10732TIP3    H153687   1.110   3.431   5.830 -0.1272  0.9350  1.1357
10732TIP3    H253688   1.039   3.409   5.962  1.0346  0.4237  1.6935
10733TIP3   OH253689   5.489   4.352  13.825 -0.0654  0.2461 -0.3041
10733TIP3    H153690   5.448   4.283  13.877  0.5643  1.1788  1.4919
10733TIP3    H253691   5.415   4.404  13.791 -0.5086  1.8044  2.7373
10734TIP3   OH253692   1.022   5.663   2.007 -0.0992  0.1973 -0.2104
10734TIP3    H153693   0.961   5.623   2.069 -0.8667 -0.6541 -1.4710
10734TIP3    H253694   0.981   5.746   1.983 -0.1721  0.1806 -0.1424
10735TIP3   OH253695   3.179   4.684  14.153  0.0290  0.1770  0.3576
10735TIP3    H153696   3.163   4.633  14.073 -1.2351  1.1217 -0.0205
10735TIP3    H253697   3.186   4.618  14.222 -0.3457 -0.5778 -0.3070
10736TIP3   OH253698   2.452   6.598  16.660 -0.0658 -0.3677  0.2102
10736TIP3    H153699   2.511   6.535  16.618  0.9285 -0.4326  1.6210
10736TIP3    H253700   2.440   6.564  16.749 -1.1566  0.3751  0.3705
10737TIP3   OH253701   3.063   0.817   0.518  0.3481  0.3686  0.4372
10737TIP3    H153702   3.080   0.748   0.453 -1.4467 -0.1278  0.4488
10737TIP3    H253703   3.149   0.835   0.556  1.7979  1.7295 -3.0531
10738TIP3   OH253704   4.760   6.263  11.043  0.1140  0.6352  0.5637
10738TIP3    H153705   4.740   6.265  10.949 -0.0597  1.5670  0.6129
10738TIP3    H253706   4.845   6.306  11.050 -0.5768  1.9660  0.9934
10739TIP3   OH253707   6.007   6.724  12.851  0.1713 -0.3576  0.1165
10739TIP3    H153708   6.075   6.788  12.831 -0.2016  0.3105  0.9548
10739TIP3    H253709   5.966   6.706  12.766  0.0256  0.8075 -0.0786
10740TIP3   OH253710   5.234   3.811  13.345 -0.2518 -0.1373  0.5412
10740TIP3    H153711   5.234   3.898  13.385  1.0495  0.8174 -1.3862
10740TIP3    H253712   5.325   3.795  13.322 -0.9468 -0.1146 -2.8698
10741TIP3   OH253713   0.156   3.391   6.108 -0.1516  0.0145 -0.0775
10741TIP3    H153714   0.126   3.360   6.194  0.8992  0.8547  0.6016
10741TIP3    H253715   0.220   3.459   6.127 -0.8177  1.1231 -1.5352
10742TIP3   OH253716   5.419   0.330   2.012 -0.2050 -0.8033  0.1083
10742TIP3    H153717   5.451   0.388   2.081 -1.2058 -0.9150  0.6925
10742TIP3    H253718   5.419   0.243   2.053 -1.5593 -0.7535  0.2540
10743TIP3   OH253719   2.358   5.510  15.491 -0.5890 -0.2140  0.4022
10743TIP3    H153720   2.377   5.574  15.422  0.1761 -0.6929  0.1518
10743TIP3    H253721   2.356   5.426  15.446  1.3742 -0.7126  1.1388
10744TIP3   OH253722   0.465   1.239   0.910  0.4677 -0.2014  0.5218
10744TIP3    H153723   0.555   1.258   0.934  1.0278  0.7148 -1.9294
10744TIP3    H253724   0.445   1.302   0.840 -1.7594 -0.9839  0.3610
10745TIP3   OH253725   3.283   6.084   3.964  0.2243  0.5252  0.6801
10745TIP3    H153726   3.192   6.085   3.934  0.3191  0.5526  0.3873
10745TIP3    H253727   3.292   6.003   4.014  0.6485 -0.6461 -1.2018
10746TIP3   OH253728   6.020   0.778   3.878 -0.6019  0.6352 -0.7740
10746TIP3    H153729   5.936   0.755   3.837 -1.0254  0.7876 -0.0088
10746TIP3    H253730   6.025   0.721   3.955  0.8901 -0.7137 -1.8152
10747TIP3   OH253731   1.667   4.340   2.952  0.0108  0.2942 -0.2423
10747TIP3    H153732   1.644   4.247   2.951 -1.1105  0.5175  1.2661
10747TIP3    H253733   1.762   4.341   2.944  0.0725 -1.0002  0.0472
10748TIP3   OH253734   1.647   0.829   2.933 -0.2167  0.2425  0.2535
10748TIP3    H153735   1.589   0.756   2.913  2.8023 -2.1252 -0.8201
10748TIP3    H253736   1.667   0.868   2.848  2.7580 -1.6636 -0.0934
10749TIP3   OH253737   1.981   0.537  15.521  0.3450  0.4712  0.5157
10749TIP3    H153738   2.035   0.507  15.447  1.6103 -0.9330  1.9389
10749TIP3    H253739   1.979   0.632  15.512  0.5837  0.3438 -1.2429
10750TIP3   OH253740   4.484   3.157  16.620  0.1733  0.2747  0.2658
10750TIP3    H153741   4.528   3.129  16.700  0.1726 -0.8105 -0.0996
10750TIP3    H253742   4.462   3.076  16.575  1.7780  0.8537 -1.7249
10751TIP3   OH253743   3.807   3.001  10.295  0.0757  0.3173  0.1893
10751TIP3    H153744   3.786   3.055  10.372 -0.4649 -0.4437  0.5803
10751TIP3    H253745   3.775   2.914  10.317 -1.1094  0.3244 -1.3571
10752TIP3   OH253746   2.674   4.220   3.722  0.2948  0.7451 -0.4042
10752TIP3    H153747   2.760   4.249   3.753  0.7087  1.5060 -2.1649
10752TIP3    H253748   2.638   4.296   3.675 -1.9299  0.9104  1.3484
10753TIP3   OH253749   2.484   3.420  15.828  0.5763  0.1511 -0.4714
10753TIP3    H153750   2.536   3.380  15.898 -1.0432 -0.2725  0.5465
10753TIP3    H253751   2.444   3.497  15.869 -0.3281 -0.0550 -0.9417
10754TIP3   OH253752   5.952   5.657  14.607  0.4981 -0.0106 -0.7845
10754TIP3    H153753   6.025   5.640  14.666  1.4311  2.4459 -1.1002
10754TIP3    H253754   5.956   5.588  14.542  0.3378 -1.9458  1.1449
10755TIP3   OH253755   3.589   2.726   1.651 -0.2828 -0.1379 -0.3561
10755TIP3    H153756   3.598   2.632   1.634  0.3263 -0.4156  1.2776
10755TIP3    H253757   3.564   2.730   1.743 -0.4892  1.3091 -0.4637
10756TIP3   OH253758   1.239   1.138   3.538  0.5178  0.1180  0.1813
10756TIP3    H153759   1.252   1.140   3.633  0.5879 -2.3292  0.3056
10756TIP3    H253760   1.327   1.130   3.502  0.4844  0.9400 -0.0817
10757TIP3   OH253761   4.182   0.934   4.556  0.3035 -0.2207  0.3622
10757TIP3    H153762   4.192   0.859   4.614 -0.1223 -0.0562  0.6559
10757TIP3    H253763   4.113   0.909   4.495  0.2209 -0.1020  0.4068
10758TIP3   OH253764   0.513   1.600   1.946 -0.6876  0.1608 -0.0932
10758TIP3    H153765   0.516   1.577   2.038  1.3576  1.3624  0.1979
10758TIP3    H253766   0.428   1.644   1.935 -0.2116  1.6161  1.6519
10759TIP3   OH253767   2.830   4.934  13.297  0.3185  0.5594 -0.0906
10759TIP3    H153768   2.809   4.841  13.289  0.5279  0.5585 -0.7802
10759TIP3    H253769   2.767   4.978  13.239 -0.8135  1.0140  1.4223
10760TIP3   OH253770   3.339   1.187   4.608 -1.3841  0.5738  0.3998
10760TIP3    H153771   3.383   1.234   4.678  1.0724  1.5663 -1.6642
10760TIP3    H253772   3.362   1.236   4.528  1.3528 -3.9286 -1.9507
10761TIP3   OH253773   4.661   1.336  14.379 -0.1863 -0.1075 -0.4312
10761TIP3    H153774   4.591   1.324  14.443  0.2416 -2.0943 -0.2730
10761TIP3    H253775   4.650   1.426  14.348 -1.8831  0.1069  0.6580
10762TIP3   OH253776   2.781   3.948   5.487 -0.4018  0.4935  0.1001
10762TIP3    H153777   2.686   3.949   5.495 -0.4569 -0.9926  0.0540
10762TIP3    H253778   2.800   4.007   5.415 -1.5515 -1.1848 -1.6898
10763TIP3   OH253779   2.568   4.319  11.138  0.2786  0.4717  0.6556
10763TIP3    H153780   2.478   4.293  11.154  0.5660 -0.4956  0.7488
10763TIP3    H253781   2.595   4.363  11.219 -0.3301  1.4530  0.3499
10764TIP3   OH253782   0.056   1.188   2.175  0.0558  0.0345 -0.2481
10764TIP3    H153783   0.029   1.254   2.112  0.4469 -2.9571 -3.8503
10764TIP3    H253784  -0.016   1.184   2.238 -0.3717  3.1303 -0.3711
10765TIP3   OH253785   5.908   4.200   5.176 -0.4718 -0.3704  0.3267
10765TIP3    H153786   5.934   4.108   5.185  0.5437 -0.1032  0.3429
10765TIP3    H253787   5.990   4.248   5.188 -0.4748  0.4264 -2.2864
10766TIP3   OH253788   2.222   4.099   2.749  0.5473  0.5487  0.0794
10766TIP3    H153789   2.210   4.165   2.680  0.5739 -0.7990 -1.2629
10766TIP3    H253790   2.168   4.130   2.822 -1.8636  0.5405 -1.6074
10767TIP3   OH253791   4.877   2.565   4.478 -0.4715  0.0131 -0.3812
10767TIP3    H153792   4.860   2.635   4.541  1.9332  1.5215 -1.2635
10767TIP3    H253793   4.937   2.505   4.523 -1.7658 -1.0248  0.0314
10768TIP3   OH253794   4.079   4.203   4.995 -0.9512 -0.9757 -0.3922
10768TIP3    H153795   4.067   4.109   4.999  0.1528 -1.2156 -1.8147
10768TIP3    H253796   4.085   4.223   4.901 -0.3693  0.3915 -0.0939
10769TIP3   OH253797   2.683   3.618  15.212  0.6604  0.4579 -0.7546
10769TIP3    H153798   2.637   3.583  15.289  3.0156  2.7209  1.9470
10769TIP3    H253799   2.733   3.544  15.178 -0.3888 -0.6062 -0.0610
10770TIP3   OH253800   5.281   0.785  16.713  0.5140  0.3937  0.0391
10770TIP3    H153801   5.249   0.833  16.637  1.5355  1.1653  0.0685
10770TIP3    H253802   5.256   0.694  16.697  0.6609  0.5557 -1.1827
10771TIP3   OH253803   4.165   0.533  15.062  0.1251  0.0301  0.0184
10771TIP3    H153804   4.258   0.529  15.038 -0.0630 -0.9025 -0.6281
10771TIP3    H253805   4.121   0.564  14.984 -0.2001 -0.4236  0.0131
10772TIP3   OH253806   0.592   3.075   0.957 -0.1123 -0.2080  0.3427
10772TIP3    H153807   0.497   3.060   0.955 -0.0567 -0.5419 -0.1699
10772TIP3    H253808   0.620   3.058   0.867  0.3455  0.5014  0.3475
10773TIP3   OH253809   0.366   3.869   6.401 -0.0110  0.2720  0.1832
10773TIP3    H153810   0.401   3.952   6.369  0.7281 -0.9880 -2.5547
10773TIP3    H253811   0.441   3.809   6.400 -1.0198 -1.0344 -0.2691
10774TIP3   OH253812   3.826   5.822  15.649 -0.0373 -0.5415 -0.1182
10774TIP3    H153813   3.740   5.782  15.660 -0.0775 -0.0649  1.6528
10774TIP3    H253814   3.808   5.916  15.650  0.5855 -0.3996  1.6450
10775TIP3   OH253815   5.796   6.566  16.536 -0.2795 -0.5323  0.6476
10775TIP3    H153816   5.755   6.522  16.611  1.0884 -0.3083  1.5549
10775TIP3    H253817   5.868   6.509  16.510 -0.6494 -0.5336 -0.4235
10776TIP3   OH253818   6.711   0.164   5.049  0.0606 -0.4824  0.2770
10776TIP3    H153819   6.784   0.218   5.079  1.3487 -2.4399  0.8629
10776TIP3    H253820   6.703   0.095   5.116 -0.7356 -1.6943 -1.0069
10777TIP3   OH253821   3.327   6.349  16.489  0.4999 -0.2476  0.1511
10777TIP3    H153822   3.261   6.311  16.547  0.4490 -1.0601 -0.4223
10777TIP3    H253823   3.311   6.444  16.493 -0.6886 -0.4297  0.0357
10778TIP3   OH253824   4.670   3.681   6.280  0.5227 -0.6656 -0.2416
10778TIP3    H153825   4.593   3.627   6.297  0.2956 -0.1408  0.4704
10778TIP3    H253826   4.657   3.716   6.192 -0.9715  0.8741  0.5310
10779TIP3   OH253827   1.949   5.895   2.353 -0.0150  0.3880 -0.0307
10779TIP3    H153828   2.019   5.932   2.297  0.3158 -1.6322 -1.0388
10779TIP3    H253829   1.883   5.964   2.357  1.2942  1.7175 -0.4504
10780TIP3   OH253830   0.942   2.638  16.977 -0.0747 -0.1132 -0.3010
10780TIP3    H153831   0.957   2.552  16.938 -0.3296 -0.1979 -0.2194
10780TIP3    H253832   0.875   2.622  17.044 -1.4586  0.4480 -1.4896
10781TIP3   OH253833   1.808   1.094  14.314 -0.1841  0.0190 -0.8595
10781TIP3    H153834   1.859   1.069  14.237  1.3660 -1.5248  0.5876
10781TIP3    H253835   1.840   1.181  14.337  1.8655 -0.8634 -0.0527
10782TIP3   OH253836   6.066   6.784   1.973  0.1368 -0.1699  0.6464
10782TIP3    H153837   6.144   6.794   1.918  1.5091 -0.5409  2.4123
10782TIP3    H253838   5.993   6.780   1.911  1.4545  0.6858 -1.0580
10783TIP3   OH253839   4.449   3.710  15.630  0.2597 -0.4987 -0.0135
10783TIP3    H153840   4.437   3.743  15.719 -0.5850 -1.9047  0.4263
10783TIP3    H253841   4.361   3.714  15.591  0.4664 -0.6697 -0.5034
10784TIP3   OH253842   3.516   6.526   2.897 -0.5453 -0.6005  0.2673
10784TIP3    H153843   3.463   6.600   2.928 -1.5528 -2.0066  2.0910
10784TIP3    H253844   3.566   6.499   2.974  1.2002 -0.7044 -0.8594
10785TIP3   OH253845   4.142   5.423  11.589  0.5409 -0.5070 -0.4097
10785TIP3    H153846   4.216   5.445  11.647 -0.5570  0.5369  0.6488
10785TIP3    H253847   4.154   5.480  11.513  1.1360 -0.7719 -0.5253
10786TIP3   OH253848   2.798   0.494  12.438 -0.8410  0.4193  0.4309
10786TIP3    H153849   2.768   0.453  12.357  0.9633 -0.4924  0.1640
10786TIP3    H253850   2.802   0.587  12.417  0.4056  0.1205 -0.8647
10787TIP3   OH253851   3.041   5.458   1.835  0.5908  0.0794 -0.6287
10787TIP3    H153852   3.079   5.371   1.849  0.0232  0.1789  2.1526
10787TIP3    H253853   2.969   5.443   1.773 -0.9946 -1.9446  1.5280
10788TIP3   OH253854   1.947   6.332  13.759  0.5960  0.2684 -0.3461
10788TIP3    H153855   1.994   6.363  13.837 -0.2587  0.6967  0.0093
10788TIP3    H253856   1.855   6.342  13.781  0.1999 -3.0707  0.0347
10789TIP3   OH253857   6.138   1.942  12.834  0.4432  0.0238  0.0098
10789TIP3    H153858   6.212   1.891  12.802  0.7837  0.0060  0.8083
10789TIP3    H253859   6.122   2.008  12.766  1.7445  0.5870  0.2338
10790TIP3   OH253860   2.073   3.629  16.867 -0.1277  0.3370  0.1543
10790TIP3    H153861   1.998   3.668  16.911  0.7367  1.4286  0.7037
10790TIP3    H253862   2.037   3.596  16.784 -1.2070  0.8127  0.4144
10791TIP3   OH253863   4.482   6.270  15.446  0.6887 -0.3934 -0.0429
10791TIP3    H153864   4.389   6.258  15.427  0.6794 -1.7941  0.7128
10791TIP3    H253865   4.527   6.232  15.370  0.6338 -0.6121  0.0316
10792TIP3   OH253866   6.454   6.227  14.717 -0.1129 -0.1691 -0.0505
10792TIP3    H153867   6.389   6.288  14.682  0.8940  2.2493  1.9555
10792TIP3    H253868   6.522   6.222  14.649  1.2393  3.4840  0.7818
10793TIP3   OH253869   1.752   5.074  11.772 -0.0760 -0.3036 -0.0138
10793TIP3    H153870   1.699   5.027  11.836 -0.9949  0.6002 -0.0846
10793TIP3    H253871   1.689   5.103  11.705  0.7456 -0.5393 -0.9102
10794TIP3   OH253872   0.767   5.464  12.964 -0.1385  0.1836 -0.2528
10794TIP3    H153873   0.823   5.542  12.958  0.2107  0.0228  0.7553
10794TIP3    H253874   0.746   5.443  12.873  0.9481  0.6072 -0.6253
10795TIP3   OH253875   0.464   4.956   5.130 -0.4515  0.1480  0.1787
10795TIP3    H153876   0.401   4.982   5.199 -0.4922  3.0396 -0.7874
10795TIP3    H253877   0.549   4.985   5.164 -0.1947 -0.2346 -0.1426
10796TIP3   OH253878   3.784   2.178  12.864 -0.1562  0.1198 -0.0234
10796TIP3    H153879   3.737   2.169  12.782 -2.2744 -3.2261  1.3612
10796TIP3    H253880   3.750   2.259  12.903 -1.1643  0.2928 -1.2087
10797TIP3   OH253881   1.199   5.220  17.121  0.1904 -0.1262  0.8984
10797TIP3    H153882   1.228   5.310  17.138 -0.4767  0.5972 -1.4277
10797TIP3    H253883   1.124   5.207  17.179 -1.0097  1.6054 -0.1647
10798TIP3   OH253884   5.733   6.127  11.363  0.1793  0.2703  0.0158
10798TIP3    H153885   5.805   6.168  11.411  2.0361 -1.0359 -1.5004
10798TIP3    H253886   5.729   6.174  11.280  1.1558 -1.3705 -1.0185
10799TIP3   OH253887   2.780   6.262  11.970  0.1594  0.1244  0.4031
10799TIP3    H153888   2.783   6.357  11.968  0.0954  0.1431  0.9255
10799TIP3    H253889   2.817   6.234  11.886 -0.2486  0.6161  0.0569
10800TIP3   OH253890   1.186   5.643  11.714  0.2673 -0.3683 -0.7306
10800TIP3    H153891   1.203   5.590  11.636  2.5874  1.1573 -1.3596
10800TIP3    H253892   1.272   5.652  11.756  0.3918  3.9294 -1.4375
10801TIP3   OH253893   2.163   4.797  13.223  0.5319  0.1238 -0.4732
10801TIP3    H153894   2.145   4.853  13.148  1.4213  0.8991 -0.1396
10801TIP3    H253895   2.198   4.857  13.289 -1.2255 -0.3453  0.9688
10802TIP3   OH253896   3.117   5.882  11.541  0.5199  0.7617  0.0223
10802TIP3    H153897   3.087   5.947  11.478 -1.0600  0.1388  0.1028
10802TIP3    H253898   3.064   5.898  11.619 -0.4249 -1.0700 -0.2080
10803TIP3   OH253899   3.862   2.531  12.121  0.4521 -0.3443  0.8097
10803TIP3    H153900   3.787   2.574  12.162 -0.3676 -0.4877 -0.4673
10803TIP3    H253901   3.828   2.497  12.038  1.7298 -1.1525  0.5796
10804TIP3   OH253902   3.672   6.333   2.092 -0.3997 -0.5057 -0.0539
10804TIP3    H153903   3.638   6.248   2.067  0.9794 -2.0924  2.8971
10804TIP3    H253904   3.755   6.341   2.045 -1.6107  0.3948 -2.1751
10805TIP3   OH253905   6.333   0.250  14.906  0.0059 -0.3764 -0.0810
10805TIP3    H153906   6.285   0.205  14.975  1.8985 -0.6423  1.1276
10805TIP3    H253907   6.415   0.202  14.898  1.1924  1.5730 -0.2416
10806TIP3   OH253908   5.353   6.661  14.721  0.5994  0.3017  0.3972
10806TIP3    H153909   5.384   6.734  14.667  1.0791 -0.6826 -0.6712
10806TIP3    H253910   5.430   6.634  14.772  0.6944 -0.1440  0.0164
10807TIP3   OH253911   5.522   2.370  13.954 -0.0740 -0.5248  0.0725
10807TIP3    H153912   5.494   2.461  13.957  0.4125 -0.3419 -0.6285
10807TIP3    H253913   5.485   2.331  14.033  0.2882  0.4445  0.7407
10808TIP3   OH253914   3.720   5.474   1.291  0.0996  0.3278  0.2350
10808TIP3    H153915   3.813   5.471   1.313  0.2700 -0.7362 -0.5153
10808TIP3    H253916   3.699   5.384   1.266 -0.9755  0.6867 -0.2200
10809TIP3   OH253917   3.618   6.499   6.360  0.2782 -0.4851 -0.1443
10809TIP3    H153918   3.680   6.550   6.308  0.0258  0.2054  0.2114
10809TIP3    H253919   3.670   6.463   6.431  0.3992 -0.4360 -0.2084
10810TIP3   OH253920   0.191   6.145  16.591  0.4707 -0.0238 -0.0956
10810TIP3    H153921   0.286   6.149  16.581  0.6342  0.7028  1.3508
10810TIP3    H253922   0.164   6.237  16.593 -0.4192 -0.2338 -1.6026
10811TIP3   OH253923   1.140   5.987  13.124 -0.1825 -0.1289 -0.1768
10811TIP3    H153924   1.198   5.913  13.139  1.1287  1.2426  2.0339
10811TIP3    H253925   1.097   6.002  13.208  0.3881  2.2294 -0.2201
10812TIP3   OH253926   0.382   4.647   4.418  0.0786 -0.2351 -0.3431
10812TIP3    H153927   0.328   4.639   4.496  0.4908  0.4749  0.0309
10812TIP3    H253928   0.443   4.574   4.423 -0.0188 -0.3005 -0.0951
10813TIP3   OH253929   3.879   6.366  15.502 -0.2236 -0.1340  0.2061
10813TIP3    H153930   3.944   6.421  15.545 -0.0651 -0.1268 -0.0395
10813TIP3    H253931   3.808   6.359  15.565 -0.9213  1.6059 -0.3097
10814TIP3   OH253932   5.256   4.945  15.673  0.6648 -0.1656 -0.2117
10814TIP3    H153933   5.258   5.019  15.734 -0.2887  0.5552 -1.0105
10814TIP3    H253934   5.163   4.923  15.665  0.7915 -0.4072 -1.1931
10815TIP3   OH253935   0.425   4.392   4.211  0.5262 -0.0227  0.2054
10815TIP3    H153936   0.453   4.341   4.287  0.5481  0.2077  0.3520
10815TIP3    H253937   0.500   4.390   4.151 -0.0269 -1.5178 -0.5030
10816TIP3   OH253938   5.111   4.159   1.351 -0.0966 -0.1953  0.4154
10816TIP3    H153939   5.068   4.092   1.298 -0.3625  0.5810 -0.3797
10816TIP3    H253940   5.039   4.212   1.385 -0.1119 -1.8924  3.3418
10817TIP3   OH253941   6.113   4.084   3.506 -0.9349  0.2458  0.2082
10817TIP3    H153942   6.019   4.084   3.493 -1.0282  1.5439  0.6823
10817TIP3    H253943   6.130   4.012   3.567 -1.2606 -1.7194 -1.9034
10818TIP3   OH253944   0.994   2.905  15.054  0.2773 -0.1165 -0.7527
10818TIP3    H153945   0.905   2.898  15.088 -0.7564  1.1764 -2.9845
10818TIP3    H253946   1.012   2.819  15.017 -0.2111 -0.2447 -0.7000
10819TIP3   OH253947   3.579   4.521  12.541 -0.2424 -0.3717 -0.3016
10819TIP3    H153948   3.638   4.545  12.469 -1.0699  0.7563 -0.6270
10819TIP3    H253949   3.531   4.601  12.561 -0.9334 -0.9993  0.6635
10820TIP3   OH253950   3.362   2.533  11.550  0.7621  0.1157  0.9098
10820TIP3    H153951   3.304   2.607  11.572  2.2708  1.8883 -0.7353
10820TIP3    H253952   3.309   2.456  11.570 -2.6205  1.5786 -1.3433
10821TIP3   OH253953   2.216   3.350   4.624 -0.0027 -0.5297 -0.1384
10821TIP3    H153954   2.206   3.316   4.713 -2.2541  1.0792  0.3084
10821TIP3    H253955   2.266   3.282   4.579 -1.2705 -2.7780  1.5964
10822TIP3   OH253956   1.007   3.959  12.630 -0.5228  0.0649  0.1355
10822TIP3    H153957   0.971   4.018  12.696 -0.6305  3.0176 -2.3005
10822TIP3    H253958   1.099   3.987  12.621 -0.1625 -1.1543 -0.0718
10823TIP3   OH253959   2.312   1.361   2.464  0.3862 -0.1829 -0.4874
10823TIP3    H153960   2.387   1.353   2.406  0.7608 -4.1797  0.2584
10823TIP3    H253961   2.337   1.428   2.528  2.6187 -0.2517 -1.2379
10824TIP3   OH253962   4.762   3.680  11.659  0.1021 -0.0416  0.2886
10824TIP3    H153963   4.712   3.751  11.700  0.9018 -0.3984  2.0062
10824TIP3    H253964   4.741   3.603  11.712  1.3491 -0.4820  0.1777
10825TIP3   OH253965   0.640   4.273   3.194 -0.0571 -0.2977  0.3269
10825TIP3    H153966   0.690   4.302   3.270 -1.9937 -2.2918  2.5394
10825TIP3    H253967   0.700   4.217   3.145  1.1223  0.7369  0.5397
10826TIP3   OH253968   3.031   3.311  15.726  0.0498 -0.2572 -0.3498
10826TIP3    H153969   3.051   3.372  15.656 -1.9756  3.0192  1.6294
10826TIP3    H253970   2.941   3.282  15.708 -0.3849  0.3917  0.6824
10827TIP3   OH253971   5.998   5.790   0.586 -0.1998  0.4621  0.3105
10827TIP3    H153972   5.991   5.766   0.679 -0.3532 -0.1200  0.1512
10827TIP3    H253973   6.087   5.825   0.577  0.0408 -0.0773  0.5442
10828TIP3   OH253974   2.337   5.658  16.400 -0.0037  0.8273  0.1620
10828TIP3    H153975   2.290   5.597  16.457  2.1376 -0.6205  0.5213
10828TIP3    H253976   2.410   5.689  16.453  1.8388 -0.2522 -1.5950
10829TIP3   OH253977   6.099   6.481  14.516  0.1799  0.2030  0.3414
10829TIP3    H153978   6.014   6.487  14.472  0.5005 -0.0687 -0.3231
10829TIP3    H253979   6.159   6.529  14.460  0.6256 -0.2715  0.4055
10830TIP3   OH253980   3.332   4.011   6.919  0.3336  0.3587 -0.5810
10830TIP3    H153981   3.333   3.920   6.887 -2.5591 -0.4176  1.0981
10830TIP3    H253982   3.240   4.028   6.939  1.1143  2.8156  1.4977
10831TIP3   OH253983   4.320   5.954   2.117  0.2135 -0.9642  0.1077
10831TIP3    H153984   4.231   5.966   2.151 -0.5628  1.5840 -2.4670
10831TIP3    H253985   4.376   5.981   2.189 -1.0743 -1.5750  1.4144
10832TIP3   OH253986   4.093   2.486   1.781 -0.0910  0.1428  0.3819
10832TIP3    H153987   4.186   2.500   1.763 -0.0991  1.8455  1.5058
10832TIP3    H253988   4.088   2.394   1.807  1.4008  0.2140  1.0159
10833TIP3   OH253989   5.829   6.702   5.757 -0.2304  0.2207  0.2870
10833TIP3    H153990   5.739   6.725   5.780  0.4281  1.7730  1.5272
10833TIP3    H253991   5.877   6.710   5.839  1.1266 -0.2215 -0.4297
10834TIP3   OH253992   3.531   1.151  11.636  0.5144 -0.1761  0.0012
10834TIP3    H153993   3.594   1.081  11.654 -0.5714 -1.6663 -1.6403
10834TIP3    H253994   3.580   1.216  11.587  0.7046 -1.6021 -1.8112
10835TIP3   OH253995   4.463   6.673  13.655  0.5044  0.3306  0.2941
10835TIP3    H153996   4.520   6.656  13.580  0.7038  0.4711  0.4104
10835TIP3    H253997   4.524   6.691  13.727  0.3914 -2.1826  1.1078
10836TIP3   OH253998   3.450   1.708  12.478 -0.1696  0.1572 -0.8145
10836TIP3    H153999   3.501   1.732  12.401  1.6679 -0.8187  0.0085
10836TIP3    H254000   3.437   1.614  12.470 -3.0556  0.5321 -1.6130
10837TIP3   OH254001   3.028   4.059   1.351  1.2898 -0.2965  0.2164
10837TIP3    H154002   3.113   4.073   1.308  1.3393 -2.1542 -0.3843
10837TIP3    H254003   3.044   3.987   1.412  0.3949  0.0885  0.9182
10838TIP3   OH254004   1.889   2.092  17.308 -0.7857 -0.0863 -0.6877
10838TIP3    H154005   1.956   2.038  17.268  1.3818  3.6299 -2.6318
10838TIP3    H254006   1.822   2.102  17.241 -1.8819 -1.3507  0.1662
10839TIP3   OH254007   1.440   0.343  15.978 -0.3683  0.5595  0.4102
10839TIP3    H154008   1.485   0.260  15.966  3.2772  2.2551  0.7166
10839TIP3    H254009   1.463   0.370  16.068 -0.6343  2.2845  0.0081
10840TIP3   OH254010   3.180   4.272   0.913 -0.7522 -0.1727 -0.0822
10840TIP3    H154011   3.253   4.247   0.856 -0.2405 -2.5813  1.4720
10840TIP3    H254012   3.102   4.247   0.864 -0.5637  1.6884 -1.4247
10841TIP3   OH254013   1.568   5.325  12.710 -0.4859 -0.0859  0.0563
10841TIP3    H154014   1.488   5.312  12.659 -0.5373 -0.6302  0.2710
10841TIP3    H254015   1.538   5.349  12.797 -0.4301 -0.6462  0.2363
10842TIP3   OH254016   0.077   3.083  14.938 -0.9350 -0.0381  0.0238
10842TIP3    H154017   0.104   3.087  15.030 -1.2187 -0.3699  0.1247
10842TIP3    H254018  -0.019   3.081  14.941 -0.9501  0.1102 -0.2873
10843TIP3   OH254019   3.450   2.042   5.225  0.1044 -0.1278 -0.4385
10843TIP3    H154020   3.436   1.966   5.281  2.4832 -0.4050 -0.1151
10843TIP3    H254021   3.417   2.015   5.139 -0.9267 -0.7642  0.1377
10844TIP3   OH254022   0.297   0.449  15.993  0.2712 -0.5649 -0.6298
10844TIP3    H154023   0.364   0.465  16.059  0.2636 -0.7333 -0.5783
10844TIP3    H254024   0.302   0.523  15.934 -0.4775  0.1594  0.1867
10845TIP3   OH254025   1.998   2.944   5.090  0.1444  0.0388  0.4656
10845TIP3    H154026   2.043   2.968   5.009 -0.5775  0.2828  0.1315
10845TIP3    H254027   1.907   2.970   5.076 -0.5689 -2.2242  0.3358
10846TIP3   OH254028   3.659   4.805   0.474 -0.7642  0.0582 -0.2441
10846TIP3    H154029   3.614   4.721   0.471  0.3464 -0.6128  0.8492
10846TIP3    H254030   3.647   4.836   0.564  0.1334  0.3066 -0.1955
10847TIP3   OH254031   5.502   2.395  12.736  0.2464  0.4491  0.1964
10847TIP3    H154032   5.565   2.428  12.671  0.2224 -1.9941 -1.2020
10847TIP3    H254033   5.554   2.339  12.794  0.1381  2.0836  1.9764
10848TIP3   OH254034   5.287   2.773   1.466 -0.5343 -0.3523  0.2651
10848TIP3    H154035   5.293   2.729   1.550 -0.4874 -1.5493 -0.3399
10848TIP3    H254036   5.292   2.702   1.401 -3.3911  0.1869 -0.7249
10849TIP3   OH254037   0.993   5.134  14.422  0.6674 -0.2674 -0.3652
10849TIP3    H154038   1.082   5.118  14.453  0.4673 -1.4768 -0.3311
10849TIP3    H254039   0.953   5.188  14.490  1.0382 -0.6834  0.1984
10850TIP3   OH254040   5.509   6.375   2.316 -0.1316  0.1174 -0.4489
10850TIP3    H154041   5.567   6.333   2.252 -1.0920 -2.0631  0.0184
10850TIP3    H254042   5.568   6.406   2.385  0.8137  1.5872 -1.8442
10851TIP3   OH254043   6.607   1.291  11.882 -0.6368 -0.3686  0.0729
10851TIP3    H154044   6.642   1.367  11.836  0.2150 -0.2078  0.9450
10851TIP3    H254045   6.580   1.325  11.968 -0.0203 -1.0808  0.5580
10852TIP3   OH254046   4.539   6.436  16.525 -0.2638 -0.1364  0.1225
10852TIP3    H154047   4.460   6.411  16.574 -0.1354  0.0761  0.4447
10852TIP3    H254048   4.561   6.524  16.558  0.6325 -0.5677  0.7077
10853TIP3   OH254049   3.707   4.948  13.892 -0.0671 -0.2260 -0.4239
10853TIP3    H154050   3.741   4.983  13.809  0.1212 -0.6172 -0.5150
10853TIP3    H254051   3.646   5.014  13.922  1.5004  1.0017  0.2345
10854TIP3   OH254052   3.093   5.613  16.001  0.5567 -0.1264 -0.3098
10854TIP3    H154053   3.098   5.574  16.088  0.7336 -1.3024 -0.8357
10854TIP3    H254054   3.143   5.554  15.945 -0.7271 -0.1587 -1.4743
10855TIP3   OH254055   3.442   2.362   4.082  0.1434 -0.1253  0.4588
10855TIP3    H154056   3.447   2.266   4.080 -0.8731 -0.1764 -0.0885
10855TIP3    H254057   3.360   2.380   4.128  1.0806  0.5241  1.9707
10856TIP3   OH254058   3.019   1.885   4.673 -0.4303 -0.5037 -0.4396
10856TIP3    H154059   2.964   1.836   4.613 -1.0382 -0.4504  0.0648
10856TIP3    H254060   3.102   1.836   4.675 -1.0341 -1.5370  0.0725
10857TIP3   OH254061   3.676   5.110   0.591  0.1480  0.8155 -0.0538
10857TIP3    H154062   3.626   5.169   0.647  0.3686  1.2683 -0.3328
10857TIP3    H254063   3.698   5.162   0.514 -2.1263 -0.4164 -1.6720
10858TIP3   OH254064   5.872   1.779   5.982  0.1030  0.1506  0.4578
10858TIP3    H154065   5.888   1.747   6.071  1.9108 -1.3801 -0.3565
10858TIP3    H254066   5.890   1.873   5.987  1.5098 -0.1390  1.4393
10859TIP3   OH254067   0.492   2.070   1.420 -0.0063 -0.2258 -0.3999
10859TIP3    H154068   0.476   2.098   1.510  1.3478 -0.3139 -0.1027
10859TIP3    H254069   0.470   1.977   1.419  0.3367 -0.3128 -0.0463
10860TIP3   OH254070   0.218   4.324   4.575 -0.3901  0.1683  0.3001
10860TIP3    H154071   0.224   4.286   4.663  2.9534  0.5265  0.3287
10860TIP3    H254072   0.174   4.409   4.589  0.0577  0.2022  1.6125
10861TIP3   OH254073   5.782   1.886  12.018  0.0682 -0.2018 -0.0015
10861TIP3    H154074   5.737   1.968  12.037  0.0755 -0.4882  1.3528
10861TIP3    H254075   5.875   1.908  12.020  0.2020 -0.6633  2.8697
10862TIP3   OH254076   0.400   0.090   1.062 -0.2830  0.0081 -0.6299
10862TIP3    H154077   0.433   0.074   0.974 -1.5556 -1.3566 -0.8854
10862TIP3    H254078   0.462   0.043   1.119  0.0239  0.1425 -0.8459
10863TIP3   OH254079   0.745   4.914  12.888 -0.6861  0.0266  0.2883
10863TIP3    H154080   0.727   4.985  12.949 -1.8217  0.4211 -0.4758
10863TIP3    H254081   0.796   4.954  12.818  1.5477 -0.6507  1.4416
10864TIP3   OH254082   6.065   6.381  10.889 -0.2190  0.4386 -0.3901
10864TIP3    H154083   6.148   6.334  10.896  0.9028  1.8495 -2.7553
10864TIP3    H254084   6.035   6.364  10.800 -2.8782 -0.5496  0.5954
10865TIP3   OH254085   0.039   2.555   0.612 -0.2556 -0.0638  0.3958
10865TIP3    H154086   0.008   2.616   0.679  0.6866 -0.8527  1.6057
10865TIP3    H254087  -0.027   2.559   0.543 -0.1959  2.3744  0.3738
10866TIP3   OH254088   4.289   3.443  11.544 -0.0956  0.1393 -0.2313
10866TIP3    H154089   4.209   3.459  11.594  1.2170  0.9610  1.7063
10866TIP3    H254090   4.323   3.361  11.578 -0.5087 -0.6796 -1.6739
10867TIP3   OH254091   3.742   3.971   4.712 -0.1756  0.4184  0.1791
10867TIP3    H154092   3.800   4.045   4.695 -0.8614  1.2587  1.3541
10867TIP3    H254093   3.723   3.935   4.625  0.9293  1.0113 -0.3333
10868TIP3   OH254094   4.534   0.646  11.828 -0.2536 -0.2143 -0.0646
10868TIP3    H154095   4.569   0.628  11.741 -2.0925 -2.7168 -0.3937
10868TIP3    H254096   4.501   0.736  11.822 -0.3981 -0.3430 -1.9724
10869TIP3   OH254097   6.306   6.025  15.952  0.3539  0.5117 -0.2768
10869TIP3    H154098   6.313   6.060  16.041 -1.4381 -1.1935  0.6122
10869TIP3    H254099   6.280   6.100  15.899 -0.3801  1.1821  0.9852
10870TIP3   OH254100   1.881   6.331   0.439  0.2611  0.6770 -0.3891
10870TIP3    H154101   1.801   6.381   0.455 -0.4210 -0.7629  1.0641
10870TIP3    H254102   1.852   6.256   0.387  0.0442 -1.2919  2.3641
10871TIP3   OH254103   2.066   0.583   5.031 -0.4721 -0.2910  0.5104
10871TIP3    H154104   2.124   0.511   5.007 -0.3780 -0.6122  1.6586
10871TIP3    H254105   2.110   0.662   4.999 -0.2895 -0.6800 -0.2190
10872TIP3   OH254106   3.607   1.903   2.059 -0.2846 -0.1875 -0.1978
10872TIP3    H154107   3.654   1.961   1.999 -0.5260  1.5114  1.1765
10872TIP3    H254108   3.520   1.895   2.020 -0.1098 -0.0038 -0.6378
10873TIP3   OH254109   1.045   6.327   1.477 -0.3003 -0.3742  0.1390
10873TIP3    H154110   1.008   6.243   1.451 -0.9625 -0.0436 -0.0118
10873TIP3    H254111   1.011   6.389   1.413  0.2062  0.0090  0.2334
10874TIP3   OH254112   1.866   4.372   5.151 -0.0944 -1.0142 -0.1999
10874TIP3    H154113   1.923   4.408   5.219 -0.7128  0.5621 -0.4517
10874TIP3    H254114   1.890   4.421   5.072 -2.0806  0.0479 -0.2003
10875TIP3   OH254115   3.140   6.553   4.208  0.1868 -0.6478 -0.0727
10875TIP3    H154116   3.213   6.532   4.266 -0.5091 -0.1319  1.0079
10875TIP3    H254117   3.077   6.600   4.263 -0.3303  0.1852 -1.3300
10876TIP3   OH254118   2.188   1.396  12.911 -0.1859  0.0813  0.3988
10876TIP3    H154119   2.210   1.332  12.978 -2.1771 -1.1363 -0.0126
10876TIP3    H254120   2.124   1.454  12.953 -1.4803 -0.7155 -0.3735
10877TIP3   OH254121   5.441   0.819   4.915  0.2630  0.2344  0.3524
10877TIP3    H154122   5.389   0.893   4.884  0.6177  0.4058  0.1578
10877TIP3    H254123   5.532   0.849   4.907  0.4300 -0.4019 -0.1948
10878TIP3   OH254124   4.422   3.982   3.348  0.2365 -0.0751  0.1833
10878TIP3    H154125   4.381   3.970   3.433 -0.5064 -1.1628 -0.3057
10878TIP3    H254126   4.484   3.909   3.340  0.1617 -0.0909 -0.2899
10879TIP3   OH254127   5.530   5.037  15.673 -0.5108  0.3110 -0.0351
10879TIP3    H154128   5.531   5.030  15.768 -0.7784  1.5359  0.0752
10879TIP3    H254129   5.461   4.975  15.646 -0.6842  0.2178  0.5901
10880TIP3   OH254130   1.718   5.685  15.426 -0.5500 -0.5380 -0.1998
10880TIP3    H154131   1.791   5.635  15.391 -0.2158 -0.7829  0.7948
10880TIP3    H254132   1.647   5.673  15.362 -0.8106 -3.1037  0.4322
10881TIP3   OH254133   5.926   4.609  16.359 -0.0410  0.4291  0.1297
10881TIP3    H154134   6.003   4.553  16.371  0.5051  1.2683  0.6188
10881TIP3    H254135   5.959   4.686  16.313 -0.8941  0.1287 -1.0342
10882TIP3   OH254136   3.292   4.459   2.750  0.5040 -1.0112  0.0279
10882TIP3    H154137   3.311   4.370   2.720  1.6014  0.5255 -4.6567
10882TIP3    H254138   3.215   4.485   2.700  0.8358  1.0189  0.4866
10883TIP3   OH254139   0.723   5.217   3.087  0.4112 -0.2657 -0.5003
10883TIP3    H154140   0.630   5.214   3.110  0.0225  0.1927 -1.8930
10883TIP3    H254141   0.724   5.210   2.991  1.8226 -0.4172 -0.4977
10884TIP3   OH254142   6.784   6.532   5.348 -0.6517 -0.5843 -0.0698
10884TIP3    H154143   6.741   6.611   5.316 -0.2062 -0.3587 -0.1336
10884TIP3    H254144   6.719   6.463   5.339 -1.6699  0.0794  1.5803
10885TIP3   OH254145   1.714   1.821  13.563  0.2734 -0.4012 -0.5109
10885TIP3    H154146   1.803   1.835  13.596  0.5207 -0.5739 -1.0947
10885TIP3    H254147   1.705   1.883  13.491 -0.7925  1.0183  0.7997
10886TIP3   OH254148   0.696   0.282   2.574 -0.1690 -0.4035 -0.0543
10886TIP3    H154149   0.750   0.278   2.653 -0.7695  1.5568  0.5273
10886TIP3    H254150   0.743   0.344   2.517 -1.5464  1.0384  0.3110
10887TIP3   OH254151   2.627   0.115   5.113 -0.2476  0.4951 -0.4222
10887TIP3    H154152   2.674   0.150   5.038 -0.8995 -2.3870 -2.3209
10887TIP3    H254153   2.542   0.087   5.079 -0.2018 -1.8176  1.1094
10888TIP3   OH254154   4.782   6.261   6.423  0.5242  0.0647  0.0106
10888TIP3    H154155   4.693   6.226   6.420  0.7415 -0.4751 -0.3119
10888TIP3    H254156   4.810   6.249   6.513  0.3299  0.0825  0.0734
10889TIP3   OH254157   3.646   3.890   1.978  0.0973  0.1125 -0.3627
10889TIP3    H154158   3.726   3.943   1.986  0.4987 -0.7129  1.9476
10889TIP3    H254159   3.576   3.953   1.966  0.5361  1.2664  2.4659
10890TIP3   OH254160   4.761   2.968   1.555  0.1920 -0.6989 -0.2556
10890TIP3    H154161   4.837   3.022   1.574  0.0267 -0.4649 -0.2616
10890TIP3    H254162   4.699   2.988   1.624  0.5472 -1.6891  0.3695
10891TIP3   OH254163   2.444   3.141  11.527 -0.6038 -0.0105  0.0780
10891TIP3    H154164   2.435   3.128  11.433  0.1845  1.9286 -0.3163
10891TIP3    H254165   2.500   3.070  11.557  2.0163  1.2310 -1.5669
10892TIP3   OH254166   0.243   0.964  14.999 -0.3323 -0.6169  0.0028
10892TIP3    H154167   0.260   1.053  15.030 -1.1518  0.3009 -2.0378
10892TIP3    H254168   0.156   0.943  15.033 -0.8028 -0.0128 -0.8053
10893TIP3   OH254169   5.537   1.658   4.541 -0.2039  0.4210 -0.2600
10893TIP3    H154170   5.594   1.629   4.470 -1.6056  0.4287 -1.4373
10893TIP3    H254171   5.593   1.712   4.596  1.0732 -0.0802 -1.0296
10894TIP3   OH254172   0.342   1.544  13.995  0.6885 -0.5095  0.1704
10894TIP3    H154173   0.262   1.491  14.001  0.7702 -0.6374  0.1399
10894TIP3    H254174   0.401   1.492  13.941  0.3919  0.0912 -0.7431
10895TIP3   OH254175   2.101   4.165   2.995  0.3664  0.0788  0.5286
10895TIP3    H154176   2.153   4.232   3.039 -1.3486  1.9188 -0.0607
10895TIP3    H254177   2.026   4.151   3.053  0.2090 -0.6112  0.1726
10896TIP3   OH254178   1.018   0.974   4.037 -0.0809  0.0329 -0.3704
10896TIP3    H154179   1.099   1.016   4.009  0.7309 -0.4446  1.1696
10896TIP3    H254180   0.952   1.007   3.976  1.2997  0.2047 -1.8490
10897TIP3   OH254181   4.677   0.044  14.650  0.1182 -0.0382 -0.5108
10897TIP3    H154182   4.687  -0.023  14.717  1.1539 -0.0378 -0.6428
10897TIP3    H254183   4.763   0.086  14.646 -1.1312  3.1385  1.5027
10898TIP3   OH254184   1.454   3.546   1.514 -0.5181 -0.1338  0.1550
10898TIP3    H154185   1.380   3.531   1.456  0.4427  0.5960 -1.3091
10898TIP3    H254186   1.478   3.637   1.499  1.3531 -0.6531 -0.2444
10899TIP3   OH254187   2.377   3.880  10.966  0.1818  0.3463 -0.8501
10899TIP3    H154188   2.415   3.889  10.879 -0.5871 -1.8910 -1.5100
10899TIP3    H254189   2.282   3.882  10.950  0.0358 -0.5127 -0.1530
10900TIP3   OH254190   2.650   2.348   4.422 -0.3276  0.2027  0.2332
10900TIP3    H154191   2.682   2.275   4.368 -0.3908 -1.1743  1.9505
10900TIP3    H254192   2.728   2.398   4.444  0.5663 -2.1539  2.9736
10901TIP3   OH254193   6.636   3.255   2.451 -0.2209 -0.0789  0.1538
10901TIP3    H154194   6.680   3.303   2.382 -0.0346 -0.6892 -0.1585
10901TIP3    H254195   6.544   3.276   2.441 -0.0304  1.1084  0.7316
10902TIP3   OH254196   6.532   1.997   5.091  0.9655  0.3042 -0.5022
10902TIP3    H154197   6.524   2.005   4.996  0.7914  3.3394 -0.3321
10902TIP3    H254198   6.457   2.045   5.125  0.6120 -1.3431  1.2316
10903TIP3   OH254199   5.882   5.536   1.303  0.2807  0.1821 -0.5634
10903TIP3    H154200   5.811   5.484   1.267 -1.0873  1.3919  0.2861
10903TIP3    H254201   5.890   5.505   1.394 -1.6461  2.4393  0.4673
10904TIP3   OH254202   4.041   2.052   0.081 -0.6519 -0.7650  0.0336
10904TIP3    H154203   4.042   2.146   0.063 -0.3538 -0.3836  1.9091
10904TIP3    H254204   4.106   2.016   0.020  0.2832  0.4496  0.2693
10905TIP3   OH254205   2.067   6.809   0.732  0.5072  0.0705  0.3714
10905TIP3    H154206   2.103   6.722   0.719 -1.1184 -0.5289 -0.4315
10905TIP3    H254207   2.012   6.801   0.810  0.7633  0.5196  0.6022
10906TIP3   OH254208   5.224   5.302  13.862  0.1266  0.2378  0.0054
10906TIP3    H154209   5.198   5.213  13.839 -0.6984  0.1638  1.1678
10906TIP3    H254210   5.157   5.358  13.822  0.9056  0.4056 -1.1375
10907TIP3   OH254211   3.752   2.356   3.752 -0.2034 -0.0812 -0.5403
10907TIP3    H154212   3.843   2.375   3.776 -0.8930  0.7878  1.5949
10907TIP3    H254213   3.723   2.434   3.704 -0.0794 -0.0142 -0.5057
10908TIP3   OH254214   4.521   4.952   6.054 -0.1178  0.8885 -0.3442
10908TIP3    H154215   4.495   5.042   6.069  1.5531  1.1950  1.1021
10908TIP3    H254216   4.612   4.958   6.025 -0.4543 -0.2701 -1.7236
10909TIP3   OH254217   5.644   6.522   5.385  0.2497  0.3838 -0.6349
10909TIP3    H154218   5.721   6.578   5.381 -0.3158  1.0897 -2.2861
10909TIP3    H254219   5.579   6.575   5.431 -0.3615  1.2499 -2.4029
10910TIP3   OH254220   1.285   4.422  14.780 -0.5760  0.0022 -0.0751
10910TIP3    H154221   1.350   4.478  14.736 -0.1670 -0.0409  0.4566
10910TIP3    H254222   1.279   4.458  14.868  0.2866 -1.2547  0.5311
10911TIP3   OH254223   3.948   4.126  13.401  0.1046 -0.0457  0.5513
10911TIP3    H154224   4.033   4.102  13.364 -1.3637 -2.3726 -1.7193
10911TIP3    H254225   3.932   4.061  13.469 -0.8598 -1.2986 -0.7928
10912TIP3   OH254226   4.303   4.082  14.648 -0.5030 -0.0804  0.0266
10912TIP3    H154227   4.305   4.081  14.553 -2.5427 -0.4908 -0.0558
10912TIP3    H254228   4.253   4.004  14.672  1.2549 -0.8365  1.5245
10913TIP3   OH254229   0.316   6.163   5.905  0.3526 -0.0012 -0.2400
10913TIP3    H154230   0.242   6.147   5.965  0.9163 -0.1782  0.4225
10913TIP3    H254231   0.312   6.092   5.842  0.5148 -0.5538  0.3615
10914TIP3   OH254232   5.193   4.634  16.421  0.4688 -0.8207  0.6631
10914TIP3    H154233   5.192   4.557  16.363  1.1174 -1.9810  2.1363
10914TIP3    H254234   5.100   4.657  16.431  0.3429 -0.4215 -0.9962
10915TIP3   OH254235   2.807   5.203  12.956  0.3251 -0.1620  0.0355
10915TIP3    H154236   2.724   5.220  12.912 -0.8505  1.1281  2.5545
10915TIP3    H254237   2.784   5.148  13.031  1.5908  0.8269  1.2010
10916TIP3   OH254238   1.711   5.088  13.709  0.1555 -0.4003 -0.2290
10916TIP3    H154239   1.679   5.145  13.639 -0.8958 -0.2351  0.3648
10916TIP3    H254240   1.656   5.110  13.785  0.8553 -1.0137  0.4737
10917TIP3   OH254241   5.371   1.027  15.729 -0.3301  0.3408 -0.1278
10917TIP3    H154242   5.350   1.031  15.636  1.1946  0.2089 -0.5096
10917TIP3    H254243   5.464   1.049  15.733 -0.4652  0.7215  1.4100
10918TIP3   OH254244   1.915   6.296   1.678  0.0864 -0.1924 -0.2061
10918TIP3    H154245   1.896   6.376   1.629  0.4343 -0.5538 -0.9578
10918TIP3    H254246   1.838   6.281   1.733  0.9225  1.8993  1.6759
10919TIP3   OH254247   5.397   3.987   4.800 -0.1993 -0.3747  0.2800
10919TIP3    H154248   5.352   3.968   4.882 -0.6661  0.8837  0.3378
10919TIP3    H254249   5.414   4.081   4.803  0.7378 -0.4968 -0.5971
10920TIP3   OH254250   2.117   1.706   3.454  0.3434 -0.1276  0.4989
10920TIP3    H154251   2.138   1.787   3.408 -0.5602  1.6838  3.0353
10920TIP3    H254252   2.022   1.700   3.450  0.2607 -0.0315  1.8746
10921TIP3   OH254253   3.049   2.610   3.861 -0.1700  0.2388  0.0902
10921TIP3    H154254   2.985   2.547   3.829 -0.5817  1.9648 -2.8923
10921TIP3    H254255   3.002   2.693   3.863  0.7369  0.7797  2.4886
10922TIP3   OH254256   3.739   0.684  16.821 -0.1861  0.3242  0.3233
10922TIP3    H154257   3.682   0.717  16.891 -1.0595 -1.3318  0.4238
10922TIP3    H254258   3.711   0.733  16.743 -0.1273  1.2045  0.8383
10923TIP3   OH254259   0.961   5.321   3.114  0.4712  0.4011  0.3473
10923TIP3    H154260   0.901   5.251   3.138  0.7555  0.8711  2.6446
10923TIP3    H254261   0.996   5.294   3.029 -0.7388 -1.3389  0.3457
10924TIP3   OH254262   5.375   5.113  16.167 -0.5885  1.1221  0.1315
10924TIP3    H154263   5.326   5.066  16.233 -0.1086 -1.3788 -1.1860
10924TIP3    H254264   5.440   5.164  16.217 -1.4984  0.8688  1.6313
10925TIP3   OH254265   5.779   0.492  15.894 -0.4608 -0.2234 -0.3004
10925TIP3    H154266   5.699   0.440  15.889  0.1291 -1.0432 -1.7777
10925TIP3    H254267   5.749   0.583  15.884 -1.2968 -0.4243  0.2431
10926TIP3   OH254268   0.812   6.711  11.352 -0.1355 -0.3699  0.3606
10926TIP3    H154269   0.839   6.729  11.262 -2.4259  1.9556 -0.0150
10926TIP3    H254270   0.878   6.755  11.406 -0.5320  1.1552 -0.3412
10927TIP3   OH254271   1.326   6.810  12.492 -0.2910  0.0502 -0.4151
10927TIP3    H154272   1.294   6.785  12.578  2.1382 -2.3713 -0.0667
10927TIP3    H254273   1.409   6.854  12.510 -0.1626  0.2717 -1.4902
10928TIP3   OH254274   5.395   2.800   2.947  0.0414  0.1197  0.3756
10928TIP3    H154275   5.346   2.735   2.897  0.5842 -1.2220  1.4896
10928TIP3    H254276   5.365   2.788   3.037  0.5305  1.0790  0.6826
10929TIP3   OH254277   5.265   2.175  15.137  0.1015 -0.9280 -0.3794
10929TIP3    H154278   5.266   2.129  15.053 -0.6837 -3.6045  0.9823
10929TIP3    H254279   5.230   2.112  15.199 -0.0631  1.2118  1.8720
10930TIP3   OH254280   6.077   1.624  12.796  0.2131 -0.1808 -0.2320
10930TIP3    H154281   6.012   1.577  12.849  1.6280 -2.0004  0.0009
10930TIP3    H254282   6.027   1.689  12.748 -1.5038 -0.2596  1.3428
10931TIP3   OH254283   6.018   5.044  15.516  0.1028 -0.2939  0.1126
10931TIP3    H154284   6.055   5.028  15.430  0.8405  0.1337  0.3392
10931TIP3    H254285   5.933   4.999  15.515  1.0224 -2.1219 -0.0876
10932TIP3   OH254286   6.713   5.622   6.333  0.4131 -0.7774  0.5744
10932TIP3    H154287   6.629   5.652   6.367  0.0959  1.6358 -1.8986
10932TIP3    H254288   6.778   5.677   6.377  0.3336 -0.2611  0.0720
10933TIP3   OH254289   1.886   6.399   2.049  0.0258 -0.0451 -0.3797
10933TIP3    H154290   1.971   6.371   2.083  0.4105 -1.9378 -2.6585
10933TIP3    H254291   1.905   6.477   1.997 -0.3019  1.8018  2.1035
10934TIP3   OH254292   4.774   5.766   1.601  0.3395  0.2097 -0.6258
10934TIP3    H154293   4.678   5.767   1.593  0.3875 -2.5520 -3.8976
10934TIP3    H254294   4.802   5.851   1.569 -0.9635  1.4662  1.3394
10935TIP3   OH254295   5.805   5.835  12.211  0.1047  0.4690  0.1472
10935TIP3    H154296   5.868   5.894  12.168  0.5698  0.0098  0.1874
10935TIP3    H254297   5.858   5.786  12.273 -0.4929  0.8235  0.9444
10936TIP3   OH254298   6.047   2.346  12.411 -0.7373  0.0030  0.0063
10936TIP3    H154299   6.124   2.366  12.357 -0.4076  1.2668  0.9047
10936TIP3    H254300   6.076   2.362  12.501 -2.6022  2.6161  0.2436
10937TIP3   OH254301   2.210   5.524  11.539  0.0902 -0.4292  0.8257
10937TIP3    H154302   2.235   5.541  11.630  0.5931  3.9753  0.1193
10937TIP3    H254303   2.115   5.538  11.537  0.0767 -0.5353  0.6933
10938TIP3   OH254304   1.689   2.220   4.207 -0.0078  0.2045  0.2683
10938TIP3    H154305   1.607   2.202   4.253 -0.9662  0.5138 -1.2797
10938TIP3    H254306   1.682   2.170   4.126  1.1944  0.5292 -0.0498
10939TIP3   OH254307   0.689   3.231   3.307  0.0499 -0.3259  0.7063
10939TIP3    H154308   0.626   3.163   3.283 -0.6024  0.4780  0.0744
10939TIP3    H254309   0.651   3.312   3.273  2.2100 -0.0141 -1.2081
10940TIP3   OH254310   6.124   4.730   5.271  0.2134 -0.3591 -0.2012
10940TIP3    H154311   6.069   4.653   5.279  0.4195 -0.4106  0.8850
10940TIP3    H254312   6.078   4.799   5.320 -0.5910  0.5901 -2.1831
10941TIP3   OH254313   2.089   5.663  15.795 -0.3827 -0.2031  0.4866
10941TIP3    H154314   2.076   5.729  15.864 -1.0130 -0.4877  0.6488
10941TIP3    H254315   2.018   5.679  15.733  0.6333  0.5425 -0.5040
10942TIP3   OH254316   6.590   5.624  11.585  0.0800 -0.1709  0.1999
10942TIP3    H154317   6.500   5.654  11.572  0.0691 -0.3787 -0.2099
10942TIP3    H254318   6.614   5.658  11.671  0.2573  1.5259 -0.4752
10943TIP3   OH254319   5.307   6.266   6.135  0.2421  0.3519  0.1738
10943TIP3    H154320   5.389   6.239   6.093 -0.4738  0.7302 -1.5640
10943TIP3    H254321   5.284   6.192   6.192  0.6473 -0.7498 -1.0316
10944TIP3   OH254322   2.824   4.315   1.420  0.3181  0.6493 -0.4103
10944TIP3    H154323   2.742   4.310   1.469  0.1990  1.3953 -0.5284
10944TIP3    H254324   2.889   4.274   1.478 -0.2818 -0.7287 -0.6656
10945TIP3   OH254325   2.316   1.490   0.548 -0.2358  0.0034  0.1281
10945TIP3    H154326   2.308   1.573   0.595  1.8410 -0.9134  2.3059
10945TIP3    H254327   2.229   1.450   0.556 -1.0344  1.5506 -0.2488
10946TIP3   OH254328   1.227   5.110   4.232 -0.0453  0.8254 -0.4238
10946TIP3    H154329   1.163   5.042   4.253  1.4729 -0.3621  0.5747
10946TIP3    H254330   1.183   5.164   4.167 -1.9303 -0.1317 -0.0310
10947TIP3   OH254331   6.594   5.243   3.286 -0.0256 -0.1531 -0.5590
10947TIP3    H154332   6.503   5.221   3.304  0.0966 -2.8724 -2.7313
10947TIP3    H254333   6.645   5.179   3.336  0.6513  0.2122 -0.7623
10948TIP3   OH254334   4.467   2.692  16.873 -0.6828  0.4467 -0.0744
10948TIP3    H154335   4.435   2.679  16.962 -0.2182  0.8180  0.1491
10948TIP3    H254336   4.449   2.609  16.829 -0.7858  0.2139  0.4031
10949TIP3   OH254337   6.429   2.686   0.305  0.2993 -0.4459  0.6652
10949TIP3    H154338   6.357   2.689   0.369  0.6051 -1.0003  1.0503
10949TIP3    H254339   6.404   2.748   0.237  0.5794  1.1508  1.9574
10950TIP3   OH254340   3.727   6.601  11.646 -0.1975 -0.0941 -0.1739
10950TIP3    H154341   3.761   6.679  11.602 -0.2224  0.5896  0.9940
10950TIP3    H254342   3.795   6.576  11.708 -0.6543 -0.3451  0.2333
10951TIP3   OH254343   0.376   5.872   3.811  0.0250  0.6249 -0.3095
10951TIP3    H154344   0.469   5.849   3.813  0.0909  0.9121  1.2587
10951TIP3    H254345   0.363   5.924   3.890 -1.4835  0.5608 -0.4897
10952TIP3   OH254346   4.636   3.171  13.249  0.0484  0.0370 -0.3454
10952TIP3    H154347   4.663   3.143  13.336 -1.9499 -0.8094  0.0587
10952TIP3    H254348   4.669   3.261  13.241  0.0380  0.2258  1.4050
10953TIP3   OH254349   5.082   6.590   4.080 -0.4655 -0.1462 -0.0425
10953TIP3    H154350   5.017   6.660   4.091 -1.3925 -1.1557  1.1329
10953TIP3    H254351   5.126   6.584   4.165  0.3293 -0.3178 -0.4483
10954TIP3   OH254352   6.657   2.792  16.306  0.1996  0.3479 -0.1429
10954TIP3    H154353   6.670   2.739  16.227  1.3531 -2.3115  1.6669
10954TIP3    H254354   6.567   2.772  16.333  0.2629  0.1660 -0.0635
10955TIP3   OH254355   3.494   2.141   1.888  0.6019  0.3135 -0.6856
10955TIP3    H154356   3.516   2.228   1.853 -0.1794  1.1061  0.6751
10955TIP3    H254357   3.469   2.158   1.979  0.4476 -1.3601 -0.3837
10956TIP3   OH254358   1.792   1.023   5.397 -0.2688 -0.8516  0.2652
10956TIP3    H154359   1.863   1.081   5.424 -0.6045 -0.4577  0.3216
10956TIP3    H254360   1.827   0.935   5.406 -0.0538 -0.6870  1.0385
10957TIP3   OH254361   2.468   0.557  12.172  0.1344  0.4931  0.0590
10957TIP3    H154362   2.376   0.553  12.143  0.0018  1.4492  0.3241
10957TIP3    H254363   2.464   0.539  12.266 -0.0369  2.5829  0.4910
10958TIP3   OH254364   2.474   5.592   1.568 -0.1097 -0.7365  0.4063
10958TIP3    H154365   2.392   5.626   1.531  0.0117  0.2145  0.9614
10958TIP3    H254366   2.519   5.670   1.602  1.8453 -0.9865 -1.4353
10959TIP3   OH254367   3.476   1.205   1.217 -0.7981  0.0405  0.0084
10959TIP3    H154368   3.483   1.271   1.148 -0.2300  0.4898  0.4837
10959TIP3    H254369   3.565   1.177   1.233 -1.0115 -0.6536  0.0038
10960TIP3   OH254370   6.513   0.650  16.812  0.4560 -0.9621  0.1259
10960TIP3    H154371   6.462   0.666  16.892 -0.2835 -1.5471 -0.2155
10960TIP3    H254372   6.450   0.612  16.751  1.1495 -1.0491 -0.5468
10961TIP3   OH254373   1.396   2.830  16.872  0.1143 -0.0046 -0.5846
10961TIP3    H154374   1.485   2.861  16.856  0.0822  0.9000  0.7374
10961TIP3    H254375   1.394   2.813  16.967 -1.4055  1.0003 -0.4072
10962TIP3   OH254376   1.061   2.613   3.209  0.5888 -0.8880  0.7347
10962TIP3    H154377   1.060   2.561   3.289  1.4561  0.1407  1.4360
10962TIP3    H254378   1.017   2.695   3.233 -0.3041 -1.0781 -0.2085
10963TIP3   OH254379   3.578   0.001  11.381  0.1008 -0.2921 -0.0152
10963TIP3    H154380   3.627   0.052  11.446 -0.1226 -2.3296  1.8975
10963TIP3    H254381   3.645  -0.049  11.335  0.2017  0.6343 -0.8884
10964TIP3   OH254382   2.290   0.372  12.626  0.0552  0.4168  0.1149
10964TIP3    H154383   2.385   0.359  12.619 -0.2031 -1.0881 -1.3250
10964TIP3    H254384   2.271   0.355  12.718  0.7780 -3.1972 -0.2252
10965TIP3   OH254385   2.089   5.955   0.190 -0.1789 -0.2460 -0.5545
10965TIP3    H154386   2.149   5.880   0.182  0.9510  0.7353 -1.8882
10965TIP3    H254387   2.047   5.961   0.104 -1.2046 -0.0855 -0.0580
10966TIP3   OH254388   4.109   4.488   2.423 -0.0450  0.5060 -0.3487
10966TIP3    H154389   4.129   4.549   2.493  0.9874 -1.5910  1.3135
10966TIP3    H254390   4.040   4.432   2.459  0.9200 -0.9880 -0.7265
10967TIP3   OH254391   1.917   0.713  11.707  0.1445  0.1857 -0.7184
10967TIP3    H154392   1.872   0.781  11.656  1.4612  1.7039  0.0590
10967TIP3    H254393   2.010   0.735  11.700  0.4024  0.3990  2.2301
10968TIP3   OH254394   1.118   1.246   6.569  0.1374  0.0061 -0.0380
10968TIP3    H154395   1.142   1.315   6.508  0.0812  0.8810  0.9124
10968TIP3    H254396   1.187   1.249   6.636 -0.2949 -0.3349  0.4261
10969TIP3   OH254397   0.907   4.389  15.490 -0.2692  0.1526 -0.4301
10969TIP3    H154398   0.940   4.326  15.426 -0.3113  0.7704 -1.0747
10969TIP3    H254399   0.985   4.420  15.536 -0.4864 -2.5172  1.9735
10970TIP3   OH254400   0.670   1.673  15.386  0.0197  0.0731  0.3703
10970TIP3    H154401   0.748   1.626  15.416  0.1333 -0.4538 -0.7308
10970TIP3    H254402   0.662   1.650  15.294 -2.0172 -0.6517  0.6901
10971TIP3   OH254403   2.635   1.164  16.658 -0.1201  0.1839  0.4450
10971TIP3    H154404   2.675   1.216  16.728 -1.0319 -0.6111  1.5903
10971TIP3    H254405   2.566   1.220  16.623  0.1928  0.4964  0.3197
10972TIP3   OH254406   0.779   0.530   5.930 -0.2697 -0.6259  0.1173
10972TIP3    H154407   0.743   0.489   5.851 -0.1023 -0.3752 -0.0916
10972TIP3    H254408   0.742   0.480   6.002 -1.2750 -0.2017 -0.0744
10973TIP3   OH254409   0.220   2.227  12.436  0.3532 -0.2531 -0.3499
10973TIP3    H154410   0.161   2.288  12.482  0.5522 -1.1376  1.1083
10973TIP3    H254411   0.214   2.254  12.344 -3.1134 -0.8922 -0.4551
10974TIP3   OH254412   2.133   5.785  13.410  0.5507 -0.3241  0.0905
10974TIP3    H154413   2.166   5.776  13.320 -1.7073 -2.4723 -0.6464
10974TIP3    H254414   2.113   5.695  13.437 -1.4131  0.4995  1.6716
10975TIP3   OH254415   0.392   6.570  12.129 -0.0209  0.2287  0.4332
10975TIP3    H154416   0.419   6.610  12.046  2.5825 -0.5991  0.7705
10975TIP3    H254417   0.436   6.485  12.130 -1.7923 -0.7380  1.7158
10976TIP3   OH254418   4.634   5.467  13.789 -0.1072  0.1438  0.2609
10976TIP3    H154419   4.663   5.379  13.766  1.0108  0.4337  0.4898
10976TIP3    H254420   4.564   5.454  13.853 -0.9001 -0.5954 -0.7263
10977TIP3   OH254421   6.067   2.133  16.766 -0.2742 -0.0402 -0.1811
10977TIP3    H154422   6.097   2.046  16.789 -0.7766  0.3905  2.4155
10977TIP3    H254423   5.972   2.129  16.776 -0.6580  0.0466 -3.0369
10978TIP3   OH254424   5.650   5.404   1.208  0.3321 -0.5564  0.5270
10978TIP3    H154425   5.628   5.498   1.206 -1.1555 -0.8711 -1.3798
10978TIP3    H254426   5.598   5.369   1.280  1.1941  0.1208  1.5069
10979TIP3   OH254427   3.410   4.874  13.833  0.2280 -0.3941  0.0839
10979TIP3    H154428   3.491   4.896  13.879  0.1361 -0.3810  0.2364
10979TIP3    H254429   3.374   4.958  13.806  0.1565 -0.3889  0.1976
10980TIP3   OH254430   0.306   0.941  10.537 -0.6647  0.1925  0.0576
10980TIP3    H154431   0.285   1.013  10.478  0.1994 -0.0125 -0.5081
10980TIP3    H254432   0.360   0.881  10.486 -1.3109 -0.8406  0.5394
10981TIP3   OH254433   6.034   5.940  17.069 -0.5285 -0.3215 -0.0656
10981TIP3    H154434   6.001   6.016  17.118  0.5308  2.1360 -2.8232
10981TIP3    H254435   5.965   5.921  17.006  0.6252  0.7834 -1.7402
10982TIP3   OH254436   6.306   1.598  13.277  0.0860 -0.3438 -0.5801
10982TIP3    H154437   6.357   1.641  13.345  0.8300  0.5060 -1.6241
10982TIP3    H254438   6.228   1.653  13.267 -0.7549 -1.2973  0.5904
10983TIP3   OH254439   6.518   4.286  16.713 -0.4664  0.2516 -0.2088
10983TIP3    H154440   6.449   4.351  16.727  0.2566  0.8448  0.7356
10983TIP3    H254441   6.510   4.226  16.787  0.7424  0.9933  0.5541
10984TIP3   OH254442   4.476   5.892   3.296  0.0018  0.0787  0.2606
10984TIP3    H154443   4.383   5.896   3.320  0.6084 -1.4117  3.3984
10984TIP3    H254444   4.475   5.864   3.205 -2.6061  1.4176 -0.2342
10985TIP3   OH254445   1.877   4.288   4.498 -0.5812 -0.0475  0.2780
10985TIP3    H154446   1.954   4.331   4.536 -1.0525  0.7376  0.3733
10985TIP3    H254447   1.907   4.200   4.475  0.3563  0.2652  0.2675
10986TIP3   OH254448   1.289   1.568  15.294 -0.4515  0.1636  0.3455
10986TIP3    H154449   1.281   1.615  15.377  1.9294  1.7663 -0.2516
10986TIP3    H254450   1.380   1.579  15.268 -0.9603 -0.8800 -2.1690
10987TIP3   OH254451   5.612   2.396  14.343  0.3336 -0.0329  0.0843
10987TIP3    H154452   5.583   2.383  14.253  2.2578  0.9225 -0.7310
10987TIP3    H254453   5.636   2.309  14.373 -2.0590 -0.6598  0.3734
10988TIP3   OH254454   4.710   0.620   5.377 -0.1513 -0.7010 -0.2350
10988TIP3    H154455   4.717   0.573   5.460  0.9751 -0.3494 -0.1087
10988TIP3    H254456   4.728   0.712   5.401 -1.9967 -0.2322 -0.5180
10989TIP3   OH254457   1.698   0.290  16.705  0.7144 -0.2484 -0.1895
10989TIP3    H154458   1.764   0.240  16.753  0.8377  1.7138  1.8964
10989TIP3    H254459   1.625   0.229  16.693  1.9926 -1.7824 -0.4926
10990TIP3   OH254460   2.595   0.164   0.603 -0.2495  0.4786  0.5807
10990TIP3    H154461   2.621   0.094   0.543 -1.8805  0.1952  0.1694
10990TIP3    H254462   2.526   0.212   0.557  0.5325  2.1260  1.0294
10991TIP3   OH254463   5.183   0.421  16.598  0.0797  0.5556  0.3426
10991TIP3    H154464   5.261   0.462  16.635 -0.9351  2.9771 -0.0084
10991TIP3    H254465   5.149   0.486  16.536 -0.5124 -1.7008 -1.8808
10992TIP3   OH254466   1.543   2.754   3.033  0.4631  0.1320  0.1811
10992TIP3    H154467   1.574   2.772   3.122  1.5576 -3.5065  0.6864
10992TIP3    H254468   1.472   2.691   3.045 -0.7127  1.0691 -1.4996
10993TIP3   OH254469   5.462   5.763  15.005 -0.1172  0.1947 -0.2537
10993TIP3    H154470   5.541   5.795  15.048 -0.5507  0.7127  0.1743
10993TIP3    H254471   5.467   5.667  15.012  0.5852  0.2175 -0.4511
10994TIP3   OH254472   5.044   4.126  15.957 -0.0805  0.1686  0.2741
10994TIP3    H154473   5.027   4.147  15.865 -1.2990 -1.4301  0.1054
10994TIP3    H254474   5.098   4.047  15.954 -2.5055 -1.6260  0.8791
10995TIP3   OH254475   3.403   3.316   4.482 -0.3341  0.5119 -0.2535
10995TIP3    H154476   3.415   3.266   4.402  0.2073 -0.3912  0.3690
10995TIP3    H254477   3.492   3.343   4.506 -0.3838  0.0183  0.5105
10996TIP3   OH254478   5.995   1.892  11.131 -0.7645  0.1208  0.6856
10996TIP3    H154479   6.045   1.847  11.062 -0.0041 -0.6631  1.7233
10996TIP3    H254480   6.000   1.984  11.107  1.5587  0.1221  0.9608
10997TIP3   OH254481   3.728   0.895   6.692 -0.0368  0.1453 -0.2075
10997TIP3    H154482   3.706   0.942   6.612  0.0759  2.3939  0.9996
10997TIP3    H254483   3.708   0.956   6.762 -1.0913 -2.1093  1.5962
10998TIP3   OH254484   5.810   3.856   5.730 -0.7854  0.0343  0.4296
10998TIP3    H154485   5.886   3.906   5.761 -1.4015  1.9347 -0.9028
10998TIP3    H254486   5.816   3.772   5.775  1.5238  0.5127  1.1540
10999TIP3   OH254487   3.544   5.676   0.625  0.3046  0.0119  0.5322
10999TIP3    H154488   3.500   5.591   0.624 -0.3398  0.3415  0.5309
10999TIP3    H254489   3.493   5.730   0.565  0.1076  0.6907  1.2872
11000TIP3   OH254490   5.846   4.795   3.597  0.6450 -0.1569 -0.2754
11000TIP3    H154491   5.804   4.713   3.624  1.2838 -0.1370  0.8667
11000TIP3    H254492   5.888   4.828   3.677 -1.6294  2.5790 -0.0666
11001TIP3   OH254493   0.393   4.320   5.597 -0.1597  0.5152 -0.8777
11001TIP3    H154494   0.299   4.302   5.591  0.2044 -1.9004 -0.3487
11001TIP3    H254495   0.419   4.338   5.507 -0.3705 -3.6027 -1.9649
11002TIP3   OH254496   1.627   5.526  14.214 -0.2804  0.2640 -0.1550
11002TIP3    H154497   1.608   5.612  14.178 -0.3409  0.3521  0.0882
11002TIP3    H254498   1.616   5.466  14.140  0.9342  0.5947 -0.6318
11003TIP3   OH254499   2.507   0.566  15.649 -1.0375 -0.3449  0.4190
11003TIP3    H154500   2.520   0.660  15.636 -0.7897 -0.2903  1.0050
11003TIP3    H254501   2.564   0.525  15.584 -0.5526 -0.0885  0.6721
11004TIP3   OH254502   3.990   0.043   5.509 -0.2827  0.5207  0.0792
11004TIP3    H154503   4.034  -0.026   5.460 -0.8763  1.5894 -2.0760
11004TIP3    H254504   4.042   0.122   5.494 -1.1191  1.1180  0.1818
11005TIP3   OH254505   0.861   3.121  11.922  0.0546 -0.2395 -0.1961
11005TIP3    H154506   0.855   3.161  11.835  2.1410  2.0993  0.6199
11005TIP3    H254507   0.783   3.153  11.968 -0.5385 -0.6789 -0.8752
11006TIP3   OH254508   2.739   3.165  16.771  0.4135  0.7829  0.2193
11006TIP3    H154509   2.749   3.238  16.832  1.0926  0.0650  0.9899
11006TIP3    H254510   2.707   3.206  16.690  0.0513  1.8241  0.8667
11007TIP3   OH254511   2.345   1.679   6.052 -0.0223 -0.4298  0.3633
11007TIP3    H154512   2.426   1.627   6.058  0.0699 -0.3613 -0.1645
11007TIP3    H254513   2.346   1.712   5.962 -1.1506 -1.2676  0.0217
11008TIP3   OH254514   1.800   4.406   5.752  0.0960  0.2183  0.1366
11008TIP3    H154515   1.882   4.455   5.763  0.8034 -0.8432 -0.1845
11008TIP3    H254516   1.734   4.461   5.793  1.3320  0.0477  2.5340
11009TIP3   OH254517   1.639   5.243   1.864  0.5983 -0.0609  0.3846
11009TIP3    H154518   1.637   5.325   1.815 -0.6110  0.4574  1.2436
11009TIP3    H254519   1.589   5.261   1.944 -0.5175 -1.9006  0.1696
11010TIP3   OH254520   4.654   0.054   5.234  0.2147 -0.4667 -0.7363
11010TIP3    H154521   4.647   0.018   5.323  0.4261  0.4043 -0.3612
11010TIP3    H254522   4.564   0.077   5.211  0.2178 -0.3078 -0.5889
11011TIP3   OH254523   0.966   2.270  12.387 -0.5923 -0.5873  0.4865
11011TIP3    H154524   0.999   2.311  12.468 -0.6601  1.2446 -0.3611
11011TIP3    H254525   0.912   2.338  12.347  0.2531 -1.0923 -1.6141
11012TIP3   OH254526   6.768   2.012   4.891 -0.3529 -0.1254 -0.5131
11012TIP3    H154527   6.814   2.077   4.945 -0.2297 -1.2505  0.8032
11012TIP3    H254528   6.826   1.936   4.891  0.2714  0.2607 -3.3990
11013TIP3   OH254529   5.416   1.810  10.590  0.2194 -0.6637  0.3879
11013TIP3    H154530   5.404   1.905  10.592 -0.4625 -0.7505  2.4055
11013TIP3    H254531   5.449   1.792  10.502  0.2701  1.4216 -0.0683
11014TIP3   OH254532   4.241   1.800  15.727  0.0455  0.3335 -0.0551
11014TIP3    H154533   4.327   1.762  15.707 -0.5378 -0.9897 -0.1292
11014TIP3    H254534   4.203   1.819  15.641  0.2764  0.9970 -0.0215
11015TIP3   OH254535   0.131   0.160   3.534 -0.8473 -0.1828  0.2559
11015TIP3    H154536   0.138   0.197   3.622  0.7821 -0.9623  0.4804
11015TIP3    H254537   0.041   0.180   3.507 -0.7920  1.7007  1.3365
11016TIP3   OH254538   1.214   2.321   5.036  0.3581 -0.2699 -0.9722
11016TIP3    H154539   1.298   2.291   5.071  1.0608 -0.5983 -2.8475
11016TIP3    H254540   1.149   2.265   5.079  1.0349  0.2257  0.7651
11017TIP3   OH254541   5.834   5.946  16.871  0.5679 -0.0176  0.2586
11017TIP3    H154542   5.788   6.016  16.917  0.1282 -0.3888  0.3854
11017TIP3    H254543   5.899   5.992  16.817  0.8982  0.4324  1.0208
11018TIP3   OH254544   2.936   2.570   2.183  0.4067  0.2022  0.0457
11018TIP3    H154545   2.866   2.506   2.169  0.6167  0.0338 -0.2410
11018TIP3    H254546   2.940   2.580   2.278  0.2033 -0.0264  0.0800
11019TIP3   OH254547   6.602   4.614  13.042  0.4605  0.0433 -0.2155
11019TIP3    H154548   6.665   4.672  13.000  0.0029 -0.2023 -1.2650
11019TIP3    H254549   6.527   4.612  12.983 -0.7017  0.6049  1.1843
11020TIP3   OH254550   6.033   3.100  13.728  0.7387 -0.0664  0.0047
11020TIP3    H154551   5.963   3.034  13.737 -3.0834  3.0962 -2.8104
11020TIP3    H254552   6.027   3.151  13.808  0.3962 -0.2950  0.1297
11021TIP3   OH254553   1.512   2.379  15.644 -0.1395 -0.3872  0.4686
11021TIP3    H154554   1.544   2.289  15.637  0.5069 -0.2232  1.1251
11021TIP3    H254555   1.556   2.426  15.573 -0.0258 -0.4729  0.4820
11022TIP3   OH254556   4.006   3.871  16.353 -0.0849 -0.4233  0.3230
11022TIP3    H154557   3.916   3.897  16.373  0.3159  0.2935  1.2674
11022TIP3    H254558   3.997   3.809  16.280 -1.3859 -0.8924  0.8535
11023TIP3   OH254559   1.327   2.692  14.054  0.4844  0.2592 -0.1385
11023TIP3    H154560   1.323   2.664  14.146  0.7261  0.7000  0.0088
11023TIP3    H254561   1.406   2.649  14.020  0.8901  0.8027  0.1042
11024TIP3   OH254562   1.304   5.760  14.068  0.1613  0.4731  0.1111
11024TIP3    H154563   1.358   5.795  14.139 -0.6365  2.3581 -0.1386
11024TIP3    H254564   1.361   5.761  13.992 -0.1034  2.2487 -0.1049
11025TIP3   OH254565   4.982   2.056  13.030  0.0553 -0.1889  0.0190
11025TIP3    H154566   5.058   2.000  13.017  0.4787  0.0947  1.2113
11025TIP3    H254567   4.908   1.996  13.034  0.5096 -0.6927  1.3173
11026TIP3   OH254568   5.163   6.008  12.272  0.3334 -0.5201 -0.4789
11026TIP3    H154569   5.132   6.087  12.316  1.9722  0.1121 -0.3826
11026TIP3    H254570   5.193   5.951  12.344 -2.4393 -2.0381 -0.4045
11027TIP3   OH254571   3.314   5.038  13.591  0.2950  0.4100  0.6302
11027TIP3    H154572   3.229   5.041  13.549  0.0111  1.7295  1.2525
11027TIP3    H254573   3.377   5.039  13.519 -0.1785  2.4246  0.1972
11028TIP3   OH254574   1.419   4.546  13.907  0.0689  0.0660  0.3787
11028TIP3    H154575   1.435   4.472  13.966  1.3618  0.2191  0.2656
11028TIP3    H254576   1.400   4.506  13.823 -0.1080 -0.1433  0.5174
11029TIP3   OH254577   4.071   2.702   1.612 -0.7982 -0.4269  0.0545
11029TIP3    H154578   4.083   2.655   1.695 -0.7237 -1.0147 -0.2904
11029TIP3    H254579   4.144   2.765   1.611 -0.1324 -1.1909 -0.0941
11030TIP3   OH254580   0.712   4.739  17.024  0.1151 -0.0015 -0.1365
11030TIP3    H154581   0.805   4.725  17.009  0.3441  1.2596 -0.0106
11030TIP3    H254582   0.668   4.679  16.963  0.9973  1.4552 -2.3188
11031TIP3   OH254583   6.726   0.578   0.423 -0.2910  0.5631 -0.3617
11031TIP3    H154584   6.815   0.541   0.426 -0.5973 -0.2070 -0.5708
11031TIP3    H254585   6.702   0.574   0.330 -1.1390 -0.6977 -0.1096
11032TIP3   OH254586   0.333   6.440  15.685  0.4390 -0.2397 -0.3139
11032TIP3    H154587   0.279   6.394  15.750 -0.2109  2.5138  1.2827
11032TIP3    H254588   0.367   6.371  15.629 -1.3673 -2.5079  1.1734
11033TIP3   OH254589   2.091   4.314   3.738 -0.1404 -0.0425 -0.6593
11033TIP3    H154590   2.125   4.233   3.778  0.3113  0.9310  1.0277
11033TIP3    H254591   2.119   4.309   3.647  0.2451 -1.5886 -0.4964
11034TIP3   OH254592   3.699   6.644  12.436 -0.1310 -0.0475  0.1313
11034TIP3    H154593   3.725   6.559  12.400  1.5040  1.5435 -2.8748
11034TIP3    H254594   3.760   6.706  12.397 -2.2800  2.7569  0.8729
11035TIP3   OH254595   6.286   3.245   4.256  0.3792  0.2937  0.0290
11035TIP3    H154596   6.288   3.256   4.161  0.4686 -0.7802 -0.1071
11035TIP3    H254597   6.211   3.187   4.272  0.1463  0.7539  0.6521
11036TIP3   OH254598   1.075   2.671  13.828  0.2650  0.8237  0.2545
11036TIP3    H154599   1.154   2.669  13.881  0.4472  0.3334 -0.0302
11036TIP3    H254600   1.008   2.630  13.883  0.6866 -0.6070 -0.2480
11037TIP3   OH254601   3.572   0.019  17.305 -0.2423 -0.3096  0.5669
11037TIP3    H154602   3.499   0.059  17.259 -1.1279 -0.5992  1.6663
11037TIP3    H254603   3.549   0.026  17.398  2.0248  1.3127  1.0790
11038TIP3   OH254604   5.110   2.922   5.341  0.8930 -0.0511  0.0752
11038TIP3    H154605   5.052   2.977   5.393 -0.3426 -1.8860  0.7689
11038TIP3    H254606   5.180   2.980   5.313 -0.5823  1.9600  0.3154
11039TIP3   OH254607   5.317   6.735   5.909  0.2429  0.0848  0.1691
11039TIP3    H154608   5.351   6.673   5.973 -0.6620  0.4324  0.9995
11039TIP3    H254609   5.287   6.680   5.836  0.3030 -0.3806  0.4946
11040TIP3   OH254610   2.444   4.728  16.900  0.0080  0.4364  0.6713
11040TIP3    H154611   2.373   4.785  16.927  0.5414  0.4356  2.1451
11040TIP3    H254612   2.524   4.778  16.918  0.4314 -0.0124  0.1193
11041TIP3   OH254613   2.700   5.991  13.155  0.2203 -0.1751 -0.0982
11041TIP3    H154614   2.775   6.017  13.209 -0.8645  1.2478  0.7895
11041TIP3    H254615   2.728   6.009  13.065  0.6724  1.1270  0.2795
11042TIP3   OH254616   1.323   1.403   4.553 -0.2101 -0.4384 -1.0054
11042TIP3    H154617   1.342   1.419   4.461  1.2815  0.7957 -0.5199
11042TIP3    H254618   1.269   1.478   4.579 -0.6469 -0.7965 -0.8804
11043TIP3   OH254619   2.192   0.209   2.236  0.3707  0.2185 -0.0872
11043TIP3    H154620   2.121   0.145   2.239 -1.5612  1.9885 -2.8702
11043TIP3    H254621   2.251   0.177   2.167  0.8745  0.1191  0.3762
11044TIP3   OH254622   4.152   1.601  12.220 -0.4792  0.8834  0.1514
11044TIP3    H154623   4.063   1.630  12.238 -0.9128  0.7121 -1.5610
11044TIP3    H254624   4.167   1.530  12.282 -1.8487  0.3385 -0.1093
11045TIP3   OH254625   1.391   1.369   5.243 -0.3110  0.3705 -0.7069
11045TIP3    H154626   1.424   1.279   5.242 -0.9640  0.1194 -0.3289
11045TIP3    H254627   1.325   1.369   5.312  0.2648  1.3513 -0.1258
11046TIP3   OH254628   1.537   4.663   0.068  0.1905  0.6040 -0.1202
11046TIP3    H154629   1.601   4.710   0.015  0.5896  0.7448  0.4858
11046TIP3    H254630   1.460   4.721   0.069 -0.7047 -0.4132 -2.4678
11047TIP3   OH254631   0.187   6.391   5.296 -0.1772  0.1478  0.5111
11047TIP3    H154632   0.144   6.309   5.273  1.9460 -1.0481  0.5895
11047TIP3    H254633   0.115   6.453   5.309 -1.7645 -1.0546 -1.8191
11048TIP3   OH254634   6.187   3.345   0.027  0.3117 -0.4018  0.3436
11048TIP3    H154635   6.128   3.310  -0.040 -0.7349  0.4629  0.7780
11048TIP3    H254636   6.210   3.432  -0.005 -0.4695  0.1561  1.2410
11049TIP3   OH254637   5.476   3.825   3.708 -0.2267 -0.3609 -0.0474
11049TIP3    H154638   5.563   3.862   3.697 -0.7524  0.4418 -1.7902
11049TIP3    H254639   5.427   3.893   3.754 -0.2533 -0.3211 -0.1345
11050TIP3   OH254640   3.391   0.060  12.985  0.3538 -0.0587  0.2007
11050TIP3    H154641   3.444   0.049  12.906 -0.2796 -0.3311 -0.1908
11050TIP3    H254642   3.317   0.113  12.956 -0.2100 -0.6967  0.4623
11051TIP3   OH254643   5.756   1.916   0.963  0.0541 -0.8486  0.2991
11051TIP3    H154644   5.666   1.927   0.993  0.1471  0.1958  0.2540
11051TIP3    H254645   5.807   1.905   1.044 -0.2371 -2.5718  0.2693
11052TIP3   OH254646   2.972   6.142   2.337 -0.2144  0.4960 -0.4923
11052TIP3    H154647   2.892   6.106   2.377 -0.6365 -0.2570 -1.9129
11052TIP3    H254648   2.945   6.225   2.299  0.2322  1.3043  0.9068
11053TIP3   OH254649   5.726   0.860   5.330  0.3499 -0.2634  0.0217
11053TIP3    H154650   5.732   0.769   5.359 -1.2050 -0.5280 -0.3854
11053TIP3    H254651   5.650   0.895   5.377  0.5297  0.6300 -0.3359
11054TIP3   OH254652   0.335   0.127  13.617  0.2572 -0.0459  0.2221
11054TIP3    H154653   0.405   0.105  13.678 -0.1060 -0.0849  0.6294
11054TIP3    H254654   0.295   0.206  13.653  0.6323  0.4680 -0.4642
11055TIP3   OH254655   4.709   4.844   1.345 -0.4514 -0.5600  0.1131
11055TIP3    H154656   4.752   4.759   1.354 -0.2461 -0.3316  1.6127
11055TIP3    H254657   4.734   4.891   1.424 -1.3768  0.5304 -0.2246
11056TIP3   OH254658   5.873   5.012  13.700  0.1776 -0.3329 -0.0540
11056TIP3    H154659   5.928   5.085  13.671  1.3271 -0.7039  1.0924
11056TIP3    H254660   5.807   5.004  13.632  0.8911  0.8410 -0.9372
11057TIP3   OH254661   6.502   5.063   5.047 -0.0834  0.0464 -0.4530
11057TIP3    H154662   6.421   5.100   5.083 -0.9839  0.5177 -2.7709
11057TIP3    H254663   6.496   4.969   5.067 -0.1405  0.3848  1.2448
11058TIP3   OH254664   1.627   0.793  16.882  0.6854 -0.2132 -0.3105
11058TIP3    H154665   1.632   0.802  16.978 -0.7808  0.1565 -0.2568
11058TIP3    H254666   1.614   0.700  16.868  0.6045 -0.2293 -0.1376
11059TIP3   OH254667   2.934   2.324   0.825 -0.0040 -0.5142  0.0886
11059TIP3    H154668   2.843   2.348   0.843 -0.2841 -0.3830 -1.3119
11059TIP3    H254669   2.933   2.297   0.733  1.4007 -0.3829  0.0163
11060TIP3   OH254670   5.361   6.689   0.644 -0.4680  0.4314  0.5126
11060TIP3    H154671   5.289   6.753   0.646  1.3300  2.6476 -1.0959
11060TIP3    H254672   5.438   6.738   0.672  1.0061 -1.0535 -0.7594
11061TIP3   OH254673   6.782   5.779  13.618  0.3214 -0.3881  0.0505
11061TIP3    H154674   6.747   5.820  13.539  2.4618  2.3135  0.3757
11061TIP3    H254675   6.715   5.794  13.685  0.1096  0.6391 -0.3779
11062TIP3   OH254676   2.356   0.747  13.488 -0.1051  0.0904  0.7802
11062TIP3    H154677   2.295   0.794  13.546  2.0406  0.6528  2.7015
11062TIP3    H254678   2.395   0.680  13.543  0.5842 -0.6774 -0.5818
11063TIP3   OH254679   5.521   6.499   0.096  0.7906  0.2864 -0.7150
11063TIP3    H154680   5.481   6.561   0.157 -0.2716  0.1156 -1.2192
11063TIP3    H254681   5.588   6.455   0.147  1.0487  1.3203 -0.1392
11064TIP3   OH254682   6.487   2.634   3.139  0.1407  0.0204  0.0163
11064TIP3    H154683   6.444   2.629   3.224  0.1307 -0.2850 -0.0041
11064TIP3    H254684   6.438   2.700   3.090 -2.5757 -2.7150 -1.2687
11065TIP3   OH254685   4.217   3.153   1.557  0.0019  0.2838  0.0349
11065TIP3    H154686   4.148   3.108   1.508 -0.2060 -0.7401  1.2086
11065TIP3    H254687   4.219   3.108   1.642  0.6068  1.7508  0.8297
11066TIP3   OH254688   3.782   2.865   3.840 -0.0129  0.1437 -0.0517
11066TIP3    H154689   3.838   2.804   3.791  0.6914 -0.2754  1.2315
11066TIP3    H254690   3.818   2.951   3.819  0.0250  0.0050 -0.5846
11067TIP3   OH254691   1.494   3.408  13.710  0.0990 -0.4111 -0.1506
11067TIP3    H154692   1.573   3.417  13.658  1.0150  1.0006  1.4073
11067TIP3    H254693   1.478   3.314  13.713  1.7155 -0.7236 -0.4960
11068TIP3   OH254694   0.164   4.922  15.048 -0.5439  0.0141 -0.5080
11068TIP3    H154695   0.113   4.998  15.018  0.0806  0.2821 -0.8944
11068TIP3    H254696   0.192   4.946  15.136 -0.4065  0.2071 -0.6026
11069TIP3   OH254697   6.813   3.545  14.785  0.1426 -0.2351  0.1709
11069TIP3    H154698   6.881   3.555  14.719  0.7192 -2.9540  0.2247
11069TIP3    H254699   6.859   3.555  14.869 -0.3169  1.7510  0.2356
11070TIP3   OH254700   5.522   0.874  12.097 -0.7288 -0.5070  0.1023
11070TIP3    H154701   5.448   0.927  12.128 -0.5816 -1.5131  2.4190
11070TIP3    H254702   5.498   0.849  12.008 -1.6546  1.8421 -0.3860
11071TIP3   OH254703   5.345   4.643   6.665 -0.0901 -0.0281  0.1667
11071TIP3    H154704   5.347   4.664   6.571 -0.6085  0.2099  0.2076
11071TIP3    H254705   5.347   4.547   6.668 -0.7953 -0.0604 -0.1156
11072TIP3   OH254706   4.813   1.264  12.885  0.3975  0.3364 -0.4081
11072TIP3    H154707   4.742   1.268  12.949  1.5313 -0.2427  0.9279
11072TIP3    H254708   4.851   1.177  12.896 -0.3787 -0.4042 -3.0226
11073TIP3   OH254709   6.371   2.018  16.519 -0.0274 -0.4281  0.5944
11073TIP3    H154710   6.368   2.020  16.615  1.5586  0.3266  0.6580
11073TIP3    H254711   6.447   1.964  16.498  0.1320  0.1029 -0.2282
11074TIP3   OH254712   3.109   3.908   3.825 -0.1993  0.1908  0.1406
11074TIP3    H154713   3.075   3.909   3.914  0.5251 -0.9466  0.4470
11074TIP3    H254714   3.131   3.999   3.806  0.8868  0.2511  1.6014
11075TIP3   OH254715   6.134   5.088   3.526 -0.7623 -0.5392 -0.3024
11075TIP3    H154716   6.209   5.079   3.584 -0.8771 -2.4937 -0.4040
11075TIP3    H254717   6.070   5.139   3.577 -0.4654 -1.3249  0.8972
11076TIP3   OH254718   1.661   4.589   1.562 -0.3381 -0.0873  0.3233
11076TIP3    H154719   1.613   4.556   1.638 -0.3894  2.2257  1.3660
11076TIP3    H254720   1.595   4.637   1.512 -0.2967 -1.5520 -1.2450
11077TIP3   OH254721   4.831   5.293  12.225  0.4177 -0.0269  0.0938
11077TIP3    H154722   4.817   5.271  12.317 -0.0804  0.1108  0.0509
11077TIP3    H254723   4.895   5.364  12.226  0.2980  0.0756  0.3377
11078TIP3   OH254724   1.372   1.346  15.675 -0.0298 -0.0721 -0.0441
11078TIP3    H154725   1.449   1.310  15.631 -0.3008 -0.4902 -0.1826
11078TIP3    H254726   1.321   1.269  15.701 -0.6579  0.2124 -0.4216
11079TIP3   OH254727   3.598   2.578   0.906 -0.1823 -0.1240 -0.1381
11079TIP3    H154728   3.611   2.658   0.956  1.2259 -0.4747  0.1165
11079TIP3    H254729   3.530   2.530   0.954  0.7692 -0.2142  1.1754
11080TIP3   OH254730   0.782   0.510  17.298 -0.0861 -0.3347  0.1760
11080TIP3    H154731   0.857   0.481  17.246 -0.9714 -0.8707 -0.8308
11080TIP3    H254732   0.786   0.606  17.294 -0.9094 -0.3453 -2.0717
11081TIP3   OH254733   2.852   6.621   2.849  0.6191  0.2563  0.2800
11081TIP3    H154734   2.876   6.563   2.921 -0.3976 -0.4583  0.0557
11081TIP3    H254735   2.775   6.669   2.881  1.8741  2.0936  0.7654
11082TIP3   OH254736   2.251   6.817   1.586 -0.1765 -0.2924  0.3847
11082TIP3    H154737   2.248   6.867   1.504 -1.7524  0.3195  0.7722
11082TIP3    H254738   2.336   6.774   1.585  1.3516  2.5110  0.0828
11083TIP3   OH254739   0.024   0.047   0.401  0.3880 -0.2527  0.0520
11083TIP3    H154740   0.040   0.105   0.476 -0.2118 -1.6912  1.3361
11083TIP3    H254741   0.111   0.023   0.370  0.6752 -1.1141  1.4742
11084TIP3   OH254742   1.638   4.790  13.050  0.5483  0.6538  0.1153
11084TIP3    H154743   1.595   4.875  13.040  2.8569  2.0879  1.3395
11084TIP3    H254744   1.702   4.787  12.979 -1.1913 -1.2788 -1.4757
11085TIP3   OH254745   6.090   5.877   2.444  0.0359  0.2395  0.7672
11085TIP3    H154746   6.086   5.787   2.412 -0.9923 -0.2070  2.0407
11085TIP3    H254747   6.131   5.926   2.373  0.5463 -1.2096  0.0126
11086TIP3   OH254748   0.456   2.778  16.330 -0.1251 -0.5298 -0.0305
11086TIP3    H154749   0.401   2.701  16.314  0.4861 -1.0392  0.3009
11086TIP3    H254750   0.518   2.778  16.258  1.3079 -1.6416  1.1561
11087TIP3   OH254751   3.048   2.010  15.989 -0.1227 -0.2918 -0.1191
11087TIP3    H154752   3.023   2.079  16.050  2.3475 -0.5524  1.2997
11087TIP3    H254753   3.090   2.055  15.917 -0.3035 -0.1968 -0.1664
11088TIP3   OH254754   2.266   3.800  17.004 -0.3459 -0.3511  0.0496
11088TIP3    H154755   2.231   3.871  17.057  0.7524 -0.1396  0.5339
11088TIP3    H254756   2.190   3.763  16.960 -1.1988 -0.0911  1.2476
11089TIP3   OH254757   4.579   3.278   3.556 -0.3064 -0.4422 -0.0707
11089TIP3    H154758   4.539   3.364   3.544  0.2995 -0.0492  0.6592
11089TIP3    H254759   4.650   3.276   3.493 -0.6837 -0.6424 -0.4933
11090TIP3   OH254760   0.560   6.279   5.670 -0.3225 -0.0316  0.0628
11090TIP3    H154761   0.465   6.266   5.666 -0.1006 -1.5896 -1.3789
11090TIP3    H254762   0.591   6.257   5.582  1.4982 -0.6133  0.7972
11091TIP3   OH254763   6.475   4.201   5.054 -0.3433  0.3155  0.2360
11091TIP3    H154764   6.446   4.122   5.009  0.9404 -0.2969  0.4546
11091TIP3    H254765   6.399   4.227   5.107 -0.6702 -0.9499  0.4244
11092TIP3   OH254766   2.790   6.258   0.457 -0.4814  0.3879  0.4530
11092TIP3    H154767   2.853   6.330   0.459 -0.8443  0.7020  0.8182
11092TIP3    H254768   2.716   6.293   0.406  0.0350 -0.3195 -0.8382
11093TIP3   OH254769   2.261   3.278  13.148 -0.6741  0.1575  0.3114
11093TIP3    H154770   2.275   3.371  13.166 -0.2515  0.4082 -1.1385
11093TIP3    H254771   2.334   3.233  13.191  0.4847  0.7469 -0.9785
11094TIP3   OH254772   1.264   0.486   5.229 -0.2826 -0.3221  0.4159
11094TIP3    H154773   1.316   0.526   5.299 -0.2901 -0.2559  0.3844
11094TIP3    H254774   1.328   0.449   5.169 -0.3002 -1.8843  1.3258
11095TIP3   OH254775   6.697   0.173   6.038 -0.1951 -0.0878  0.0067
11095TIP3    H154776   6.677   0.146   5.948 -0.1559 -0.0818 -0.0041
11095TIP3    H254777   6.613   0.169   6.084  0.1040 -1.9987  0.4636
11096TIP3   OH254778   4.425   0.318  15.101 -0.3719 -0.1372  0.0772
11096TIP3    H154779   4.360   0.359  15.158 -1.0109  0.7214 -1.2084
11096TIP3    H254780   4.449   0.237  15.146 -0.6730  0.6118  1.6518
11097TIP3   OH254781   0.206   0.183  17.006  0.4927  0.7721 -0.8967
11097TIP3    H154782   0.156   0.139  16.937  0.7264 -1.5277  0.2869
11097TIP3    H254783   0.139   0.226  17.059 -0.3746 -1.9880  0.4717
11098TIP3   OH254784   3.972   2.781  16.072  0.4453 -0.1209  0.3600
11098TIP3    H154785   3.988   2.817  15.985  3.2736 -2.3387 -0.1707
11098TIP3    H254786   3.927   2.698  16.057  1.5977 -0.8722  0.8970
11099TIP3   OH254787   1.508   3.760  15.337 -0.2234 -0.1570 -0.3228
11099TIP3    H154788   1.520   3.793  15.426 -0.9633  0.5728 -0.4901
11099TIP3    H254789   1.531   3.667  15.343 -1.2591 -0.3608  0.8675
11100TIP3   OH254790   2.140   6.258   6.139 -0.2078  0.0053  0.3860
11100TIP3    H154791   2.114   6.299   6.057 -1.7419 -2.7060 -0.6416
11100TIP3    H254792   2.081   6.296   6.204  2.0505  3.3476  0.7240
11101TIP3   OH254793   2.490   2.890  11.617 -0.2447  0.2713  0.3461
11101TIP3    H154794   2.416   2.877  11.676  1.2216 -2.9919  1.7506
11101TIP3    H254795   2.481   2.822  11.551  1.2103  0.0919  0.2817
11102TIP3   OH254796   4.085   1.777   3.940 -0.1421 -0.2082 -0.1623
11102TIP3    H154797   4.119   1.688   3.933  1.1490  0.3243 -1.2175
11102TIP3    H254798   4.106   1.818   3.856  0.2865  1.4176  0.6794
11103TIP3   OH254799   6.617   4.726   4.504  0.0068 -0.4054 -0.2086
11103TIP3    H154800   6.569   4.685   4.576 -0.8335 -0.6519 -0.8933
11103TIP3    H254801   6.569   4.700   4.425  0.6623  0.2110 -0.8263
11104TIP3   OH254802   1.957   6.820   2.445 -0.0858 -0.3051  0.0287
11104TIP3    H154803   1.956   6.821   2.349  1.7727 -1.8037 -0.0770
11104TIP3    H254804   2.046   6.793   2.467 -0.9927 -1.8132  2.1519
11105TIP3   OH254805   2.287   6.262   3.695  0.0900 -0.0086 -0.9153
11105TIP3    H154806   2.263   6.169   3.688  1.7393 -0.5417 -0.0720
11105TIP3    H254807   2.383   6.262   3.699  0.0678  1.5314  1.5288
11106TIP3   OH254808   3.824   2.462  10.434  0.0031  0.0991  0.8432
11106TIP3    H154809   3.870   2.384  10.401 -0.7394  0.0929 -0.2397
11106TIP3    H254810   3.891   2.513  10.479  0.3188 -1.6339  2.4767
11107TIP3   OH254811   0.644   5.379  13.215  0.0602  0.0548  0.1354
11107TIP3    H154812   0.553   5.410  13.221 -0.9648 -2.5834 -0.2315
11107TIP3    H254813   0.677   5.419  13.135 -1.1278  0.3219 -0.2506
11108TIP3   OH254814   0.117   0.067   1.005 -0.6798  0.2474 -0.0996
11108TIP3    H154815   0.202   0.079   1.047 -1.5639 -0.3747  2.0237
11108TIP3    H254816   0.128  -0.011   0.951  0.0832  0.1476  0.1862
11109TIP3   OH254817   6.443   6.259  12.300  0.0425  0.7371 -0.3235
11109TIP3    H154818   6.446   6.335  12.358 -0.0021  0.0758  0.5779
11109TIP3    H254819   6.525   6.263  12.251  2.0513 -0.7342  2.5548
11110TIP3   OH254820   5.645   4.144   0.963  0.5160 -0.5886  0.3541
11110TIP3    H154821   5.696   4.063   0.967  0.3858 -0.6907  0.0481
11110TIP3    H254822   5.570   4.128   1.019  0.5298 -0.6515  0.3550
11111TIP3   OH254823   2.268   2.842   5.830 -0.6694 -0.1014  0.0403
11111TIP3    H154824   2.294   2.934   5.827 -0.2550  0.0193  3.3063
11111TIP3    H254825   2.173   2.844   5.840 -0.5874  0.0243  0.8368
11112TIP3   OH254826   2.422   5.458   4.569  0.0311 -0.6561  0.0365
11112TIP3    H154827   2.424   5.554   4.577  1.6028 -0.7198  0.8782
11112TIP3    H254828   2.439   5.427   4.657  2.3628 -1.6581 -0.6978
11113TIP3   OH254829   5.448   1.441  13.502 -0.3251  0.1129  0.4586
11113TIP3    H154830   5.436   1.421  13.409  2.6942 -1.2026  0.2618
11113TIP3    H254831   5.516   1.509  13.504  0.4841 -0.6894  1.7320
11114TIP3   OH254832   0.941   0.248   3.737 -0.3938 -0.1241  0.3245
11114TIP3    H154833   1.012   0.306   3.711 -0.8475  0.9877  1.4959
11114TIP3    H254834   0.949   0.173   3.678  0.1555  1.1382 -1.2820
11115TIP3   OH254835   1.159   4.327   0.366  0.2714  0.3373 -0.3651
11115TIP3    H154836   1.193   4.294   0.449 -2.2365  0.7746  0.9480
11115TIP3    H254837   1.114   4.252   0.327  1.9321 -0.0264 -1.6773
11116TIP3   OH254838   1.725   4.956   5.615 -0.1588  0.9057  0.3426
11116TIP3    H154839   1.787   4.903   5.563  1.0587  1.5532  1.1039
11116TIP3    H254840   1.652   4.896   5.633 -0.2451  0.4211 -1.4137
11117TIP3   OH254841   5.823   6.019  10.959 -0.2600  0.0050  0.9706
11117TIP3    H154842   5.728   6.007  10.955 -0.1236 -0.7898 -1.6725
11117TIP3    H254843   5.851   6.016  10.868  2.5026 -1.3699  1.7675
11118TIP3   OH254844   0.987   2.087  14.114 -0.0979  0.9150  0.6159
11118TIP3    H154845   1.027   2.012  14.070 -3.5580 -0.3404 -0.7322
11118TIP3    H254846   0.952   2.141  14.043 -0.6850  1.9787  1.6767
11119TIP3   OH254847   0.905   4.523   5.555 -0.1400 -0.4253 -0.6123
11119TIP3    H154848   0.973   4.466   5.520 -0.8499 -2.3738  1.0056
11119TIP3    H254849   0.948   4.570   5.627 -0.7750 -2.7533  1.3933
11120TIP3   OH254850   3.875   5.488   1.044  0.3979  0.2920  0.1263
11120TIP3    H154851   3.931   5.541   1.101  0.4103 -0.9637  1.3479
11120TIP3    H254852   3.790   5.532   1.045  1.0520  1.6381 -0.9030
11121TIP3   OH254853   2.196   2.934   2.112 -0.5100 -0.5518 -0.3947
11121TIP3    H154854   2.205   3.011   2.056 -1.0885 -0.2841 -0.1309
11121TIP3    H254855   2.136   2.876   2.063 -0.1977 -0.7672 -0.5228
11122TIP3   OH254856   5.841   3.190  15.486  0.0075  0.2978 -0.4059
11122TIP3    H154857   5.869   3.115  15.539 -1.2924  0.9003  1.2441
11122TIP3    H254858   5.750   3.169  15.463 -0.3241  1.2865 -0.0380
11123TIP3   OH254859   6.044   6.125  16.802 -0.1195  0.2975  0.1566
11123TIP3    H154860   6.067   6.194  16.864 -0.9957  0.1313  0.6898
11123TIP3    H254861   6.101   6.140  16.727  1.4481  0.1057  1.2540
11124TIP3   OH254862   6.803   4.330  14.586 -0.2427  0.3837  0.1180
11124TIP3    H154863   6.872   4.343  14.652  0.1343 -0.6160 -0.0624
11124TIP3    H254864   6.793   4.416  14.546 -0.6557  1.0884  1.6331
11125TIP3   OH254865   4.285   0.391   1.405  0.7627 -0.0785  0.6127
11125TIP3    H154866   4.216   0.329   1.380  2.5370 -1.6661 -0.5929
11125TIP3    H254867   4.267   0.410   1.497 -0.1909 -1.9853  0.8841
11126TIP3   OH254868   5.402   1.371  15.608 -0.0265 -0.0713  0.0063
11126TIP3    H154869   5.445   1.456  15.612 -0.0856 -0.0319 -0.1820
11126TIP3    H254870   5.470   1.308  15.632 -0.0883  0.0618  0.5433
11127TIP3   OH254871   0.174   2.615   3.499 -0.2170  0.1882  0.4401
11127TIP3    H154872   0.225   2.537   3.477  0.2386  0.0913  1.7657
11127TIP3    H254873   0.120   2.630   3.422  3.3612  1.6187 -2.0850
11128TIP3   OH254874   0.268   1.048   5.237  0.0735 -0.3944 -0.1278
11128TIP3    H154875   0.194   1.082   5.188 -0.1758 -0.6491  0.0696
11128TIP3    H254876   0.285   0.962   5.200  0.9553  0.0893 -0.8909
11129TIP3   OH254877   2.433   0.117   0.953  0.6436 -0.2366  0.6210
11129TIP3    H154878   2.356   0.170   0.932  1.4789  1.7585  2.2770
11129TIP3    H254879   2.401   0.027   0.949 -1.3468  0.4408 -0.3477
11130TIP3   OH254880   1.418   5.306   4.072 -0.1408 -0.0693 -0.4419
11130TIP3    H154881   1.470   5.250   4.014  0.3501 -2.7955  2.3866
11130TIP3    H254882   1.329   5.270   4.067 -0.1571 -0.1405  0.2231
11131TIP3   OH254883   2.469   2.942  14.421 -0.3886  0.0221 -0.4983
11131TIP3    H154884   2.421   2.988  14.490 -1.1813 -1.6227  0.1018
11131TIP3    H254885   2.402   2.921  14.356 -0.6620 -2.5736  0.4925
11132TIP3   OH254886   2.875   0.784   0.129 -0.0937 -0.1888 -0.2836
11132TIP3    H154887   2.859   0.691   0.111 -0.1312 -0.0265 -1.1322
11132TIP3    H254888   2.953   0.784   0.185  0.6491 -0.7002 -1.2640
11133TIP3   OH254889   2.723   5.575  11.794 -0.6133  0.0864  0.0211
11133TIP3    H154890   2.771   5.552  11.715  0.1690  0.1023  0.4784
11133TIP3    H254891   2.729   5.671  11.799 -2.1243  0.2643 -0.7931
11134TIP3   OH254892   5.780   4.233   3.701  0.8852  0.7496 -0.2047
11134TIP3    H154893   5.757   4.302   3.763  1.6334  1.2355 -0.4456
11134TIP3    H254894   5.768   4.273   3.615 -0.8026 -0.1310 -0.4270
11135TIP3   OH254895   2.713   1.502   4.867 -0.2587  0.9451  0.3018
11135TIP3    H154896   2.773   1.558   4.916  0.7513  0.0590  0.1391
11135TIP3    H254897   2.757   1.416   4.867 -1.2491  0.4259 -0.3535
11136TIP3   OH254898   3.612   2.782  12.498  0.1767  0.1179  0.1022
11136TIP3    H154899   3.617   2.698  12.451  1.3858 -0.9077  1.8985
11136TIP3    H254900   3.591   2.757  12.588  1.1332  1.6967  0.8044
11137TIP3   OH254901   4.532   6.472  11.621 -0.2807 -0.3554 -0.7136
11137TIP3    H154902   4.484   6.426  11.553  1.2490 -0.2900 -1.8929
11137TIP3    H254903   4.559   6.554  11.580 -0.4033  0.2558  0.3887
11138TIP3   OH254904   0.839   3.970   4.752  0.4368  0.2574  0.0410
11138TIP3    H154905   0.905   3.903   4.735 -1.7881 -1.7958 -1.0005
11138TIP3    H254906   0.764   3.922   4.787 -0.9262  2.3311  0.1258
11139TIP3   OH254907   2.847   5.309   5.888  0.6932  0.9663 -0.1212
11139TIP3    H154908   2.929   5.260   5.897 -1.4003 -3.1940 -1.1709
11139TIP3    H254909   2.793   5.278   5.961 -0.3741  2.8062 -0.0730
11140TIP3   OH254910   6.672   5.425  12.482  0.0059  0.1689 -0.0988
11140TIP3    H154911   6.686   5.414  12.388  0.1232 -1.3274  0.0714
11140TIP3    H254912   6.594   5.373  12.501  1.1390 -1.2032  0.9635
11141TIP3   OH254913   6.160   6.761  14.789 -0.5390 -0.0783  0.2266
11141TIP3    H154914   6.174   6.788  14.880  0.6150 -3.1584  1.0741
11141TIP3    H254915   6.205   6.677  14.781 -1.2289 -0.2857 -3.0257
11142TIP3   OH254916   1.426   0.659  16.686 -0.0088 -0.0265  0.6924
11142TIP3    H154917   1.333   0.652  16.665 -0.0100 -0.1116  0.7266
11142TIP3    H254918   1.430   0.714  16.764 -0.0004  0.3451  0.4335
11143TIP3   OH254919   2.212   1.807   1.464  0.7567  0.2484  0.3610
11143TIP3    H154920   2.292   1.765   1.497 -0.0819  1.0781  3.8649
11143TIP3    H254921   2.242   1.890   1.427  1.9137 -1.3618 -2.6667
11144TIP3   OH254922   4.118   5.479  11.171  0.0188  0.1488 -0.2401
11144TIP3    H154923   4.127   5.568  11.205  0.9559 -0.2072  0.5009
11144TIP3    H254924   4.114   5.489  11.076  2.0023  0.8759 -0.2924
11145TIP3   OH254925   4.073   3.440  11.281  0.3330  0.3506 -0.2272
11145TIP3    H154926   4.050   3.348  11.292 -1.5345  0.5642 -1.8278
11145TIP3    H254927   4.000   3.488  11.321  1.9237  1.2347  1.8552
11146TIP3   OH254928   5.651   4.335   2.779  0.2724  0.0951  0.1173
11146TIP3    H154929   5.563   4.306   2.758  0.1367  0.8404 -0.3679
11146TIP3    H254930   5.667   4.410   2.721  1.1886  0.0260  0.2534
11147TIP3   OH254931   2.216   4.091  16.208 -0.3808  0.9110 -0.9408
11147TIP3    H154932   2.244   4.000  16.204 -0.0662  0.9170  0.6051
11147TIP3    H254933   2.283   4.139  16.160  0.8921  0.6105  0.4663
11148TIP3   OH254934   3.131   2.823  13.920  0.0090  0.0786 -0.4777
11148TIP3    H154935   3.217   2.791  13.894 -0.5507 -0.8814 -1.2024
11148TIP3    H254936   3.104   2.881  13.849  0.5292  1.3177  0.2945
11149TIP3   OH254937   3.221   6.206  13.857  0.1489 -0.2325  0.3513
11149TIP3    H154938   3.160   6.267  13.817  0.0893 -0.7661 -0.3761
11149TIP3    H254939   3.279   6.261  13.910  1.0751  0.6457 -1.5095
11150TIP3   OH254940   3.558   1.467   5.788 -0.2171  0.0781  0.4395
11150TIP3    H154941   3.480   1.522   5.785  1.4256  2.5050 -0.8898
11150TIP3    H254942   3.551   1.410   5.712 -1.6601 -1.2408  1.5080
11151TIP3   OH254943   4.540   4.652   3.846  0.0105 -0.4669  0.5095
11151TIP3    H154944   4.477   4.581   3.834 -1.6572  0.6725  2.0254
11151TIP3    H254945   4.507   4.701   3.921  1.6925  1.2999  0.1748
11152TIP3   OH254946   5.063   2.260   2.470 -0.2742  0.1820  0.0043
11152TIP3    H154947   5.127   2.285   2.403 -0.8667  2.6289  0.2343
11152TIP3    H254948   5.113   2.262   2.552 -0.5050  1.6897  0.1353
11153TIP3   OH254949   6.174   3.628  13.880 -0.1651  0.3407 -0.4218
11153TIP3    H154950   6.203   3.539  13.899  0.9272  0.7171 -0.2530
11153TIP3    H254951   6.252   3.672  13.846 -0.6554  1.2722 -0.3766
11154TIP3   OH254952   4.135   2.591  13.778  0.0774 -0.0245 -0.2771
11154TIP3    H154953   4.207   2.600  13.840  0.1188  0.2872 -0.3718
11154TIP3    H254954   4.070   2.538  13.825  0.6712 -0.9444 -0.4609
11155TIP3   OH254955   5.742   3.057  17.254  0.7872 -0.0562 -0.2018
11155TIP3    H154956   5.787   2.995  17.196 -0.4493 -0.4174 -0.8056
11155TIP3    H254957   5.789   3.140  17.240  2.4906 -0.8133  0.6485
11156TIP3   OH254958   5.286   2.517   4.099  0.2521  0.3578 -0.2455
11156TIP3    H154959   5.281   2.473   4.015  1.9161 -0.5411  0.0863
11156TIP3    H254960   5.195   2.536   4.122 -0.2156  0.9354 -2.3823
11157TIP3   OH254961   3.542   1.413   6.084 -0.0254 -0.1545  0.2146
11157TIP3    H154962   3.538   1.404   5.988  2.4187  1.2941 -0.1060
11157TIP3    H254963   3.489   1.491   6.102  2.5078  1.8693 -0.5049
11158TIP3   OH254964   1.626   5.766  13.278 -0.4603 -0.8217 -0.6156
11158TIP3    H154965   1.695   5.706  13.251  1.9997  1.7869 -0.6640
11158TIP3    H254966   1.612   5.823  13.202 -1.0554  0.0698  0.1271
11159TIP3   OH254967   5.000   5.962  14.530 -0.1976 -0.2477  0.6450
11159TIP3    H154968   5.036   5.884  14.572 -0.5948 -0.8972 -0.2210
11159TIP3    H254969   5.063   6.031  14.551  1.1078 -1.1790 -0.0980
11160TIP3   OH254970   0.616   3.885   1.581 -0.0822 -0.2279  0.2856
11160TIP3    H154971   0.581   3.834   1.508  1.0863 -0.1249 -0.3612
11160TIP3    H254972   0.628   3.973   1.545  0.8537 -0.2700  0.4813
11161TIP3   OH254973   0.767   5.100   0.831 -0.4197 -0.4455 -0.1427
11161TIP3    H154974   0.714   5.149   0.769 -1.6598 -1.8295 -0.2367
11161TIP3    H254975   0.703   5.057   0.889  0.5774 -2.1610 -0.2582
11162TIP3   OH254976   1.086   3.053   5.946 -0.9942  0.3846 -0.2022
11162TIP3    H154977   1.065   2.961   5.935 -0.3197  0.2075 -0.0261
11162TIP3    H254978   1.016   3.100   5.900 -1.4032 -0.2059 -0.1882
11163TIP3   OH254979   1.113   1.810  11.093 -0.0621 -0.1212 -0.5290
11163TIP3    H154980   1.185   1.747  11.104  0.5679  0.2043 -2.3831
11163TIP3    H254981   1.039   1.769  11.136  0.6103 -1.6574 -0.7616
11164TIP3   OH254982   5.447   4.358   3.654  0.0553  0.2101 -0.1280
11164TIP3    H154983   5.464   4.413   3.731 -1.1666  2.1775 -1.1704
11164TIP3    H254984   5.522   4.374   3.597 -0.6538  1.4649 -0.7502
11165TIP3   OH254985   1.210   1.661  17.087  0.8068  0.0179 -0.0517
11165TIP3    H154986   1.118   1.638  17.075  0.2157  2.1675 -0.0450
11165TIP3    H254987   1.254   1.577  17.105 -1.1663 -1.0197  0.1806
11166TIP3   OH254988   1.279   4.425   3.108  0.4385  0.3332 -0.1178
11166TIP3    H154989   1.217   4.358   3.078  1.2312 -0.4093 -0.1767
11166TIP3    H254990   1.226   4.501   3.128 -0.3435  0.1706 -1.4717
11167TIP3   OH254991   5.289   0.113  16.863 -0.2634 -0.0484  0.2037
11167TIP3    H154992   5.352   0.134  16.931  0.0684  1.6909 -0.5775
11167TIP3    H254993   5.280   0.018  16.867  1.5299 -0.2268  1.1024
11168TIP3   OH254994   0.885   5.402   5.286  0.3468  0.1523  0.0637
11168TIP3    H154995   0.925   5.365   5.207  1.3353  0.5146  0.3773
11168TIP3    H254996   0.828   5.472   5.254 -2.3784 -2.1935 -0.6350
11169TIP3   OH254997   1.599   4.824   1.925 -0.0434 -0.6009  0.2508
11169TIP3    H154998   1.552   4.884   1.983  0.0983 -0.3463  0.1020
11169TIP3    H254999   1.685   4.813   1.967  0.3571  0.2299 -0.3355
11170TIP3   OH255000   5.800   2.925  10.960  0.2453  0.6375 -0.9192
11170TIP3    H155001   5.739   2.997  10.975 -1.6134 -0.9655 -0.4449
11170TIP3    H255002   5.754   2.864  10.902  0.7028 -1.3608  0.6797
11171TIP3   OH255003   2.265   3.887  13.587 -0.1354 -0.0123 -0.0923
11171TIP3    H155004   2.232   3.817  13.530  0.5811 -0.0041 -0.5352
11171TIP3    H255005   2.201   3.957  13.577 -1.1085 -0.7480  0.7073
11172TIP3   OH255006   0.919   2.767  16.370 -0.6764  0.1390  0.1664
11172TIP3    H155007   0.852   2.700  16.358 -0.2611 -0.3316  0.4183
11172TIP3    H255008   0.879   2.830  16.430 -1.1321  0.2091 -0.2063
11173TIP3   OH255009   2.127   3.413   2.763  0.4779  0.8972  0.0630
11173TIP3    H155010   2.175   3.492   2.787  0.9673  0.9370 -1.0004
11173TIP3    H255011   2.195   3.352   2.733  0.1976 -0.1982  1.5442
11174TIP3   OH255012   2.275   3.288  10.637 -0.4555  0.5152 -0.2740
11174TIP3    H155013   2.181   3.306  10.629 -0.3315  1.3033 -0.0752
11174TIP3    H255014   2.317   3.359  10.590  0.0544  0.3819 -0.0219
11175TIP3   OH255015   4.732   4.396   0.550 -0.2422  0.4598  0.0270
11175TIP3    H155016   4.656   4.443   0.585 -1.5016 -0.9069 -0.7776
11175TIP3    H255017   4.779   4.366   0.627  1.5237  4.2698  0.6661
11176TIP3   OH255018   6.123   5.542   5.060 -0.4387 -0.2868 -0.0085
11176TIP3    H155019   6.108   5.452   5.032 -0.7076 -0.1114 -0.4266
11176TIP3    H255020   6.094   5.596   4.987  0.0935  0.1314  0.0787
11177TIP3   OH255021   1.040   5.621   3.117 -0.1064  0.6553  0.0711
11177TIP3    H155022   1.069   5.541   3.161  0.5476  0.6067 -0.4266
11177TIP3    H255023   1.084   5.618   3.032  0.7100  2.0484  0.4376
11178TIP3   OH255024   1.616   6.017   5.704 -0.0112 -0.1089  0.0194
11178TIP3    H155025   1.640   5.974   5.787 -2.8796  0.9378  1.5576
11178TIP3    H255026   1.656   6.103   5.710 -0.1760 -0.0491  0.3380
11179TIP3   OH255027   6.738   0.970  11.385  0.7965 -0.3794 -0.3222
11179TIP3    H155028   6.748   0.963  11.290  0.4264 -0.4608 -0.3568
11179TIP3    H255029   6.734   1.064  11.401  0.2331 -0.3729 -0.4605
11180TIP3   OH255030   4.540   4.115  13.802 -0.1964 -0.3565  0.0400
11180TIP3    H155031   4.512   4.187  13.746 -0.8365  0.1713  1.0075
11180TIP3    H255032   4.531   4.149  13.891  2.0757 -0.6904  0.4750
11181TIP3   OH255033   6.598   6.293   0.338  0.0271 -0.8952  0.1557
11181TIP3    H155034   6.608   6.380   0.299 -0.9922 -0.6536  0.4141
11181TIP3    H255035   6.615   6.232   0.265  0.8179 -0.4937 -0.0079
11182TIP3   OH255036   0.326   5.379   1.481 -0.9670 -0.2045 -0.3328
11182TIP3    H155037   0.359   5.398   1.568 -0.1612 -0.2478 -0.6197
11182TIP3    H255038   0.376   5.303   1.452 -0.8038  0.1632 -1.0584
11183TIP3   OH255039   5.019   1.144   2.568  0.2234 -0.2863 -0.2769
11183TIP3    H155040   4.933   1.164   2.606  0.6916 -1.4342  1.4905
11183TIP3    H255041   5.002   1.135   2.474 -1.4938 -0.0130 -0.0254
11184TIP3   OH255042   3.724   5.914   0.927  0.4361 -0.1239  0.4342
11184TIP3    H155043   3.811   5.872   0.924  0.5595  0.1833 -1.8063
11184TIP3    H255044   3.742   6.007   0.912 -0.2913 -0.1207 -0.5111
11185TIP3   OH255045   4.235   3.029   0.687  0.2452 -0.7237  0.5161
11185TIP3    H155046   4.152   3.002   0.649  0.0896  0.5065 -0.0664
11185TIP3    H255047   4.211   3.084   0.761  0.5128  0.5341 -0.3068
11186TIP3   OH255048   5.258   6.550  15.520 -0.1216 -0.2047 -0.6331
11186TIP3    H155049   5.298   6.543  15.434  1.4002 -0.2021  0.0323
11186TIP3    H255050   5.170   6.515  15.509 -0.0491  0.0445 -2.2341
11187TIP3   OH255051   6.503   5.874   2.200 -0.5996  0.2825 -0.5330
11187TIP3    H155052   6.456   5.823   2.133 -0.1586  0.0130 -0.6455
11187TIP3    H255053   6.593   5.881   2.166 -0.7626  1.5425 -0.7421
11188TIP3   OH255054   2.982   0.991  14.188 -0.1639 -0.1214  0.3552
11188TIP3    H155055   3.044   0.984  14.260  0.6409 -0.0001 -0.3124
11188TIP3    H255056   3.019   0.936  14.118 -0.9341 -0.2509  0.0369
11189TIP3   OH255057   5.268   1.847   5.047 -0.0914 -0.3249  0.0562
11189TIP3    H155058   5.185   1.889   5.025 -0.2896 -1.8043 -2.5002
11189TIP3    H255059   5.320   1.916   5.088 -1.6742  1.3610 -0.6250
11190TIP3   OH255060   5.505   6.211   1.990 -0.5596  0.6473  0.2968
11190TIP3    H155061   5.484   6.214   1.897 -0.6514 -0.8215  0.2372
11190TIP3    H255062   5.573   6.277   2.002  0.0873  0.2513 -1.0062
11191TIP3   OH255063   1.265   2.183   4.237 -0.0757  0.6793  0.0706
11191TIP3    H155064   1.185   2.185   4.185 -0.3044  0.0318  0.3933
11191TIP3    H255065   1.328   2.134   4.184 -0.0526  0.7346  0.0466
11192TIP3   OH255066   2.358   3.207  13.860  0.1507  0.1674  0.4328
11192TIP3    H155067   2.447   3.177  13.839  0.6013  1.4015  0.4278
11192TIP3    H255068   2.353   3.205  13.955 -0.1599 -0.8141  0.3972
11193TIP3   OH255069   5.231   4.337  13.085 -0.2749 -0.3649  0.2970
11193TIP3    H155070   5.224   4.319  12.991  0.2799  0.3063  0.1141
11193TIP3    H255071   5.192   4.261  13.128  0.1310 -1.0101 -0.4625
11194TIP3   OH255072   2.770   3.140   3.768  0.2494  0.1717  0.2589
11194TIP3    H155073   2.853   3.094   3.779  0.0559 -0.3635 -0.4259
11194TIP3    H255074   2.734   3.147   3.857 -0.1220 -1.7893  0.3050
11195TIP3   OH255075   0.002   0.850  13.855  0.0960 -0.9544 -0.0200
11195TIP3    H155076  -0.061   0.834  13.926  0.3579 -1.6749  0.0600
11195TIP3    H255077   0.000   0.770  13.803 -0.3917 -0.2872 -1.0818
11196TIP3   OH255078   6.445   2.122  13.153  0.0448 -0.6012  0.2276
11196TIP3    H155079   6.365   2.099  13.201 -0.2389  0.0789  0.0991
11196TIP3    H255080   6.446   2.218  13.154  0.3431 -0.5850 -0.6138
11197TIP3   OH255081   2.041   3.412  12.916 -0.2449  0.5621  0.0537
11197TIP3    H155082   2.102   3.470  12.870  0.6797  1.4035  2.2230
11197TIP3    H255083   2.087   3.328  12.919 -0.6491  0.2808 -1.1979
11198TIP3   OH255084   4.116   0.212  13.299  0.2946 -0.7472 -0.2507
11198TIP3    H155085   4.064   0.171  13.367  0.2537 -0.5152 -0.1394
11198TIP3    H255086   4.053   0.234  13.230  0.5666 -2.4608 -1.1028
11199TIP3   OH255087   2.565   6.577  10.763 -0.4023  0.0636 -0.2040
11199TIP3    H155088   2.641   6.557  10.709 -0.7676 -0.1135 -0.6614
11199TIP3    H255089   2.494   6.524  10.725 -0.7460  0.2114  0.2259
11200TIP3   OH255090   3.462   2.720  10.416  0.5774  0.3000  0.4511
11200TIP3    H155091   3.470   2.815  10.403  2.5427  0.0674 -0.3273
11200TIP3    H255092   3.383   2.696  10.368 -1.5617  1.8771  2.8973
11201TIP3   OH255093   5.380   4.099  12.760 -0.4452  0.0960  0.6261
11201TIP3    H155094   5.430   4.019  12.777 -0.8162 -0.1040  0.7848
11201TIP3    H255095   5.430   4.144  12.692 -0.1087 -0.1563  0.7034
11202TIP3   OH255096   2.953   5.532   2.275  0.5122 -0.3377 -0.2299
11202TIP3    H155097   2.995   5.605   2.231  0.6817  0.5122  1.2781
11202TIP3    H255098   2.869   5.522   2.230 -0.2083  1.8311  0.5142
11203TIP3   OH255099   6.372   1.923   5.845  0.2683 -0.3479 -0.4914
11203TIP3    H155100   6.340   1.835   5.864  1.5873 -0.4811  1.3800
11203TIP3    H255101   6.346   1.975   5.922 -0.7154  1.0104 -1.6612
11204TIP3   OH255102   6.042   6.669  16.740 -0.9280 -0.1124 -0.2112
11204TIP3    H155103   6.116   6.706  16.692 -1.2589  0.6513 -0.1397
11204TIP3    H255104   6.082   6.624  16.814 -0.5839  1.3548  0.5400
11205TIP3   OH255105   2.450   2.548   4.409  0.2122  0.8251  0.5824
11205TIP3    H155106   2.518   2.599   4.366 -0.0467 -0.3202 -1.2618
11205TIP3    H255107   2.496   2.473   4.447  0.1959  0.8916  0.7341
11206TIP3   OH255108   3.802   2.715   3.093  0.3630 -0.8524 -0.9133
11206TIP3    H155109   3.867   2.662   3.046  0.0730 -1.4438 -0.6579
11206TIP3    H255110   3.844   2.733   3.178  0.8164  0.0710 -1.3207
11207TIP3   OH255111   3.555   6.560  16.472  0.1126 -0.2186  0.1710
11207TIP3    H155112   3.570   6.468  16.496 -1.1041 -0.4435  0.1213
11207TIP3    H255113   3.588   6.566  16.382  1.8764 -0.1268  0.7773
11208TIP3   OH255114   1.477   1.642   5.953  0.1446  0.2808  0.2702
11208TIP3    H155115   1.497   1.577   6.020 -0.4208 -0.5645 -0.3635
11208TIP3    H255116   1.472   1.725   6.001 -1.4696 -0.4689  1.5018
11209TIP3   OH255117   3.181   1.699   3.713  0.0725 -0.0008 -0.2213
11209TIP3    H155118   3.227   1.615   3.706  0.4456  0.2298 -0.5005
11209TIP3    H255119   3.088   1.675   3.707  0.1828 -0.3762 -0.4511
11210TIP3   OH255120   1.270   2.717  12.620  0.0581  0.0953  0.7495
11210TIP3    H155121   1.324   2.672  12.555 -1.2440 -1.6380  0.7942
11210TIP3    H255122   1.279   2.810  12.598  2.0648 -0.2010  0.0332
11211TIP3   OH255123   4.222   4.536  15.776  0.8758 -0.0072  0.1373
11211TIP3    H155124   4.214   4.508  15.867  1.4266  0.4382  0.3295
11211TIP3    H255125   4.147   4.496  15.732  0.9413 -0.7315  0.6580
11212TIP3   OH255126   0.791   0.075  13.939  0.0771  0.5340  0.1396
11212TIP3    H155127   0.841   0.086  13.859 -1.2801 -0.8022 -0.9395
11212TIP3    H255128   0.813   0.152  13.992  2.0170  0.7682 -0.9219
11213TIP3   OH255129   1.825   4.506  14.704 -0.5671 -0.4221 -0.1264
11213TIP3    H155130   1.910   4.521  14.746 -0.7045  1.2499 -0.3855
11213TIP3    H255131   1.816   4.579  14.642 -0.9477 -2.0933 -2.1685
11214TIP3   OH255132   1.100   4.013  10.909  0.2150  0.2489  0.3141
11214TIP3    H155133   1.143   4.014  10.824 -0.8111 -1.9225 -0.3171
11214TIP3    H255134   1.075   3.922  10.922  1.0316  0.3232  3.3400
11215TIP3   OH255135   2.373   1.721  12.653  0.2513  0.1780  0.0109
11215TIP3    H155136   2.446   1.660  12.665 -0.5032 -0.9040 -0.6789
11215TIP3    H255137   2.383   1.752  12.563 -1.2908 -1.6491 -0.8791
11216TIP3   OH255138   5.514   1.819  16.958 -0.6250  0.4059  0.7257
11216TIP3    H155139   5.531   1.893  17.016 -0.2157  1.9472 -1.2662
11216TIP3    H255140   5.478   1.858  16.879 -1.6543 -1.6782  0.1105
11217TIP3   OH255141   6.440   0.100   3.103 -0.3381  0.0520  0.4718
11217TIP3    H155142   6.375   0.040   3.066  0.3532 -0.9080  0.7730
11217TIP3    H255143   6.458   0.162   3.032 -2.0023  0.7078  0.5803
11218TIP3   OH255144   0.655   4.217  15.216  0.6060 -0.3532  0.7869
11218TIP3    H155145   0.621   4.128  15.225  0.1938 -0.5336 -1.7076
11218TIP3    H255146   0.599   4.270  15.273 -1.2230 -1.2742 -0.0621
11219TIP3   OH255147   2.056   5.046  13.777 -0.5284 -0.5467 -0.3218
11219TIP3    H155148   2.133   5.064  13.722 -0.6970 -0.5882 -0.5742
11219TIP3    H255149   2.053   4.950  13.783  0.2135 -0.5178  0.7962
11220TIP3   OH255150   2.709   3.007   2.225 -0.3964 -0.4937 -0.1242
11220TIP3    H155151   2.623   3.027   2.189 -0.0437  1.0641 -0.1821
11220TIP3    H255152   2.757   2.968   2.153 -0.3025  0.8484 -0.8146
11221TIP3   OH255153   2.822   5.823   1.234 -0.3562  0.0360  0.2500
11221TIP3    H155154   2.811   5.918   1.236 -1.2984 -0.0694  1.8217
11221TIP3    H255155   2.917   5.810   1.234 -0.2144  0.9625 -0.1549
11222TIP3   OH255156   1.037   5.786  16.559 -0.3468  0.1910 -0.1766
11222TIP3    H155157   1.067   5.871  16.526  1.9223 -0.6228 -0.4267
11222TIP3    H255158   1.077   5.778  16.645  2.1375 -1.8518 -1.3846
11223TIP3   OH255159   2.477   2.466   3.407  0.0224 -0.0774  0.0012
11223TIP3    H155160   2.387   2.499   3.400 -0.4333 -1.3379 -0.2593
11223TIP3    H255161   2.479   2.419   3.490 -0.3618 -2.3299 -1.1993
11224TIP3   OH255162   4.027   3.627  15.491 -0.2015  0.2210 -0.1182
11224TIP3    H155163   4.053   3.573  15.566  0.0563 -1.7725 -1.5673
11224TIP3    H255164   4.096   3.692  15.483  0.1614 -0.0146  0.8947
11225TIP3   OH255165   4.672   6.216  15.250  0.0058  0.2426  0.2619
11225TIP3    H155166   4.730   6.290  15.232  0.7417 -0.3861  0.0467
11225TIP3    H255167   4.703   6.146  15.193  0.9704 -1.0806  2.2908
11226TIP3   OH255168   1.104   0.357  15.574  0.5476 -0.4501 -0.6300
11226TIP3    H155169   1.171   0.391  15.634  1.4878 -1.3864 -1.1168
11226TIP3    H255170   1.023   0.361  15.625  1.1948 -0.5246  0.4411
11227TIP3   OH255171   2.238   0.526   5.726 -0.4168 -0.2884 -0.3740
11227TIP3    H155172   2.242   0.439   5.688  1.6836 -1.0067  1.3000
11227TIP3    H255173   2.221   0.512   5.819 -0.4230  1.1189 -0.1292
11228TIP3   OH255174   5.790   2.578  16.047 -0.0380 -0.3527  0.1399
11228TIP3    H155175   5.712   2.582  15.992 -0.2499 -0.5851  0.4245
11228TIP3    H255176   5.763   2.617  16.130  0.4599  0.5911 -0.1255
11229TIP3   OH255177   1.466   3.602   6.578 -0.2173  0.0749 -0.4199
11229TIP3    H155178   1.538   3.570   6.525 -0.5584  0.4549 -1.1239
11229TIP3    H255179   1.485   3.695   6.591  0.5538 -0.2783  1.2637
11230TIP3   OH255180   6.341   2.633  14.748 -0.0005 -0.1179 -0.0711
11230TIP3    H155181   6.390   2.706  14.785  2.2955 -1.5777  0.0144
11230TIP3    H255182   6.305   2.588  14.824  0.1518 -0.0936  0.0174
11231TIP3   OH255183   4.503   5.908   2.678 -0.0382  0.1601  0.4489
11231TIP3    H155184   4.571   5.975   2.672  0.6764 -0.5686  0.3809
11231TIP3    H255185   4.528   5.842   2.614 -0.5871 -0.3132  0.7123
11232TIP3   OH255186   6.286   3.353   5.823  0.5969  0.4001  0.2212
11232TIP3    H155187   6.219   3.321   5.762 -1.0925 -0.1830  2.2585
11232TIP3    H255188   6.369   3.321   5.787 -0.4050 -0.6220 -1.2971
11233TIP3   OH255189   5.378   2.864   5.081  0.2544  0.6603 -0.2659
11233TIP3    H155190   5.446   2.921   5.045 -0.5350  0.4795 -2.1997
11233TIP3    H255191   5.301   2.920   5.090  0.6844  0.9663  2.3110
11234TIP3   OH255192   4.360   0.656  13.741 -0.5482 -0.6382 -0.3757
11234TIP3    H155193   4.422   0.701  13.685 -1.1981 -1.2131 -1.6099
11234TIP3    H255194   4.393   0.668  13.830  0.5243  0.2726 -0.8858
11235TIP3   OH255195   2.714   6.316   2.542 -0.1192  0.0894 -0.3428
11235TIP3    H155196   2.756   6.239   2.580 -2.0330 -0.4753  0.7961
11235TIP3    H255197   2.771   6.389   2.566  1.9922 -0.9603 -1.8695
11236TIP3   OH255198   5.844   5.468   3.068  0.1504 -0.4229  0.3165
11236TIP3    H155199   5.891   5.457   3.150 -0.6895 -0.3256  0.8204
11236TIP3    H255200   5.775   5.402   3.070  0.1834 -0.4927 -0.3657
11237TIP3   OH255201   6.304   0.312  12.915  0.0409  0.8659 -0.4361
11237TIP3    H155202   6.347   0.394  12.890 -0.7333  1.2523 -0.5480
11237TIP3    H255203   6.334   0.295  13.004  1.1877  0.5950 -0.8650
11238TIP3   OH255204   4.339   4.506   3.641  0.1252 -0.1897  0.4442
11238TIP3    H155205   4.412   4.535   3.585  0.5666 -1.1156  0.5241
11238TIP3    H255206   4.272   4.476   3.579 -0.1078  0.4518  0.3765
11239TIP3   OH255207   1.781   1.244   2.298 -0.2577 -0.4414  0.0394
11239TIP3    H155208   1.780   1.181   2.370 -0.7248 -0.6407 -0.1365
11239TIP3    H255209   1.748   1.325   2.337 -0.3349 -0.4993  0.0968
11240TIP3   OH255210   2.250   3.219  15.853 -0.2755  0.1852  0.6226
11240TIP3    H155211   2.327   3.275  15.847  1.6757 -2.1851  1.6661
11240TIP3    H255212   2.234   3.190  15.763 -0.4740  1.3173  0.2832
11241TIP3   OH255213   1.077   1.375   3.742  0.0964  0.4088  0.0465
11241TIP3    H155214   1.120   1.316   3.804 -1.7384 -1.8485 -0.6819
11241TIP3    H255215   1.134   1.375   3.666 -0.5650 -1.7574 -0.5363
11242TIP3   OH255216   1.964   2.951  16.198  0.1400  0.6928 -0.2444
11242TIP3    H155217   1.888   3.009  16.193  1.0663  1.8397 -1.7803
11242TIP3    H255218   1.978   2.922  16.108  0.6479 -0.6834  0.2541
11243TIP3   OH255219   6.460   4.478  15.704  0.2883  0.3022  0.0364
11243TIP3    H155220   6.400   4.487  15.630  1.4955  1.3396 -0.8699
11243TIP3    H255221   6.409   4.509  15.779 -0.3825  1.0078 -0.6805
11244TIP3   OH255222   0.161   2.261   2.345 -0.1904  0.0611  0.3074
11244TIP3    H155223   0.234   2.316   2.318 -1.7106  0.5525 -3.4257
11244TIP3    H255224   0.196   2.172   2.346  0.2700  0.1091 -2.8105
11245TIP3   OH255225   3.938   3.268  17.248 -0.0925  0.2470 -0.0666
11245TIP3    H155226   3.868   3.312  17.296  0.2389  1.9419 -1.0537
11245TIP3    H255227   3.908   3.267  17.157  0.1214 -1.2007 -0.1460
11246TIP3   OH255228   1.516   1.735   5.023 -0.4210  0.3933  0.4282
11246TIP3    H155229   1.611   1.735   5.009 -0.2605  1.6418  1.3884
11246TIP3    H255230   1.479   1.722   4.936  0.6232 -2.1717  0.2897
11247TIP3   OH255231   1.351   3.783   4.703  0.3248  0.2557 -0.0492
11247TIP3    H155232   1.393   3.713   4.652 -0.2417  1.0158 -1.6087
11247TIP3    H255233   1.290   3.737   4.760  0.0283 -0.5525 -0.9861
11248TIP3   OH255234   2.607   2.739  11.933 -0.0318  0.0827  0.1619
11248TIP3    H155235   2.620   2.716  12.025 -0.0905 -0.3635  0.0619
11248TIP3    H255236   2.643   2.827  11.925 -0.1699  0.1874  0.6497
11249TIP3   OH255237   0.049   0.188   0.639  0.0430 -0.0757  0.2584
11249TIP3    H155238   0.143   0.200   0.653  0.1537 -1.3550  0.7760
11249TIP3    H255239   0.007   0.247   0.702  0.3807  3.4223 -2.4800
11250TIP3   OH255240   6.015   1.553   1.256  0.3142  0.0214 -0.0019
11250TIP3    H155241   6.080   1.521   1.319  1.4130  1.1218 -0.5447
11250TIP3    H255242   6.043   1.642   1.235 -2.3696  1.2353  1.0965
11251TIP3   OH255243   1.629   0.982   4.998 -0.3005  0.7153 -0.2475
11251TIP3    H155244   1.624   0.904   5.053 -2.3245  0.6636 -0.4035
11251TIP3    H255245   1.712   0.973   4.951 -1.3336 -2.4396 -1.7785
11252TIP3   OH255246   2.619   0.824  13.494  0.1482 -0.5205  0.2956
11252TIP3    H155247   2.524   0.809  13.491  0.2222 -1.1269  0.6895
11252TIP3    H255248   2.641   0.861  13.409 -0.7179  1.3179  0.8339
11253TIP3   OH255249   5.878   0.678   1.177 -0.1991 -0.3402  0.0584
11253TIP3    H155250   5.961   0.631   1.170 -0.6424 -1.5079  1.8258
11253TIP3    H255251   5.839   0.671   1.090  1.5157  0.2312 -0.8112
11254TIP3   OH255252   1.060   2.280   1.945 -0.1539 -0.1500  0.1181
11254TIP3    H155253   1.150   2.304   1.920  0.4228 -1.7121  0.5622
11254TIP3    H255254   1.068   2.244   2.033 -1.2281 -0.2438  0.1911
11255TIP3   OH255255   0.821   0.083   6.300  0.3129 -0.0366  0.0091
11255TIP3    H155256   0.829   0.073   6.205 -1.2953 -0.1496 -0.1337
11255TIP3    H255257   0.894   0.142   6.323  0.1516  0.7991 -1.4340
11256TIP3   OH255258   5.064   1.394   5.722 -0.2150  0.2069 -0.3069
11256TIP3    H155259   5.143   1.348   5.747 -0.2320  0.7774  0.8884
11256TIP3    H255260   5.001   1.325   5.699 -0.1403 -0.3655  1.1274
11257TIP3   OH255261   5.268   2.014  12.769  0.1102 -0.0948  0.1058
11257TIP3    H155262   5.233   1.932  12.736  1.4797 -1.5328  2.0429
11257TIP3    H255263   5.261   2.007  12.864  2.6398  0.9046  0.4363
11258TIP3   OH255264   3.871   2.994  16.788 -0.3638 -0.2329  0.8663
11258TIP3    H155265   3.942   2.973  16.849 -1.8335 -1.6923  2.1601
11258TIP3    H255266   3.822   3.063  16.832 -0.5350 -0.1831  0.5975
11259TIP3   OH255267   3.839   3.087   2.672 -0.4522  0.5198 -0.0681
11259TIP3    H155268   3.785   3.165   2.682 -4.1476 -2.0073  3.2929
11259TIP3    H255269   3.799   3.039   2.599  0.8533  1.0111 -1.1437
11260TIP3   OH255270   4.845   4.239   2.956 -0.3054 -1.0258 -0.1169
11260TIP3    H155271   4.763   4.262   3.000  0.4071  0.2397  0.6265
11260TIP3    H255272   4.853   4.303   2.886  0.3141 -0.7778  0.1707
11261TIP3   OH255273   2.951   4.066   2.298 -0.1039  0.0425  0.5045
11261TIP3    H155274   2.900   4.017   2.233 -0.1171  1.6365 -0.7579
11261TIP3    H255275   2.941   4.016   2.379 -0.6581 -1.6544 -0.5435
11262TIP3   OH255276   4.049   1.335  16.711  0.4577  0.5402  0.3306
11262TIP3    H155277   4.109   1.409  16.715  2.3269 -0.9436  1.0634
11262TIP3    H255278   4.023   1.329  16.619  1.7309  0.9869 -0.0739
11263TIP3   OH255279   6.152   1.340  13.648  0.1048  0.1442  0.7316
11263TIP3    H155280   6.195   1.405  13.593  1.1446 -2.4981 -1.8513
11263TIP3    H255281   6.224   1.298  13.696 -0.3044 -0.3883  0.8875
11264TIP3   OH255282   5.212   3.232  11.460  0.5915  0.3138  0.3211
11264TIP3    H155283   5.198   3.140  11.438  1.6115  0.3193 -0.4227
11264TIP3    H255284   5.167   3.243  11.544 -1.5909 -0.2363 -0.7035
11265TIP3   OH255285   1.792   2.844  13.392 -0.6602 -0.0425 -0.2277
11265TIP3    H155286   1.721   2.898  13.428 -0.3393 -1.3962  2.7460
11265TIP3    H255287   1.752   2.758  13.380 -0.2128 -0.1127 -1.3182
11266TIP3   OH255288   4.435   0.580  10.604 -0.4065  0.1307 -0.0870
11266TIP3    H155289   4.528   0.559  10.610 -0.6475 -0.5731  2.6676
11266TIP3    H255290   4.390   0.499  10.629 -1.7980  0.3334 -1.7835
11267TIP3   OH255291   3.616   6.249  11.369  0.4732 -0.3994  0.1258
11267TIP3    H155292   3.667   6.258  11.449 -0.2955 -0.6653  0.6512
11267TIP3    H255293   3.590   6.338  11.347  0.6532 -0.3301  0.1937
11268TIP3   OH255294   1.515   2.054   1.824  0.4718  0.3227 -0.1234
11268TIP3    H155295   1.591   2.038   1.769  0.0989 -0.0488 -0.5435
11268TIP3    H255296   1.526   2.143   1.856  2.1507 -0.4103  1.5111
11269TIP3   OH255297   4.594   2.915   3.167  0.2509 -0.2211 -0.0180
11269TIP3    H155298   4.669   2.975   3.166  0.1453 -0.0845 -1.0567
11269TIP3    H255299   4.548   2.936   3.248  0.3485  0.9525 -0.2451
11270TIP3   OH255300   1.657   5.666  14.925 -0.2385  0.1421 -0.3930
11270TIP3    H155301   1.733   5.658  14.868  0.7780 -0.6095  1.0233
11270TIP3    H255302   1.625   5.755  14.909  0.8394  0.4202 -1.1211
11271TIP3   OH255303   5.913   6.558  16.141  0.3468  0.0134  0.2598
11271TIP3    H155304   5.956   6.642  16.161 -0.2976 -0.0000  1.8744
11271TIP3    H255305   5.952   6.497  16.203 -0.4060 -0.5010  0.2256
11272TIP3   OH255306   5.785   1.728  10.258  0.2005  0.5817 -0.1447
11272TIP3    H155307   5.729   1.798  10.292  0.2062  1.3744 -1.7071
11272TIP3    H255308   5.740   1.647  10.283 -1.0616  1.1782 -0.4080
11273TIP3   OH255309   4.364   5.723   1.140  0.4510 -0.0015  0.2995
11273TIP3    H155310   4.382   5.664   1.213  0.6415 -0.9089 -0.4495
11273TIP3    H255311   4.425   5.694   1.071 -0.1684  0.4000 -0.4318
11274TIP3   OH255312   3.690   1.269  14.960  0.2178  0.0392 -0.4660
11274TIP3    H155313   3.661   1.359  14.974 -0.6207 -0.4379  1.0386
11274TIP3    H255314   3.624   1.215  15.003  1.6588 -1.2292  0.2576
11275TIP3   OH255315   3.653   3.245   5.092 -0.0209  0.3123 -0.6366
11275TIP3    H155316   3.674   3.161   5.133  2.8064 -2.0225 -5.9166
11275TIP3    H255317   3.698   3.310   5.146  0.2435 -1.8671  1.9699
11276TIP3   OH255318   4.853   1.509   4.339  0.8150 -0.5108 -0.0650
11276TIP3    H155319   4.905   1.506   4.419  1.4261  2.1396 -0.2616
11276TIP3    H255320   4.913   1.478   4.271  0.5700 -1.9268  0.3187
11277TIP3   OH255321   4.421   4.554   5.750  0.8848 -0.1465 -0.1015
11277TIP3    H155322   4.429   4.647   5.774  1.8384 -0.3745  0.4779
11277TIP3    H255323   4.332   4.531   5.776  1.6797 -0.2459  2.8350
11278TIP3   OH255324   4.300   4.464  14.019  0.0959  0.7906 -0.5069
11278TIP3    H155325   4.209   4.494  14.026  0.0319  0.8685 -1.5211
11278TIP3    H255326   4.294   4.381  13.971  0.4434  0.0748  0.6454
11279TIP3   OH255327   4.427   3.959   4.793  0.2699  0.5663  0.4232
11279TIP3    H155328   4.354   3.902   4.818  0.7882 -1.0766 -1.5132
11279TIP3    H255329   4.387   4.045   4.781 -1.5294 -0.4228 -1.2126
11280TIP3   OH255330   5.153   0.331  11.399  0.4370  0.1484 -0.0346
11280TIP3    H155331   5.079   0.310  11.457  0.4086  0.1014 -0.0871
11280TIP3    H255332   5.116   0.389  11.333  0.0568 -1.1538 -1.0045
11281TIP3   OH255333   6.679   5.836   5.181 -0.1694 -0.4553  0.0135
11281TIP3    H155334   6.724   5.882   5.252 -2.6244  0.1254  1.3062
11281TIP3    H255335   6.656   5.751   5.218  0.0394 -0.8350 -0.7056
11282TIP3   OH255336   1.877   4.686   0.510  0.0898 -0.3713  0.5397
11282TIP3    H155337   1.936   4.731   0.571  0.8339 -0.6834  0.0649
11282TIP3    H255338   1.789   4.714   0.536  0.5402  1.6390  0.0369
11283TIP3   OH255339   2.205   0.617   1.808 -0.0099  0.5771  0.3462
11283TIP3    H155340   2.297   0.637   1.795 -0.5886  1.5157 -4.3748
11283TIP3    H255341   2.197   0.525   1.783 -0.4243  0.7323 -0.1139
11284TIP3   OH255342   3.790   6.677  16.645  0.0095 -0.2133  0.5106
11284TIP3    H155343   3.725   6.692  16.576 -1.4193  2.6023  2.2793
11284TIP3    H255344   3.750   6.610  16.700  1.0110 -2.2343 -1.1028
11285TIP3   OH255345   3.892   6.034  13.688 -0.5564  0.8559 -0.0257
11285TIP3    H155346   3.965   5.979  13.715 -1.8537 -0.9720  0.0066
11285TIP3    H255347   3.926   6.123  13.688  1.4626  0.1217  0.5873
11286TIP3   OH255348   0.098   5.011   3.525 -0.4680  0.4441 -0.4680
11286TIP3    H155349   0.172   4.978   3.474  0.0548  2.8637 -1.4090
11286TIP3    H255350   0.131   5.017   3.615  0.1717  0.6050 -0.7101
11287TIP3   OH255351   1.428   3.171   6.089  0.3911 -0.3108 -0.9902
11287TIP3    H155352   1.503   3.117   6.112  0.7426 -0.1949 -1.8507
11287TIP3    H255353   1.459   3.261   6.096  0.5195 -0.2709 -1.9215
11288TIP3   OH255354   3.535   6.755  12.176 -0.1463 -0.2868 -0.7901
11288TIP3    H155355   3.547   6.722  12.265 -2.0278  1.0062 -0.0011
11288TIP3    H255356   3.534   6.677  12.121  0.6823 -1.1294  0.3526
11289TIP3   OH255357   0.569   2.373  12.726 -0.1412  0.1982  0.0144
11289TIP3    H155358   0.536   2.384  12.637  1.2266  0.2983 -0.5065
11289TIP3    H255359   0.623   2.294  12.722  0.2873  0.4490  0.6504
11290TIP3   OH255360   4.841   0.116  16.991  0.1440 -0.0287 -0.2823
11290TIP3    H155361   4.923   0.164  16.985  0.2850 -0.4455 -3.9313
11290TIP3    H255362   4.773   0.183  16.991  0.3452  0.3189  2.7844
11291TIP3   OH255363   0.532   5.322  15.212 -0.4796 -0.3830 -0.0767
11291TIP3    H155364   0.626   5.318  15.230 -0.5897  0.4403  0.7741
11291TIP3    H255365   0.518   5.256  15.145  0.3107 -2.1693  1.4418
11292TIP3   OH255366   3.503   4.832  11.463 -0.5508  0.2707  0.0382
11292TIP3    H155367   3.469   4.743  11.464  1.8725 -0.7271  1.3709
11292TIP3    H255368   3.590   4.826  11.502 -0.0441  3.1385 -0.3662
11293TIP3   OH255369   3.427   5.323  16.662  0.4458  0.8131 -0.2948
11293TIP3    H155370   3.465   5.235  16.671 -0.9419  0.2967  0.9905
11293TIP3    H255371   3.502   5.381  16.653  1.3784 -0.6044 -2.4257
11294TIP3   OH255372   4.924   2.535   0.478 -0.2406 -0.3134  0.1763
11294TIP3    H155373   4.965   2.466   0.530 -1.2812 -0.3384  0.9819
11294TIP3    H255374   4.841   2.497   0.448 -0.9109  0.6250  0.7754
11295TIP3   OH255375   0.762   6.092   4.949 -0.4742 -0.6288 -0.2593
11295TIP3    H155376   0.756   6.023   4.883 -1.1299 -1.5320  0.6958
11295TIP3    H255377   0.856   6.099   4.968 -0.2400 -0.0485 -1.5757
11296TIP3   OH255378   0.363   2.847   3.502 -0.1067 -0.2831  0.0030
11296TIP3    H155379   0.322   2.766   3.470 -0.1162 -1.5692  2.9506
11296TIP3    H255380   0.290   2.908   3.511 -0.0802  0.2229 -2.3829
11297TIP3   OH255381   2.824   6.461   4.817  0.4249  0.3797 -0.1869
11297TIP3    H155382   2.756   6.430   4.758  0.2453  0.9764 -0.2919
11297TIP3    H255383   2.890   6.391   4.815  0.0774  0.0558 -0.5113
11298TIP3   OH255384   0.272   3.725   1.785  0.0614  0.3598 -0.5081
11298TIP3    H155385   0.340   3.770   1.834 -0.1290  0.1659 -0.0549
11298TIP3    H255386   0.212   3.795   1.758 -1.6120  0.1900  2.3645
11299TIP3   OH255387   2.802   1.790   2.422 -0.2847 -0.1527 -0.0036
11299TIP3    H155388   2.803   1.818   2.330 -0.8784 -1.6597 -0.4881
11299TIP3    H255389   2.710   1.777   2.442 -0.2644  1.2414  1.1895
11300TIP3   OH255390   3.087   4.175  11.697  0.5521  0.2810  0.3424
11300TIP3    H155391   2.999   4.193  11.665  1.3602  0.6309 -1.8366
11300TIP3    H255392   3.129   4.126  11.626  1.9940 -0.2375  1.5042
11301TIP3   OH255393   2.568   3.220  11.985  0.1741 -0.5572 -0.0495
11301TIP3    H155394   2.569   3.252  11.895  2.2884 -2.5555 -0.7989
11301TIP3    H255395   2.475   3.219  12.008 -0.3449  0.9966 -1.7805
11302TIP3   OH255396   1.139   0.192   2.794  0.2376 -0.0786  0.2689
11302TIP3    H155397   1.185   0.146   2.724 -0.7037 -0.1792 -0.2926
11302TIP3    H255398   1.196   0.265   2.816  0.8205 -0.3874 -0.1925
11303TIP3   OH255399   2.724   6.129   3.873 -0.0880 -0.4156  0.1154
11303TIP3    H155400   2.720   6.105   3.965  0.1193 -1.8114 -0.2213
11303TIP3    H255401   2.788   6.200   3.869  0.2542 -0.6718  0.9733
11304TIP3   OH255402   4.095   1.458  13.441 -0.3250 -0.3138  0.2377
11304TIP3    H155403   4.134   1.446  13.527  1.7301 -0.7200 -0.6904
11304TIP3    H255404   4.029   1.389  13.435 -1.3138  0.4171  1.8684
11305TIP3   OH255405   0.543   4.574   1.917 -0.0788  0.1684  0.2013
11305TIP3    H155406   0.565   4.496   1.968 -0.2539  0.6850  1.0863
11305TIP3    H255407   0.588   4.646   1.962 -1.1888  0.8063  0.3323
11306TIP3   OH255408   0.655   3.556  14.329  0.5539 -0.0668  0.1762
11306TIP3    H155409   0.671   3.489  14.395  1.1923 -0.1378 -0.0411
11306TIP3    H255410   0.725   3.544  14.265  1.0660  1.2131  0.4516
11307TIP3   OH255411   5.081   4.021   1.767  0.1587  0.2360  0.0569
11307TIP3    H155412   5.101   3.932   1.737  1.9541  0.3932  0.6779
11307TIP3    H255413   5.157   4.072   1.739 -1.0114  1.6698 -0.6058
11308TIP3   OH255414   1.892   0.941  16.459 -0.6367  0.0177 -0.0991
11308TIP3    H155415   1.935   0.932  16.374  0.5278  0.8989  0.3689
11308TIP3    H255416   1.841   1.022  16.452 -1.3606 -0.4437 -0.2829
11309TIP3   OH255417   2.906   5.864  14.412  0.0025  0.1686  0.1643
11309TIP3    H155418   3.001   5.866  14.413  0.1194 -0.4791 -2.4458
11309TIP3    H255419   2.880   5.951  14.382 -0.2036  0.0497 -0.0055
11310TIP3   OH255420   4.712   1.478   0.585  0.2434  0.0217  0.1510
11310TIP3    H155421   4.780   1.490   0.651 -0.4754 -0.5316  1.0181
11310TIP3    H255422   4.667   1.562   0.581 -2.2064 -0.9128  3.2828
11311TIP3   OH255423   3.582   1.244  17.228 -0.1429  0.3053 -0.8067
11311TIP3    H155424   3.646   1.204  17.287  0.5130 -0.2396 -1.8650
11311TIP3    H255425   3.633   1.308  17.178 -0.3676 -0.3393 -1.8614
11312TIP3   OH255426   4.429   4.343   1.160  0.2146 -0.2798  0.4361
11312TIP3    H155427   4.491   4.401   1.117  0.3213 -1.2663 -0.7847
11312TIP3    H255428   4.349   4.350   1.108  0.2681 -1.3034  0.2053
11313TIP3   OH255429   4.050   2.038   1.192  0.1250 -0.5394 -0.1737
11313TIP3    H155430   3.960   2.072   1.197  0.4312  0.1319  1.6768
11313TIP3    H255431   4.042   1.959   1.139 -1.3872  0.0315 -0.8720
11314TIP3   OH255432   1.232   6.769  13.225  0.3497  0.1936  0.5780
11314TIP3    H155433   1.324   6.744  13.236  0.5892  0.1576 -1.1609
11314TIP3    H255434   1.195   6.700  13.169 -0.5599  0.5806  0.6775
11315TIP3   OH255435   2.019   5.154   4.769  0.0041 -0.1655 -0.4183
11315TIP3    H155436   2.003   5.180   4.678 -0.3294 -0.7820 -0.5428
11315TIP3    H255437   1.973   5.220   4.821 -1.4158 -0.8495 -0.7447
11316TIP3   OH255438   6.376   0.719  14.492 -0.1403  0.3353  1.1201
11316TIP3    H155439   6.388   0.655  14.562 -0.8566 -1.1841 -0.0785
11316TIP3    H255440   6.282   0.717  14.473  0.1417  0.0925 -0.4082
11317TIP3   OH255441   4.043   2.013   1.745 -0.1735  0.5188  0.1409
11317TIP3    H155442   4.064   2.099   1.783  0.7235 -0.0874  1.0818
11317TIP3    H255443   4.008   1.962   1.818 -1.2197  0.2408 -0.5363
11318TIP3   OH255444   6.712   4.842  12.424  0.7193  0.3005  0.8043
11318TIP3    H155445   6.717   4.848  12.520 -0.4196  0.4327  0.8664
11318TIP3    H255446   6.671   4.924  12.397 -2.3974 -1.1973  0.5409
11319TIP3   OH255447   1.395   1.994  12.548  0.2335 -0.4620 -0.7869
11319TIP3    H155448   1.475   1.945  12.565 -0.3244 -0.6934  1.4902
11319TIP3    H255449   1.409   2.033  12.461  2.6215 -0.8138 -0.6359
11320TIP3   OH255450   1.217   0.455  12.283  0.1919 -0.3433  0.2142
11320TIP3    H155451   1.218   0.546  12.312  0.5097 -0.6687  1.2879
11320TIP3    H255452   1.220   0.460  12.188 -0.5280  0.7784  0.2312
11321TIP3   OH255453   5.467   2.423  15.834 -0.2502  0.3836 -0.1156
11321TIP3    H155454   5.476   2.514  15.864  0.0764  0.2116  0.3041
11321TIP3    H255455   5.466   2.430  15.738 -0.5233  0.8580 -0.0841
11322TIP3   OH255456   1.695   0.562   2.339  0.2639  0.2874 -0.0570
11322TIP3    H155457   1.601   0.566   2.320  0.3689  0.4752 -0.5254
11322TIP3    H255458   1.701   0.503   2.415 -0.1117 -0.7303 -0.7951
11323TIP3   OH255459   4.960   4.175   1.033 -0.0715  0.2279  0.0237
11323TIP3    H155460   4.876   4.141   1.003  0.2436 -0.9427  0.4283
11323TIP3    H255461   4.979   4.248   0.973  0.1285 -1.4629 -2.0734
11324TIP3   OH255462   0.882   5.048  12.582  0.1593 -0.0416 -0.1907
11324TIP3    H155463   0.959   5.078  12.535 -0.3228 -0.8957 -1.5882
11324TIP3    H255464   0.885   5.094  12.666  1.1143  1.4298 -0.9950
11325TIP3   OH255465   0.398   4.276  11.799  0.2048 -0.3832  0.3760
11325TIP3    H155466   0.462   4.347  11.800 -0.5008  0.2749  1.4925
11325TIP3    H255467   0.342   4.294  11.723 -0.2508  0.5375  0.9142
11326TIP3   OH255468   3.685   0.741   5.750 -0.7649 -0.7503 -0.0624
11326TIP3    H155469   3.718   0.779   5.669 -0.1427  1.3577  1.1209
11326TIP3    H255470   3.646   0.814   5.798  0.0280 -1.6498  2.1166
11327TIP3   OH255471   6.243   0.369  12.200 -0.3807 -0.2133  0.4212
11327TIP3    H155472   6.188   0.441  12.232 -0.5517  0.2657 -0.8774
11327TIP3    H255473   6.328   0.408  12.183 -0.4264 -0.3372 -0.1369
11328TIP3   OH255474   5.447   3.005  12.422 -0.3651 -0.1454 -0.6120
11328TIP3    H155475   5.532   3.039  12.451 -1.9543  1.8594  2.1674
11328TIP3    H255476   5.440   2.919  12.463 -1.0269  1.1412  2.2095
11329TIP3   OH255477   2.771   3.819   3.151  0.4014 -0.4350  0.2741
11329TIP3    H155478   2.683   3.790   3.174  0.3066  0.1492  0.6811
11329TIP3    H255479   2.809   3.848   3.233  0.7892 -0.2052  0.0189
11330TIP3   OH255480   1.588   6.588  15.964  1.1207  0.0725  0.1597
11330TIP3    H155481   1.568   6.555  15.876 -0.9321 -0.5521  0.8062
11330TIP3    H255482   1.625   6.513  16.010  4.9092  1.0936 -0.8786
11331TIP3   OH255483   2.882   4.407  16.922 -0.2037 -1.0799 -0.2842
11331TIP3    H155484   2.932   4.371  16.995  0.5675  1.0656  0.3207
11331TIP3    H255485   2.859   4.331  16.869 -1.5027 -2.8208  2.5796
11332TIP3   OH255486   4.354   4.180   1.495  0.0801 -0.4938  0.9958
11332TIP3    H155487   4.350   4.248   1.427  0.3966  0.9024  2.2945
11332TIP3    H255488   4.301   4.109   1.461 -2.4487  1.4141  0.6267
11333TIP3   OH255489   5.072   5.691   0.732 -0.7674 -0.3281 -0.2718
11333TIP3    H155490   5.013   5.689   0.656  0.9620  0.9949 -1.7421
11333TIP3    H255491   5.158   5.669   0.697 -0.2770 -2.1326  1.8052
11334TIP3   OH255492   6.147   0.183   0.027  0.3715 -0.3840 -0.4278
11334TIP3    H155493   6.190   0.257  -0.016  1.7087 -0.6967  0.3324
11334TIP3    H255494   6.054   0.203   0.021  0.6420  0.6362 -1.5357
11335TIP3   OH255495   5.641   2.222  15.921 -0.5922  0.1726 -0.4392
11335TIP3    H155496   5.696   2.211  15.998 -2.1696 -2.8131  0.4056
11335TIP3    H255497   5.600   2.308  15.932 -2.1036 -0.8497  3.0283
11336TIP3   OH255498   2.442   4.751  11.983 -0.9150  0.2135  0.5871
11336TIP3    H155499   2.398   4.669  11.959 -0.1208 -0.5115  1.5317
11336TIP3    H255500   2.393   4.819  11.936 -2.0163 -0.7271  0.3230
11337TIP3   OH255501   4.124   3.015   5.669 -0.1438 -0.4724 -0.0297
11337TIP3    H155502   4.034   3.037   5.693  0.2321 -0.9081  2.0567
11337TIP3    H255503   4.174   3.095   5.686 -0.0202 -0.4671 -0.4147
11338TIP3   OH255504   3.747   2.832  15.410 -0.0614  0.1292  0.5174
11338TIP3    H155505   3.665   2.837  15.361 -0.9686  0.8461  2.0344
11338TIP3    H255506   3.745   2.746  15.451  0.1349 -0.0025  0.2538
11339TIP3   OH255507   1.287   5.304  14.140  0.2533 -0.1758  0.1621
11339TIP3    H155508   1.272   5.397  14.156 -1.3465 -0.6300  1.5944
11339TIP3    H255509   1.380   5.291  14.158  0.6703  1.2518 -0.7783
11340TIP3   OH255510   6.756   4.699  15.109  0.0587 -0.6549  0.0452
11340TIP3    H155511   6.677   4.751  15.128  0.0646 -0.7157  0.2391
11340TIP3    H255512   6.823   4.764  15.090  0.0176 -0.5962  0.0984
11341TIP3   OH255513   2.887   4.613  14.484  0.8283  0.1599  0.1815
11341TIP3    H155514   2.906   4.591  14.393 -1.8777  0.1612 -0.4885
11341TIP3    H255515   2.880   4.709  14.484  0.0918  0.1156  0.1806
11342TIP3   OH255516   0.622   6.378   3.283 -0.0667  0.1452  0.4108
11342TIP3    H155517   0.547   6.385   3.343  0.3202  1.6809  0.7735
11342TIP3    H255518   0.698   6.399   3.338  0.5656 -0.7520 -0.1028
11343TIP3   OH255519   2.348   0.260   2.719  0.4035  0.2953 -0.0175
11343TIP3    H155520   2.418   0.198   2.737  0.5012 -0.4412 -2.4954
11343TIP3    H255521   2.388   0.346   2.729  1.0711 -0.0785  0.6011
11344TIP3   OH255522   6.490   4.519   2.645 -0.2339  0.1753 -0.0210
11344TIP3    H155523   6.538   4.572   2.581 -0.0918 -0.1730 -0.2053
11344TIP3    H255524   6.419   4.479   2.594 -0.5203  0.4253  0.1810
11345TIP3   OH255525   1.098   5.331  10.902 -1.0882 -0.3017  0.1502
11345TIP3    H155526   1.181   5.303  10.940 -1.3912  1.1682  2.0611
11345TIP3    H255527   1.041   5.345  10.978 -1.8759  2.4141 -0.8378
11346TIP3   OH255528   0.023   0.745  15.497 -0.0020  0.5946 -0.1478
11346TIP3    H155529   0.004   0.743  15.590  0.3204 -3.4422  0.0126
11346TIP3    H255530  -0.060   0.722  15.455 -0.0641  2.0569 -0.9113
11347TIP3   OH255531   6.558   4.200   4.001  0.0479 -0.5736 -0.3157
11347TIP3    H155532   6.642   4.158   4.022 -0.4945 -0.8758  1.3843
11347TIP3    H255533   6.581   4.269   3.940  1.3858 -1.3560 -0.7439
11348TIP3   OH255534   1.875   3.041   1.371 -0.2842 -0.6140 -0.3316
11348TIP3    H155535   1.787   3.076   1.353  0.4670  0.6175 -1.9482
11348TIP3    H255536   1.906   3.010   1.286  0.4447 -2.0690  0.4282
11349TIP3   OH255537   6.231   1.715  13.010 -0.1716  0.7462 -0.2621
11349TIP3    H155538   6.186   1.686  12.931  2.6649  0.4822 -1.9429
11349TIP3    H255539   6.162   1.723  13.076 -2.2736 -1.9739 -1.9058
11350TIP3   OH255540   1.509   5.782   2.910 -0.1516  0.3899  0.2488
11350TIP3    H155541   1.580   5.816   2.964  0.2549  1.0639 -0.7036
11350TIP3    H255542   1.481   5.702   2.956  0.6589  0.5612  1.0664
11351TIP3   OH255543   4.229   0.592   3.904  0.3905 -0.1142  0.2641
11351TIP3    H155544   4.240   0.509   3.949 -0.5255  0.3075  1.3137
11351TIP3    H255545   4.166   0.640   3.958  0.2969  0.9413 -0.7532
11352TIP3   OH255546   4.247   2.413  15.058  0.3746 -0.5863 -0.0791
11352TIP3    H155547   4.318   2.364  15.098 -0.2076 -0.8424  0.6697
11352TIP3    H255548   4.216   2.472  15.127  0.0376 -0.2815 -0.4805
11353TIP3   OH255549   0.340   1.402   4.184 -0.2993 -0.3453 -0.6797
11353TIP3    H155550   0.375   1.391   4.273 -1.3526  1.9155  0.0688
11353TIP3    H255551   0.418   1.415   4.130  0.2978 -0.5954  0.0978
11354TIP3   OH255552   0.715   2.305  16.483 -0.4445  0.5543 -0.3690
11354TIP3    H155553   0.709   2.288  16.577 -0.9856  1.8852 -0.1359
11354TIP3    H255554   0.640   2.261  16.446 -0.5804  0.5479 -0.0898
11355TIP3   OH255555   0.678   1.144   0.098 -0.2949 -0.2786  0.0565
11355TIP3    H155556   0.610   1.087   0.062 -1.7394  0.5245  1.3609
11355TIP3    H255557   0.629   1.220   0.131  1.3964  0.9514 -0.1744
11356TIP3   OH255558   1.174   1.519  16.507  0.0829 -0.1875  0.0266
11356TIP3    H155559   1.213   1.602  16.481  0.6311 -0.0484  1.2266
11356TIP3    H255560   1.185   1.516  16.602  0.0610 -1.6219  0.0091
11357TIP3   OH255561   6.431   3.996   4.392  0.8646 -0.4776 -0.1118
11357TIP3    H155562   6.402   3.911   4.426  0.2044  0.2774  1.2979
11357TIP3    H255563   6.353   4.032   4.350  0.7695 -0.0121  0.4571
11358TIP3   OH255564   5.933   6.090   5.666  0.4502 -0.5166 -1.0397
11358TIP3    H155565   5.939   6.002   5.628 -0.8541 -1.5053  0.8852
11358TIP3    H255566   5.994   6.089   5.740 -0.7761 -0.4082  0.0046
11359TIP3   OH255567   4.176   5.489  15.624 -0.3641 -0.2650 -0.0067
11359TIP3    H155568   4.101   5.545  15.646 -1.0189 -1.4668  0.9611
11359TIP3    H255569   4.136   5.406  15.599  0.6540 -1.0834  0.9891
11360TIP3   OH255570   1.990   1.135   3.056  0.0142 -0.1026 -0.1078
11360TIP3    H155571   2.016   1.044   3.044  2.5455  0.5179  0.0917
11360TIP3    H255572   2.069   1.186   3.036 -1.2609  2.0517 -0.0208
11361TIP3   OH255573   5.201   6.385   1.542  0.0701 -0.1416 -0.1369
11361TIP3    H155574   5.108   6.364   1.531 -0.0173  0.4367 -0.5855
11361TIP3    H255575   5.225   6.347   1.626 -0.0899 -1.9371 -0.8522
11362TIP3   OH255576   4.665   3.284  17.248 -0.0589 -0.3734 -0.2353
11362TIP3    H155577   4.630   3.310  17.333 -1.8545 -0.7345 -0.8166
11362TIP3    H255578   4.760   3.294  17.257 -0.0842 -1.6015  2.1902
11363TIP3   OH255579   5.755   1.777  16.576 -0.2481  0.1083  0.2472
11363TIP3    H155580   5.805   1.778  16.657 -0.6631 -2.0212  0.5855
11363TIP3    H255581   5.731   1.685  16.563 -4.1720  0.9736  0.1635
11364TIP3   OH255582   3.555   0.095  12.759 -0.3804  0.1202 -0.1322
11364TIP3    H155583   3.632   0.071  12.707 -0.9641 -0.5109 -0.7072
11364TIP3    H255584   3.582   0.176  12.804  0.4487  0.1747 -0.7000
11365TIP3   OH255585   6.234   5.635  13.091  0.4467  0.2089 -0.0217
11365TIP3    H155586   6.328   5.616  13.100  0.1037 -1.2825  0.8171
11365TIP3    H255587   6.231   5.717  13.042  2.0986 -1.9673 -4.2449
11366TIP3   OH255588   5.604   2.136  10.949  0.4053 -0.2926  0.6753
11366TIP3    H155589   5.550   2.066  10.986 -0.1727 -1.2794 -1.8293
11366TIP3    H255590   5.551   2.171  10.878  2.0612  0.4328 -0.2360
11367TIP3   OH255591   3.744   3.810  16.455 -0.0144  0.1144 -0.6491
11367TIP3    H155592   3.696   3.731  16.432 -0.8594  0.1525  0.8508
11367TIP3    H255593   3.813   3.781  16.514 -0.2531  0.4748 -0.1876
11368TIP3   OH255594   3.445   1.105  16.993 -0.2199  0.4879 -0.0502
11368TIP3    H155595   3.402   1.191  16.991  1.4291  1.4215  1.6569
11368TIP3    H255596   3.455   1.085  17.086 -0.4942 -1.5455 -0.4120
11369TIP3   OH255597   3.348   1.819   2.972  0.3290  0.0266 -0.5988
11369TIP3    H155598   3.363   1.742   2.918  2.9017 -1.1673  1.6063
11369TIP3    H255599   3.430   1.868   2.967  0.4733  0.1231  1.7757
11370TIP3   OH255600   3.892   6.008   2.677 -0.4798 -0.3456  0.0117
11370TIP3    H155601   3.923   6.099   2.679  1.1521 -0.8891  1.5963
11370TIP3    H255602   3.960   5.958   2.721 -2.5482 -1.9647  1.5952
11371TIP3   OH255603   6.781   5.665   3.193  0.5791 -0.1691 -0.5910
11371TIP3    H155604   6.746   5.576   3.187  1.3632 -0.5873  0.7533
11371TIP3    H255605   6.868   5.654   3.231 -0.2740  1.3375  2.0402
11372TIP3   OH255606   4.174   3.684  16.723  0.1005 -0.2925 -0.4794
11372TIP3    H155607   4.206   3.637  16.646 -1.2667 -2.0714 -0.0224
11372TIP3    H255608   4.214   3.641  16.798  1.8063  1.7387 -0.1214
11373TIP3   OH255609   4.764   5.864   1.244  0.7545  0.3690  0.0801
11373TIP3    H155610   4.670   5.871   1.258  0.9811  1.5542  1.2425
11373TIP3    H255611   4.777   5.887   1.152  0.0522  2.0888  0.3698
11374TIP3   OH255612   4.734   2.613   5.024  0.0339  0.0324  0.3776
11374TIP3    H155613   4.707   2.657   4.943  2.5092 -3.0305 -2.3986
11374TIP3    H255614   4.827   2.635   5.033  0.3075 -1.3387  1.1507
11375TIP3   OH255615   5.245   6.711  11.143  0.1800 -0.0153 -0.1248
11375TIP3    H155616   5.233   6.745  11.232 -0.1301  1.4262 -0.6859
11375TIP3    H255617   5.287   6.626  11.155  1.8457  0.9614  1.3384
11376TIP3   OH255618   4.012   2.859  15.821  0.0067  0.3156  0.0971
11376TIP3    H155619   4.039   2.948  15.801  0.4893  0.2393  0.3880
11376TIP3    H255620   4.056   2.804  15.756 -1.4408  0.4139 -0.9929
11377TIP3   OH255621   1.151   4.448   2.007  0.2009 -0.6045 -0.0224
11377TIP3    H155622   1.116   4.359   2.005 -0.4634 -0.4428  2.0266
11377TIP3    H255623   1.087   4.500   1.959 -1.3136 -0.6972  1.7664
11378TIP3   OH255624   0.842   2.241  13.925 -0.5200  0.3463  0.6621
11378TIP3    H155625   0.878   2.213  13.841  1.2037  2.3021  0.6737
11378TIP3    H255626   0.747   2.239  13.912 -0.3129 -0.3136 -1.0008
11379TIP3   OH255627   4.164   1.091  16.636 -0.1020  0.1181 -0.1903
11379TIP3    H155628   4.229   1.065  16.702 -0.0787  1.4534  0.3435
11379TIP3    H255629   4.132   1.176  16.666 -1.9192 -0.3799 -0.5869
11380TIP3   OH255630   4.411   0.527   0.864  0.1458  0.1023  0.3771
11380TIP3    H155631   4.376   0.522   0.775 -1.8005  1.3817  0.9917
11380TIP3    H255632   4.350   0.475   0.916 -0.6063  1.8906  1.3967
11381TIP3   OH255633   6.677   2.899  14.689 -0.6214  0.0586 -0.1974
11381TIP3    H155634   6.631   2.839  14.630 -1.1138  1.5898 -1.4357
11381TIP3    H255635   6.683   2.981  14.640  2.4137  0.2902  0.3740
11382TIP3   OH255636   5.756   3.541  16.824 -0.0305 -0.0908  0.1869
11382TIP3    H155637   5.662   3.523  16.824  0.0432 -0.5445 -0.5120
11382TIP3    H255638   5.784   3.527  16.914 -0.2170 -2.3650 -0.0431
11383TIP3   OH255639   3.403   6.518   6.090 -0.2586 -0.1354 -0.9699
11383TIP3    H155640   3.429   6.470   6.011  0.1504 -0.7550 -0.4645
11383TIP3    H255641   3.482   6.564   6.117 -0.9269  1.8074 -2.1052
11384TIP3   OH255642   3.500   4.595   2.500  0.5812  0.3468 -0.3379
11384TIP3    H155643   3.411   4.583   2.534  1.2160  2.6038  2.5357
11384TIP3    H255644   3.489   4.652   2.424 -0.4685 -0.5867 -0.9352
11385TIP3   OH255645   5.268   2.282   4.873  0.5328 -0.1929  0.5570
11385TIP3    H155646   5.314   2.323   4.947  1.4833 -0.7514  0.2900
11385TIP3    H255647   5.305   2.324   4.796  0.2548 -0.3119  0.3587
11386TIP3   OH255648   0.007   4.575  11.065  0.3391  0.0248 -0.1628
11386TIP3    H155649  -0.079   4.548  11.097 -0.4926  0.8841 -1.5564
11386TIP3    H255650   0.017   4.665  11.095 -0.5162  0.8948 -2.2903
11387TIP3   OH255651   0.379   1.404  14.784  0.1434 -0.4228 -0.4258
11387TIP3    H155652   0.446   1.464  14.816 -1.5653 -0.3148  3.5548
11387TIP3    H255653   0.413   1.372  14.700  2.8741  3.1539 -0.9415
11388TIP3   OH255654   1.672   5.159   3.432 -0.2026 -0.2993 -0.6522
11388TIP3    H155655   1.663   5.233   3.491  0.0490  0.8819 -2.0467
11388TIP3    H255656   1.713   5.195   3.353 -1.2135 -1.6556 -1.8546
11389TIP3   OH255657   6.648   3.156  13.524  0.0650  0.0823  0.3090
11389TIP3    H155658   6.558   3.167  13.495  0.1017 -0.2024  0.0797
11389TIP3    H255659   6.652   3.200  13.609 -0.5106 -0.6464  0.7213
11390TIP3   OH255660   2.589   6.708   2.505 -0.5538  0.3496 -0.0795
11390TIP3    H155661   2.683   6.693   2.515 -0.4937  0.6598 -0.1849
11390TIP3    H255662   2.557   6.629   2.462 -0.2487  0.4770 -0.5467
11391TIP3   OH255663   5.666   6.512   0.636  0.3458  0.1514 -0.2471
11391TIP3    H155664   5.627   6.463   0.563 -1.2576  0.4741  0.3493
11391TIP3    H255665   5.670   6.448   0.707  1.8730 -0.1518 -0.5592
11392TIP3   OH255666   3.878   6.397   1.680 -0.0089  0.1090 -0.1403
11392TIP3    H155667   3.880   6.480   1.727 -2.5065 -0.7081  1.6058
11392TIP3    H255668   3.813   6.410   1.611  0.0554 -0.2228 -0.2669
11393TIP3   OH255669   1.533   6.699   3.001  0.4335 -0.2714  0.1832
11393TIP3    H155670   1.493   6.612   3.005  1.2302 -0.6400  0.3733
11393TIP3    H255671   1.506   6.734   2.916 -1.5930  0.1558  0.9578
11394TIP3   OH255672   1.572   4.549  14.954 -0.4455 -0.8646  0.3495
11394TIP3    H155673   1.478   4.547  14.972 -0.5419 -0.9466 -0.1416
11394TIP3    H255674   1.579   4.528  14.861  0.0330 -0.4494  0.2868
11395TIP3   OH255675   6.664   4.636   3.584  0.1315  0.1995  0.1783
11395TIP3    H155676   6.720   4.578   3.532  0.4066 -0.0865  0.7838
11395TIP3    H255677   6.722   4.672   3.650 -0.5315 -0.6329  1.2453
11396TIP3   OH255678   6.170   3.996   0.088 -0.5354 -0.9536  0.0914
11396TIP3    H155679   6.119   4.051   0.148  1.8325  0.9397  0.4705
11396TIP3    H255680   6.169   3.909   0.130 -0.5798 -0.1394  1.8833
11397TIP3   OH255681   1.887   3.172  17.232  0.5261 -0.4628  0.7913
11397TIP3    H155682   1.917   3.082  17.220 -0.4918 -0.4679 -2.7774
11397TIP3    H255683   1.793   3.169  17.212  0.1187  1.1597  2.2015
11398TIP3   OH255684   5.485   2.936   2.000  0.5437 -0.1419 -0.2906
11398TIP3    H155685   5.480   3.031   1.989  0.2398 -0.1979 -0.6270
11398TIP3    H255686   5.566   2.911   1.956 -0.3146 -0.2783 -1.8363
11399TIP3   OH255687   1.061   4.371  12.076  0.5815 -0.1490 -0.5263
11399TIP3    H155688   1.084   4.432  12.006 -0.5780  0.6569 -0.2312
11399TIP3    H255689   1.118   4.296  12.062  0.9901  0.3751 -1.8025
11400TIP3   OH255690   3.192   2.622  15.476  0.0644  0.0737 -0.1443
11400TIP3    H155691   3.262   2.624  15.411 -0.8521 -0.2074 -1.1714
11400TIP3    H255692   3.231   2.579  15.552  0.7047 -1.0899 -1.0972
11401TIP3   OH255693   0.147   4.713  16.016  0.3037  0.4561 -0.2809
11401TIP3    H155694   0.208   4.717  16.089  0.4865  1.4425 -0.4741
11401TIP3    H255695   0.072   4.765  16.044 -0.4878 -0.7699 -0.0314
11402TIP3   OH255696   3.933   2.511  14.410 -1.0228  0.5157  0.3239
11402TIP3    H155697   3.848   2.494  14.369  0.5640 -0.1061 -3.1327
11402TIP3    H255698   3.970   2.583  14.359  1.2191 -0.4219  0.4984
11403TIP3   OH255699   4.227   1.354  17.062  0.3578 -0.0903  0.0500
11403TIP3    H155700   4.193   1.298  17.133 -0.9817  0.4507 -0.1385
11403TIP3    H255701   4.310   1.312  17.037 -0.2785 -1.6237  0.3592
11404TIP3   OH255702   5.138   2.731  12.285 -0.5177  0.1795 -0.0722
11404TIP3    H155703   5.068   2.746  12.221 -1.7712  0.1498  1.2515
11404TIP3    H255704   5.204   2.797  12.264 -1.7575  1.4149 -0.2148
11405TIP3   OH255705   0.100   4.193  12.946  0.0649  0.4073  0.0000
11405TIP3    H155706   0.105   4.254  12.873 -0.3846 -0.4244 -0.7459
11405TIP3    H255707   0.049   4.119  12.912 -1.3725  0.6201  1.6015
11406TIP3   OH255708   2.797   0.956   1.364 -0.4383 -0.4194 -0.9037
11406TIP3    H155709   2.786   0.991   1.276  1.0714  1.6584 -0.3520
11406TIP3    H255710   2.886   0.983   1.389 -1.3354  0.3032  1.7751
11407TIP3   OH255711   1.257   5.234  14.736 -0.3516  0.2070  0.1142
11407TIP3    H155712   1.320   5.299  14.704 -0.7908  0.3522 -0.4884
11407TIP3    H255713   1.288   5.151  14.699 -0.3091  0.2207  0.1189
11408TIP3   OH255714   0.477   1.378  15.209  0.3591  0.0402 -0.4981
11408TIP3    H155715   0.407   1.343  15.153 -0.4277  0.6829  0.0475
11408TIP3    H255716   0.488   1.468  15.180 -0.0739  0.3909  0.3660
11409TIP3   OH255717   0.213   2.839   6.227 -0.1268 -0.1511  0.3451
11409TIP3    H155718   0.152   2.793   6.284  0.6338  0.8102  2.0228
11409TIP3    H255719   0.295   2.792   6.237 -0.1279 -0.3273 -0.4354
11410TIP3   OH255720   1.895   3.862   4.856 -0.5942 -0.0588  0.0614
11410TIP3    H155721   1.931   3.775   4.844 -2.1616 -0.9782  1.5690
11410TIP3    H255722   1.950   3.901   4.925  0.2936  0.2958 -0.8215
11411TIP3   OH255723   3.300   0.596   4.695  0.0601  0.0790  0.1449
11411TIP3    H155724   3.325   0.679   4.734  0.8249  0.5102 -1.2018
11411TIP3    H255725   3.205   0.602   4.683  0.1955  1.0501 -0.5610
11412TIP3   OH255726   0.956   3.582  14.852 -0.1664  0.6225 -0.3341
11412TIP3    H155727   0.974   3.667  14.813 -0.5180 -0.2605 -2.5481
11412TIP3    H255728   0.913   3.531  14.783  0.9676 -1.7068  0.5414
11413TIP3   OH255729   1.034   2.402  15.969 -0.3816 -0.4372 -0.1071
11413TIP3    H155730   0.945   2.380  15.996 -0.0844 -0.8722  0.5795
11413TIP3    H255731   1.063   2.467  16.033 -0.6684  0.7322 -1.1352
11414TIP3   OH255732   2.247   3.789  12.148 -0.1054  0.0104 -0.1610
11414TIP3    H155733   2.328   3.835  12.128 -1.0961  0.4381 -3.7258
11414TIP3    H255734   2.266   3.697  12.128 -0.4127  0.0837 -0.8182
11415TIP3   OH255735   0.188   5.782   5.595  0.1911  0.0032  0.1704
11415TIP3    H155736   0.140   5.817   5.520  1.0167 -0.0223 -0.3761
11415TIP3    H255737   0.222   5.698   5.565 -0.3046 -0.4684  0.9039
11416TIP3   OH255738   4.398   1.791   4.457 -0.6734 -0.3830  0.0668
11416TIP3    H155739   4.339   1.779   4.382  1.5633  0.6981 -2.0070
11416TIP3    H255740   4.484   1.764   4.424  0.6152  1.2729  1.8593
11417TIP3   OH255741   1.038   2.628   2.566  0.3453  0.4254  0.5315
11417TIP3    H155742   1.039   2.572   2.488  0.6027  0.1239  0.7506
11417TIP3    H255743   1.130   2.652   2.578  0.2906  0.5534  0.6848
11418TIP3   OH255744   5.102   6.486   2.370 -1.1595  0.6061  0.5396
11418TIP3    H155745   5.166   6.533   2.317 -0.5813  0.4957  1.1287
11418TIP3    H255746   5.097   6.399   2.330 -1.4906  0.8496  0.0485
11419TIP3   OH255747   5.169   1.244   3.182 -0.0222  0.0564 -1.0417
11419TIP3    H155748   5.157   1.152   3.157 -1.9096  0.3095 -1.1794
11419TIP3    H255749   5.254   1.246   3.226 -0.6815 -2.0830  0.4743
11420TIP3   OH255750   3.519   1.142   0.335 -0.5341  0.3089  0.0979
11420TIP3    H155751   3.471   1.132   0.252 -0.7126  1.2003  0.0770
11420TIP3    H255752   3.556   1.056   0.352 -0.5119  0.1030 -0.9036
11421TIP3   OH255753   4.009   0.333   3.214  0.5726  0.1748 -0.0533
11421TIP3    H155754   3.962   0.415   3.201 -0.2279 -0.2941 -0.1436
11421TIP3    H255755   4.099   0.360   3.233  1.4809  1.0461 -4.3924
11422TIP3   OH255756   5.029   1.204  11.622 -0.1423 -0.3393 -0.6503
11422TIP3    H155757   5.092   1.132  11.624  1.1990  0.7871 -1.0711
11422TIP3    H255758   4.979   1.189  11.542 -1.5066 -2.0962  0.4543
11423TIP3   OH255759   1.155   5.301   5.424 -0.3151 -0.3172 -0.1303
11423TIP3    H155760   1.118   5.238   5.487 -0.2454  0.2272  0.4611
11423TIP3    H255761   1.079   5.350   5.393 -0.3693 -0.6788 -0.5937
11424TIP3   OH255762   3.584   1.366  15.422 -0.1038  0.1536 -0.0855
11424TIP3    H155763   3.590   1.395  15.331 -1.0448  0.4067 -0.0839
11424TIP3    H255764   3.558   1.445  15.471  0.2547 -0.0124  0.3864
11425TIP3   OH255765   0.208   4.080   3.184 -0.0004 -0.6555  0.2586
11425TIP3    H155766   0.257   4.125   3.114 -2.7533  1.3677 -0.5578
11425TIP3    H255767   0.156   4.014   3.138 -0.4047 -0.6087  0.6459
11426TIP3   OH255768   4.751   4.441   4.078  0.0340 -0.4241  0.2200
11426TIP3    H155769   4.671   4.415   4.123  0.2676 -1.9295 -0.2010
11426TIP3    H255770   4.815   4.453   4.148  0.2225 -2.1188  0.3821
11427TIP3   OH255771   3.085   6.683   2.501  0.1517 -0.0322  0.7228
11427TIP3    H155772   3.138   6.719   2.571  0.9799  0.7773 -0.2952
11427TIP3    H255773   3.124   6.716   2.421 -1.4817  0.0274 -0.0980
11428TIP3   OH255774   5.019   5.535   2.574 -0.2078 -0.3009 -0.3941
11428TIP3    H155775   4.999   5.489   2.655 -2.1446  1.6569  0.3121
11428TIP3    H255776   5.062   5.615   2.601 -0.0267 -0.0507 -1.3688
11429TIP3   OH255777   6.198   3.153  16.121  0.0709  0.1339 -0.8060
11429TIP3    H155778   6.249   3.107  16.188 -0.8845  1.9082  1.2634
11429TIP3    H255779   6.136   3.087  16.089 -0.2539 -0.4604  0.9441
11430TIP3   OH255780   1.485   0.387   2.452  0.3563  0.9272  0.0574
11430TIP3    H155781   1.549   0.393   2.522 -0.1848 -0.6872  0.7330
11430TIP3    H255782   1.473   0.293   2.438 -0.1971  1.2063 -1.6019
11431TIP3   OH255783   1.987   2.512   5.840 -0.2823  0.1263 -0.2665
11431TIP3    H155784   2.055   2.508   5.773 -1.6535 -0.7662 -1.6617
11431TIP3    H255785   1.989   2.427   5.883 -1.9944 -0.7744 -1.8728
11432TIP3   OH255786   5.380   0.411   1.112  0.5865 -0.2238  0.1387
11432TIP3    H155787   5.325   0.364   1.050  0.7779 -0.5092  0.1809
11432TIP3    H255788   5.406   0.344   1.176  1.8951 -0.3755 -0.4997
11433TIP3   OH255789   2.600   3.887  12.305  0.1222 -0.5989  0.0337
11433TIP3    H155790   2.544   3.860  12.377  1.1410 -2.0598  0.3236
11433TIP3    H255791   2.686   3.902  12.345 -0.0362  1.7862 -0.3632
11434TIP3   OH255792   5.713   0.425  11.674  0.2122  0.3899  0.3397
11434TIP3    H155793   5.794   0.403  11.627  0.1828  0.7677  0.1106
11434TIP3    H255794   5.660   0.346  11.668 -0.3135  0.8380 -1.3622
11435TIP3   OH255795   4.382   1.016  16.793  0.1271 -0.3362  0.2029
11435TIP3    H155796   4.407   1.076  16.864  0.8442 -1.0972  0.6195
11435TIP3    H255797   4.463   0.969  16.773 -0.4031 -1.1060 -0.1626
11436TIP3   OH255798   1.219   6.810   3.486  0.2293 -0.1311 -0.4308
11436TIP3    H155799   1.232   6.740   3.549 -3.0791  0.6377  1.3511
11436TIP3    H255800   1.163   6.771   3.419 -0.1627  0.3174 -0.3683
11437TIP3   OH255801   3.057   6.596  14.884  0.0342 -0.0159 -0.1590
11437TIP3    H155802   3.139   6.567  14.923  0.6542  0.9919 -0.6486
11437TIP3    H255803   3.038   6.532  14.815  1.9834  1.2564 -2.0137
11438TIP3   OH255804   1.767   1.527   2.452  0.7738  0.3932 -0.4071
11438TIP3    H155805   1.724   1.597   2.502 -1.2868 -1.1969  0.1770
11438TIP3    H255806   1.860   1.542   2.466  0.3664  2.4993  0.4109
11439TIP3   OH255807   5.420   1.730  17.238  0.2541 -0.3299 -0.8585
11439TIP3    H155808   5.357   1.691  17.299  1.2760 -0.2361  0.3012
11439TIP3    H255809   5.368   1.753  17.161 -0.8080 -1.8093 -0.6345
11440TIP3   OH255810   0.502   3.690  10.868 -0.1099 -0.1559  0.0129
11440TIP3    H155811   0.540   3.721  10.786  1.5723  0.0251  0.8111
11440TIP3    H255812   0.429   3.749  10.885  0.4454  0.7335 -0.6211
11441TIP3   OH255813   1.769   4.347  17.225  0.1981 -0.2325 -0.5080
11441TIP3    H155814   1.731   4.266  17.258 -0.8857  0.2581 -0.5070
11441TIP3    H255815   1.854   4.321  17.189  0.4529 -1.1352  0.6967
11442TIP3   OH255816   2.483   3.339   0.200 -0.0672 -0.4205 -0.3923
11442TIP3    H155817   2.418   3.319   0.133  0.2791 -0.2100 -0.7951
11442TIP3    H255818   2.433   3.348   0.281 -0.6759  0.6885 -0.8635
11443TIP3   OH255819   6.548   0.338   6.375 -0.2971 -0.1637 -0.3350
11443TIP3    H155820   6.589   0.263   6.418  0.8782  1.0471  0.7419
11443TIP3    H255821   6.605   0.357   6.301  0.2999  0.6262  0.3160
11444TIP3   OH255822   6.111   1.342  11.429  0.2022  0.1641  0.4518
11444TIP3    H155823   6.199   1.376  11.447 -0.6002  1.0180  3.2969
11444TIP3    H255824   6.102   1.268  11.489 -1.2831  0.5674  0.7622
11445TIP3   OH255825   5.290   5.001   1.657  0.0706  0.0808  0.4855
11445TIP3    H155826   5.234   5.034   1.586  1.0752 -0.1206 -0.4299
11445TIP3    H255827   5.338   5.078   1.687 -1.3487  0.4524  1.9327
11446TIP3   OH255828   1.760   2.498  15.548 -0.1979 -0.1514  0.0884
11446TIP3    H155829   1.806   2.570  15.505  2.7504 -0.3802  2.5212
11446TIP3    H255830   1.780   2.421  15.494 -0.3575  0.2601 -0.5680
11447TIP3   OH255831   5.540   5.109  14.679 -0.6787 -0.0463 -0.3733
11447TIP3    H155832   5.527   5.168  14.753  0.8292  0.1632 -0.2423
11447TIP3    H255833   5.541   5.021  14.717  0.9764  0.1140  0.0158
11448TIP3   OH255834   1.484   4.766   5.530  0.0917  0.1129 -0.8738
11448TIP3    H155835   1.457   4.735   5.616  0.1582  0.5052 -0.7109
11448TIP3    H255836   1.542   4.697   5.497 -0.0791 -0.1221 -0.6824
11449TIP3   OH255837   1.562   2.689  14.649 -0.0532  0.2309  0.2463
11449TIP3    H155838   1.558   2.596  14.669  0.7242  0.3676  1.1712
11449TIP3    H255839   1.473   2.713  14.622 -0.4195 -0.6426  0.6558
11450TIP3   OH255840   3.010   1.203   0.204 -0.1698  0.3602  0.5492
11450TIP3    H155841   3.038   1.113   0.221 -0.0907 -0.0313 -1.4437
11450TIP3    H255842   2.915   1.201   0.215 -0.4596 -0.5457 -1.5253
11451TIP3   OH255843   3.702   1.436   4.421  0.1228  0.3376  0.7601
11451TIP3    H155844   3.737   1.500   4.482  1.0528  0.5296  0.0497
11451TIP3    H255845   3.719   1.474   4.335  0.5930 -0.8093  0.3285
11452TIP3   OH255846   5.674   2.388  13.448  0.8461  0.2903  0.2933
11452TIP3    H155847   5.732   2.391  13.373 -1.1474  0.8735 -1.3264
11452TIP3    H255848   5.604   2.327  13.423 -0.1821  0.9377  1.4170
11453TIP3   OH255849   2.488   0.980   5.300 -0.5471  0.1281 -0.0710
11453TIP3    H155850   2.581   0.961   5.297 -0.6055 -0.0675 -1.0266
11453TIP3    H255851   2.464   0.972   5.392  0.8699  2.5758  0.6126
11454TIP3   OH255852   2.246   0.509   0.708 -0.2791 -0.2746  0.2153
11454TIP3    H155853   2.247   0.578   0.642  2.6952  0.7185  1.1588
11454TIP3    H255854   2.335   0.475   0.709 -1.0210 -2.3944  1.6056
11455TIP3   OH255855   0.157   2.969   5.699  0.2673 -0.1496 -0.4008
11455TIP3    H155856   0.241   2.922   5.701  1.0718  1.2736  0.6902
11455TIP3    H255857   0.111   2.939   5.777 -0.0227 -0.4931 -0.6953
11456TIP3   OH255858   2.234   1.632   1.927  0.2813  0.1890  0.1471
11456TIP3    H155859   2.282   1.567   1.977 -0.9075 -0.1223  0.9357
11456TIP3    H255860   2.221   1.592   1.841  2.1452  0.6373 -0.3912
11457TIP3   OH255861   2.543   0.435   3.996  0.1494 -0.4290  0.0122
11457TIP3    H155862   2.448   0.447   3.989 -0.0851 -0.7920  1.8986
11457TIP3    H255863   2.580   0.518   3.966 -0.8529  0.3065  0.7145
11458TIP3   OH255864   3.436   3.406   5.367 -0.5231  0.0445  0.7748
11458TIP3    H155865   3.504   3.473   5.371  0.8587 -1.2163 -0.3470
11458TIP3    H255866   3.479   3.326   5.396 -2.0148 -0.4746  1.6723
11459TIP3   OH255867   3.494   2.865   1.029  0.3230 -0.5339 -0.1317
11459TIP3    H155868   3.488   2.821   1.113 -1.3301 -0.9614 -0.4363
11459TIP3    H255869   3.564   2.930   1.041 -1.2400  0.8751  2.2647
11460TIP3   OH255870   1.754   6.280   4.694  0.0703 -0.2200 -0.2847
11460TIP3    H155871   1.841   6.245   4.715  0.4637 -0.0255 -1.4951
11460TIP3    H255872   1.726   6.324   4.774  0.3548 -1.7071  0.6704
11461TIP3   OH255873   4.365   2.582   4.523  0.6352  0.0191 -0.4673
11461TIP3    H155874   4.410   2.497   4.527  1.0678  0.1941 -1.3345
11461TIP3    H255875   4.434   2.644   4.498  0.8584  1.0630  2.4230
11462TIP3   OH255876   2.381   1.513  11.934 -0.1500 -0.3568  0.0611
11462TIP3    H155877   2.457   1.550  11.979  0.2871  0.3983 -1.2230
11462TIP3    H255878   2.416   1.437  11.888  0.3427  1.0661 -2.0898
11463TIP3   OH255879   6.714   3.584  14.403  0.9416 -0.0351  0.0520
11463TIP3    H155880   6.766   3.557  14.327  0.5772 -0.4957 -0.0352
11463TIP3    H255881   6.662   3.658  14.371 -0.8715 -1.6167 -0.8109
11464TIP3   OH255882   2.702   1.152   4.636 -0.0179  0.3321  0.2499
11464TIP3    H155883   2.789   1.136   4.599 -0.5231  0.8681 -1.2664
11464TIP3    H255884   2.717   1.163   4.730  1.4140 -0.5662  0.1563
11465TIP3   OH255885   1.114   3.111   5.022 -0.6228 -0.0122  0.1685
11465TIP3    H155886   1.073   3.132   5.106  2.6517  1.9806  1.4678
11465TIP3    H255887   1.163   3.030   5.039  0.3945  0.6308  0.3315
11466TIP3   OH255888   2.773   6.189   0.076  0.0643  0.7270 -0.8367
11466TIP3    H155889   2.790   6.263   0.019 -0.0168  2.3383  1.1067
11466TIP3    H255890   2.702   6.218   0.133  0.3182 -0.6670  0.2693
11467TIP3   OH255891   2.961   6.776   3.807  0.5977 -0.2376  0.1219
11467TIP3    H155892   2.883   6.730   3.839  0.0558  1.6295  1.7266
11467TIP3    H255893   3.013   6.708   3.764 -1.5849 -1.6728 -0.4205
11468TIP3   OH255894   3.827   4.657   1.267  0.1387 -0.1707  0.5866
11468TIP3    H155895   3.917   4.687   1.261  0.0981 -0.3919 -2.1485
11468TIP3    H255896   3.788   4.678   1.182 -3.0512  1.8718  2.3218
11469TIP3   OH255897   3.649   3.993  10.859 -0.3914 -1.0185  0.6087
11469TIP3    H155898   3.733   4.033  10.879 -1.6056  2.7522 -0.8278
11469TIP3    H255899   3.589   4.027  10.926 -1.1651 -2.0847  0.4902
11470TIP3   OH255900   5.061   6.391  11.725 -0.3438  0.0829  0.5590
11470TIP3    H155901   4.973   6.353  11.720 -0.7686  0.4225  3.4161
11470TIP3    H255902   5.059   6.444  11.805  2.0261  1.3232 -0.1294
11471TIP3   OH255903   0.333   2.919   2.159 -0.5122  0.6853 -0.7090
11471TIP3    H155904   0.281   2.911   2.239 -1.3778  0.8717 -1.2343
11471TIP3    H255905   0.280   2.974   2.101  1.2204  2.6620 -0.5198
11472TIP3   OH255906   0.024   4.777  15.766 -0.2667  0.1659 -0.0703
11472TIP3    H155907   0.105   4.772  15.816  0.1558 -0.9819 -0.8311
11472TIP3    H255908   0.006   4.871  15.759  1.1895  0.4586 -0.2139
11473TIP3   OH255909   3.363   4.116  11.763  0.3801 -0.2270  0.2881
11473TIP3    H155910   3.312   4.036  11.780 -1.8989  0.1523 -3.5786
11473TIP3    H255911   3.442   4.085  11.719 -0.2413 -0.4491 -0.7091
11474TIP3   OH255912   6.635   0.044  15.149  0.0804  0.3174 -0.4043
11474TIP3    H155913   6.708   0.049  15.210 -1.4843  0.4485  1.5285
11474TIP3    H255914   6.560   0.080  15.197 -1.0971  1.0547 -2.6191
11475TIP3   OH255915   5.877   4.656   2.084  0.0233  0.6482 -0.0947
11475TIP3    H155916   5.870   4.595   2.011  0.1071 -0.2632  0.6271
11475TIP3    H255917   5.816   4.621   2.150  1.1521  0.4915  0.9081
11476TIP3   OH255918   6.536   3.010  17.053 -0.0357 -0.0934 -0.5457
11476TIP3    H155919   6.505   3.095  17.084 -1.0719 -0.5860 -0.2005
11476TIP3    H255920   6.588   3.031  16.975 -0.3596  0.8487 -0.5223
11477TIP3   OH255921   1.846   3.886   5.280 -0.0685  0.3627 -0.5507
11477TIP3    H155922   1.792   3.964   5.264  0.7767  0.3889 -4.1545
11477TIP3    H255923   1.935   3.920   5.286  0.1424 -0.1847 -0.5120
11478TIP3   OH255924   3.988   1.376   4.755 -0.0274  0.1875  0.1841
11478TIP3    H155925   4.054   1.311   4.732 -0.7527 -0.8391  0.9063
11478TIP3    H255926   4.004   1.449   4.695  1.0404 -0.4994 -0.3980
11479TIP3   OH255927   1.160   1.366   5.413  0.1276 -0.2547  0.4446
11479TIP3    H155928   1.095   1.387   5.345  1.7801  0.2836 -1.0381
11479TIP3    H255929   1.108   1.331   5.485 -1.8596  0.5900 -0.4921
11480TIP3   OH255930   0.209   2.307  17.242 -0.1770 -0.4949  0.4432
11480TIP3    H155931   0.191   2.399  17.260 -1.5338 -0.9089  1.4034
11480TIP3    H255932   0.123   2.265  17.244  0.4682 -1.8708  0.5827
11481TIP3   OH255933   0.180   1.415   1.799  0.5277 -0.4404  0.2284
11481TIP3    H155934   0.123   1.365   1.740 -1.3684  1.4208  0.3678
11481TIP3    H255935   0.142   1.402   1.886  1.2183 -0.3504  0.5486
11482TIP3   OH255936   2.282   0.212  11.059 -0.4388  0.4915 -0.6754
11482TIP3    H155937   2.280   0.270  10.983  2.4724  3.3683  1.1735
11482TIP3    H255938   2.372   0.181  11.064 -0.4248  0.6951  1.7293
11483TIP3   OH255939   0.140   5.656   4.034  0.1799 -0.0467 -0.5147
11483TIP3    H155940   0.071   5.604   3.993  0.0319 -0.3147  0.0540
11483TIP3    H255941   0.112   5.747   4.022  0.2385 -0.1083 -1.1634
11484TIP3   OH255942   3.224   5.221  11.562  0.3277 -0.3151 -0.5898
11484TIP3    H155943   3.214   5.307  11.602 -0.1678 -1.0351  0.9079
11484TIP3    H255944   3.286   5.175  11.619  1.7784 -0.4833 -2.2121
11485TIP3   OH255945   3.001   6.147   1.463  0.2747 -0.1763  0.2082
11485TIP3    H155946   3.065   6.214   1.486 -1.3095  0.9748  1.6166
11485TIP3    H255947   2.918   6.182   1.496 -0.7631 -2.4444  0.1891
11486TIP3   OH255948   5.552   3.055   2.800 -0.4000  0.1318  0.1516
11486TIP3    H155949   5.536   2.994   2.872  0.4649 -0.1616  0.0984
11486TIP3    H255950   5.465   3.087   2.777 -0.6787  0.4496  1.5153
11487TIP3   OH255951   4.891   4.113  14.168  0.1653  0.2425 -0.1548
11487TIP3    H155952   4.961   4.076  14.222 -0.0163  1.2687  0.7984
11487TIP3    H255953   4.857   4.038  14.119  0.3861 -0.6949  1.0830
11488TIP3   OH255954   1.346   0.451   0.546 -0.1784 -0.2628  0.1791
11488TIP3    H155955   1.274   0.442   0.483  1.1433  0.8622 -1.6138
11488TIP3    H255956   1.345   0.544   0.570  0.5595 -0.2664  0.2418
11489TIP3   OH255957   0.477   5.607  14.624  0.1959  0.1699  0.3435
11489TIP3    H155958   0.419   5.551  14.675 -1.1944  2.1104  1.0168
11489TIP3    H255959   0.480   5.566  14.538 -0.1145 -1.3372  1.0053
11490TIP3   OH255960   6.455   0.361  11.566 -0.5087 -0.0220  0.1401
11490TIP3    H155961   6.373   0.349  11.615 -0.2306 -0.7466  0.4493
11490TIP3    H255962   6.513   0.406  11.627 -0.9834  1.3850 -0.4192
11491TIP3   OH255963   3.146   2.402  13.981  0.0162 -0.0506  0.2549
11491TIP3    H155964   3.112   2.375  13.896  0.5850 -0.9734  0.3034
11491TIP3    H255965   3.086   2.470  14.011 -1.7580 -1.5579  0.3145
11492TIP3   OH255966   2.715   4.189   5.011  0.0507 -0.0253 -0.0528
11492TIP3    H155967   2.631   4.218   4.977 -1.4633 -3.8469 -0.1244
11492TIP3    H255968   2.733   4.107   4.963  3.1362 -0.0795  0.9609
11493TIP3   OH255969   5.718   4.927   3.118  0.7401  0.4550  0.1220
11493TIP3    H155970   5.782   4.948   3.186  0.3120  2.4324 -0.0325
11493TIP3    H255971   5.732   4.834   3.099  2.6784  0.5350  0.9928
11494TIP3   OH255972   2.508   2.012  14.585 -0.6866 -0.1595  0.7297
11494TIP3    H155973   2.499   1.976  14.673  1.4886  0.0528  1.0970
11494TIP3    H255974   2.602   2.025  14.574 -1.0107  0.9518 -1.1811
11495TIP3   OH255975   4.374   6.386  13.710  0.3190  0.1689 -0.2378
11495TIP3    H155976   4.401   6.454  13.648  2.1219 -1.8431 -1.8136
11495TIP3    H255977   4.404   6.419  13.795 -0.2556  2.0168 -0.7017
11496TIP3   OH255978   6.026   1.611  12.298 -0.2413 -0.3999  0.1849
11496TIP3    H155979   5.998   1.692  12.341 -0.9286 -2.0187  3.0844
11496TIP3    H255980   5.963   1.599  12.227 -1.0595  0.8473  0.6583
11497TIP3   OH255981   1.198   5.149  13.172  0.5199  0.1645  0.3675
11497TIP3    H155982   1.248   5.212  13.120 -0.9900  1.1103  0.0308
11497TIP3    H255983   1.107   5.167  13.152 -0.0230 -0.8654  1.7525
11498TIP3   OH255984   4.625   2.551  12.260  0.4603 -0.1647  0.0415
11498TIP3    H155985   4.549   2.557  12.317 -0.0013  3.5322 -0.7113
11498TIP3    H255986   4.689   2.500  12.311 -0.8718  0.6213  2.6785
11499TIP3   OH255987   4.638   1.805   6.226  0.1465 -0.0371  0.4338
11499TIP3    H155988   4.651   1.768   6.314 -2.1951  2.3528  1.9182
11499TIP3    H255989   4.572   1.748   6.186  0.7666 -0.7618  0.4045
11500TIP3   OH255990   1.274   4.320  14.348 -0.2190 -0.4514  0.0697
11500TIP3    H155991   1.337   4.330  14.419 -0.5140  0.2545  0.2388
11500TIP3    H255992   1.201   4.377  14.372 -0.6175 -0.7198 -0.4729
11501TIP3   OH255993   3.768   3.656  15.116 -0.1378 -0.6637  0.3912
11501TIP3    H155994   3.803   3.740  15.085  0.5770 -0.9271  0.4788
11501TIP3    H255995   3.760   3.603  15.037  0.3319 -0.8442  0.4628
11502TIP3   OH255996   5.636   3.479  14.435 -0.3896 -0.0146  0.3415
11502TIP3    H155997   5.571   3.500  14.369 -1.0560 -0.0331  0.9808
11502TIP3    H255998   5.682   3.562  14.451  2.6068 -0.7694 -3.0520
11503TIP3   OH255999   3.557   3.152   5.689 -0.1858 -0.1665 -0.4931
11503TIP3    H156000   3.565   3.173   5.596  0.7759  0.3504 -0.3091
11503TIP3    H256001   3.512   3.227   5.727  0.1681  0.0084 -0.4111
11504TIP3   OH256002   5.137   5.040   2.280  0.4819  0.4599  0.2953
11504TIP3    H156003   5.175   4.961   2.242 -0.2709  0.1867  0.0893
11504TIP3    H256004   5.084   5.077   2.209  0.4823  0.9176  0.5268
11505TIP3   OH256005   4.968   3.267  16.967 -0.5557  0.3972 -0.2599
11505TIP3    H156006   4.940   3.195  16.911 -0.8602 -0.9181  1.4873
11505TIP3    H256007   5.058   3.286  16.939 -1.2091  0.8755 -2.2019
11506TIP3   OH256008   3.284   1.868   4.613 -0.2826  0.0672  0.0941
11506TIP3    H156009   3.348   1.927   4.653 -0.2951 -1.3284  2.3548
11506TIP3    H256010   3.300   1.876   4.519  2.2850  0.8174  0.5086
11507TIP3   OH256011   3.424   6.088   1.559 -0.2562 -0.0437  0.1665
11507TIP3    H156012   3.400   6.018   1.499 -1.5531  0.0311  0.5528
11507TIP3    H256013   3.444   6.044   1.642  1.1812 -0.1189 -0.2026
11508TIP3   OH256014   2.542   1.528   3.129  0.3716 -0.4434  0.0456
11508TIP3    H156015   2.589   1.528   3.213  0.6188  0.1141 -0.0891
11508TIP3    H256016   2.450   1.536   3.153  0.4830  0.2815  0.2475
11509TIP3   OH256017   6.347   2.809  13.480  0.1378  0.1393  0.2351
11509TIP3    H156018   6.318   2.826  13.390  0.0459 -1.4272 -0.0735
11509TIP3    H256019   6.266   2.791  13.528  0.2223  0.5178  0.5219
11510TIP3   OH256020   4.301   5.595  12.474 -0.4866  0.7594  0.1555
11510TIP3    H156021   4.376   5.536  12.471 -0.2532  1.1164 -1.5318
11510TIP3    H256022   4.307   5.636  12.561  3.6191  3.7405 -1.2350
11511TIP3   OH256023   6.452   0.853   1.713  0.5334  0.4447  0.5384
11511TIP3    H156024   6.473   0.778   1.769 -0.8358  0.4474  1.1054
11511TIP3    H256025   6.537   0.891   1.691  1.1673 -0.2241  1.7051
11512TIP3   OH256026   2.708   2.835  11.419  0.3413  0.3946  0.5046
11512TIP3    H156027   2.647   2.905  11.393  1.1386  0.7567 -0.4532
11512TIP3    H256028   2.733   2.857  11.508 -2.2126 -0.6877  1.5994
11513TIP3   OH256029   0.893   6.390  17.257 -0.2645 -0.0212  0.6726
11513TIP3    H156030   0.895   6.438  17.339  0.8278  1.9748 -0.4351
11513TIP3    H256031   0.894   6.298  17.282 -2.3794  0.4859  2.8964
11514TIP3   OH256032   4.259   6.731  15.352  0.1868 -0.1424  0.1850
11514TIP3    H156033   4.247   6.802  15.290 -0.4915 -0.2612  0.1816
11514TIP3    H256034   4.268   6.775  15.437 -0.6388 -0.0733  0.2376
11515TIP3   OH256035   0.599   3.621   0.351  0.5737  0.0911 -0.2173
11515TIP3    H156036   0.602   3.692   0.414  0.5199  0.0923 -0.2164
11515TIP3    H256037   0.506   3.604   0.337  0.4474  2.1808 -2.6421
11516TIP3   OH256038   5.814   2.600  16.891  0.8597 -0.4495 -0.0293
11516TIP3    H156039   5.787   2.508  16.889 -0.6839 -0.0145 -0.5796
11516TIP3    H256040   5.794   2.633  16.804  1.2623  0.4456  0.2068
11517TIP3   OH256041   0.973   3.876  13.060  0.1868 -0.2528  0.2031
11517TIP3    H156042   0.989   3.880  13.154  1.5930 -1.0940  0.0219
11517TIP3    H256043   1.028   3.945  13.023 -0.7952  0.4613  0.0202
11518TIP3   OH256044   4.874   6.042  11.386 -0.3237  0.0461  0.3763
11518TIP3    H156045   4.859   6.007  11.298  1.4328 -0.9861  0.4440
11518TIP3    H256046   4.902   6.133  11.371 -2.0552  0.5706  0.0354
11519TIP3   OH256047   4.518   5.022  14.071  0.5393 -0.1217 -0.4592
11519TIP3    H156048   4.493   5.028  13.979  2.1942  1.1863 -0.8711
11519TIP3    H256049   4.577   4.947  14.075 -0.8466 -1.2541 -0.0792
11520TIP3   OH256050   6.700   4.466   5.284 -0.1623  0.7313 -0.6950
11520TIP3    H156051   6.678   4.537   5.345  0.7815  1.0179 -0.6649
11520TIP3    H256052   6.668   4.387   5.327 -0.2303  1.0194 -0.2050
11521TIP3   OH256053   0.212   4.281  11.594  0.3478  0.1015  0.3514
11521TIP3    H156054   0.128   4.325  11.612  0.0844 -0.9058  1.8013
11521TIP3    H256055   0.187   4.196  11.557  0.6771 -0.3849  1.2034
11522TIP3   OH256056   1.106   0.904  13.543 -0.0079  0.1540 -0.7668
11522TIP3    H156057   1.125   0.814  13.516 -0.9160 -0.4695  0.5496
11522TIP3    H256058   1.172   0.957  13.499  0.2428 -1.0984 -1.9554
11523TIP3   OH256059   0.931   4.637   6.103  0.0451  0.2112 -0.5005
11523TIP3    H156060   0.936   4.541   6.097 -0.0913  0.1256  0.5691
11523TIP3    H256061   0.911   4.665   6.014  0.7343 -0.7067 -0.9726
11524TIP3   OH256062   4.629   4.136   0.146  0.1379 -0.0377 -0.2336
11524TIP3    H156063   4.663   4.175   0.227  0.2850 -1.0447  0.1953
11524TIP3    H256064   4.619   4.211   0.087  2.2401  0.4400 -0.0891
11525TIP3   OH256065   1.931   1.038  13.659  0.7156 -0.2329 -0.0997
11525TIP3    H156066   1.917   0.943  13.649  0.8843 -0.3482  0.7199
11525TIP3    H256067   1.956   1.067  13.571  0.6317 -0.9451 -0.3677
11526TIP3   OH256068   5.555   6.574  12.949  0.1894 -0.8313  0.5107
11526TIP3    H156069   5.648   6.556  12.955  0.2637 -2.2619 -2.6629
11526TIP3    H256070   5.550   6.669  12.936  1.3769 -0.8859 -0.6190
11527TIP3   OH256071   6.804   2.694   3.270  0.1292 -0.5281 -0.4955
11527TIP3    H156072   6.737   2.733   3.326  1.1144  1.6442 -0.7036
11527TIP3    H256073   6.759   2.624   3.223 -2.1264  1.1492 -1.0009
11528TIP3   OH256074   4.610   3.840   3.833 -0.4752  0.3873  0.5054
11528TIP3    H156075   4.675   3.839   3.903 -0.5848  1.5169  0.6479
11528TIP3    H256076   4.615   3.753   3.794 -0.3359 -0.2304  1.8441
11529TIP3   OH256077   1.548   3.389   0.800 -0.4177 -0.2143  0.1528
11529TIP3    H156078   1.465   3.350   0.826 -1.0804  1.8771  1.3832
11529TIP3    H256079   1.527   3.442   0.723 -0.0285 -0.3718 -0.0672
11530TIP3   OH256080   5.465   4.133  11.966 -0.2557  0.4304  0.2604
11530TIP3    H156081   5.389   4.086  11.932 -0.9523 -0.0106  2.2736
11530TIP3    H256082   5.537   4.070  11.961 -1.1052 -0.8626  2.6159
11531TIP3   OH256083   3.439   1.293   3.515  0.3042 -0.2855  0.2155
11531TIP3    H156084   3.519   1.252   3.547  0.1681 -1.3110 -0.6995
11531TIP3    H256085   3.446   1.288   3.419 -1.1982 -1.1094  0.1150
11532TIP3   OH256086   1.696   0.032   0.836 -0.2580  0.5064  0.2528
11532TIP3    H156087   1.638   0.009   0.763  0.8585  0.0982 -0.5302
11532TIP3    H256088   1.715   0.125   0.823  0.5145  0.2670 -0.4127
11533TIP3   OH256089   2.418   0.327   3.376  0.2808 -0.3884  0.0374
11533TIP3    H156090   2.323   0.322   3.371 -0.1222  2.2588  2.2795
11533TIP3    H256091   2.445   0.359   3.289 -1.0465  0.2720 -0.1577
11534TIP3   OH256092   6.183   3.188   5.291 -0.1119  0.1486 -0.4602
11534TIP3    H156093   6.167   3.099   5.259  0.0532  0.0089 -0.1525
11534TIP3    H256094   6.181   3.242   5.212 -1.9898  0.1337 -0.4705
11535TIP3   OH256095   6.737   5.497   2.208  0.4846  0.1097 -0.5184
11535TIP3    H156096   6.780   5.418   2.241 -0.9840 -0.8390 -0.7451
11535TIP3    H256097   6.678   5.465   2.140 -2.1921  0.9669  1.2250
11536TIP3   OH256098   2.138   6.590  11.952  0.3950  0.5446  0.1700
11536TIP3    H156099   2.223   6.574  11.911  0.5365  0.0086  0.6652
11536TIP3    H256100   2.094   6.505  11.951 -0.4964  1.0043 -0.8844
11537TIP3   OH256101   4.428   3.997  12.764 -0.2694 -0.2183  0.3272
11537TIP3    H156102   4.438   3.926  12.701 -0.9077 -0.7707  0.8293
11537TIP3    H256103   4.469   4.073  12.722 -0.4256 -0.6466 -0.6188
11538TIP3   OH256104   3.031   5.145  13.903 -0.2006  0.4114  0.1522
11538TIP3    H156105   3.008   5.084  13.833 -0.8953  0.5900  0.2131
11538TIP3    H256106   2.959   5.136  13.966 -0.2586  1.2087  0.2090
11539TIP3   OH256107   3.347   3.339  13.337  0.3600 -0.4452 -0.4251
11539TIP3    H156108   3.415   3.374  13.279 -0.1451 -1.0382 -1.4034
11539TIP3    H256109   3.320   3.257  13.295 -0.4452 -0.5851  0.3448
11540TIP3   OH256110   5.687   5.208  14.220  0.3540 -0.0177  0.4204
11540TIP3    H156111   5.638   5.133  14.253 -0.5890 -0.3514 -1.5802
11540TIP3    H256112   5.712   5.257  14.298  0.1450 -1.8814  1.7136
11541TIP3   OH256113   1.122   5.589  14.199  0.5401 -0.4140  0.1858
11541TIP3    H156114   1.034   5.624  14.185  0.6149 -0.0614  0.5857
11541TIP3    H256115   1.180   5.653  14.158  0.6902  0.0548  1.1093
11542TIP3   OH256116   1.212   3.685  14.150 -0.5483 -0.3889 -0.1408
11542TIP3    H156117   1.195   3.778  14.142  0.3444  0.2080  3.4413
11542TIP3    H256118   1.291   3.671  14.097 -0.3626  1.0044 -0.2640
11543TIP3   OH256119   6.522   0.622  11.279  0.0027 -0.3558 -0.0466
11543TIP3    H156120   6.435   0.582  11.272 -1.6832  3.0447 -0.5238
11543TIP3    H256121   6.570   0.589  11.203 -0.9144 -2.1184  0.0962
11544TIP3   OH256122   3.839   1.519   5.298 -0.9855 -0.3309  0.5743
11544TIP3    H156123   3.773   1.526   5.229  0.0409  0.5144 -0.3528
11544TIP3    H256124   3.860   1.610   5.321 -0.5707 -0.5939  1.2744
11545TIP3   OH256125   5.639   3.910  11.901  0.5755 -0.1432  0.6526
11545TIP3    H156126   5.704   3.867  11.956 -0.1474 -1.7010  0.3349
11545TIP3    H256127   5.675   3.903  11.812  0.9359  0.8593  0.7024
11546TIP3   OH256128   1.506   3.914   4.892  0.2033 -0.2894  0.0897
11546TIP3    H156129   1.540   4.003   4.890  0.7280 -0.4863 -1.4397
11546TIP3    H256130   1.447   3.909   4.817  1.2088 -1.5759 -0.6711
11547TIP3   OH256131   3.006   0.906  12.788  0.3775  0.4958 -0.3764
11547TIP3    H156132   3.072   0.868  12.731 -0.6742 -0.1119 -1.2265
11547TIP3    H256133   2.926   0.908  12.735 -0.9755 -1.2782  1.4111
11548TIP3   OH256134   5.075   5.941   0.867  0.1666  0.3711  0.3044
11548TIP3    H156135   5.067   5.857   0.822  2.7268  0.8392 -1.2730
11548TIP3    H256136   5.124   5.996   0.806  1.1059  2.0681  2.4408
11549TIP3   OH256137   2.074   6.630  10.868  0.2882 -0.3195 -0.1215
11549TIP3    H156138   2.081   6.695  10.938  0.3632  2.4403 -2.5360
11549TIP3    H256139   1.979   6.623  10.852  0.3122 -0.4113 -0.2241
11550TIP3   OH256140   6.370   1.210   6.045  0.1402 -0.0965  0.2191
11550TIP3    H156141   6.288   1.243   6.007  1.0395  1.4625 -0.4449
11550TIP3    H256142   6.358   1.220   6.140 -0.0663  1.1227  0.0851
11551TIP3   OH256143   1.086   2.646   0.339 -0.4401  0.0131  0.6731
11551TIP3    H156144   1.110   2.554   0.330 -1.7965 -0.2233 -1.0598
11551TIP3    H256145   1.164   2.694   0.312  0.2989 -0.6146  1.6576
11552TIP3   OH256146   3.281   5.206   1.270  0.4631  0.4367 -0.7301
11552TIP3    H156147   3.214   5.138   1.263  0.7949  0.1379 -1.0470
11552TIP3    H256148   3.351   5.165   1.320  1.3806 -0.0453 -2.3268
11553TIP3   OH256149   5.101   4.091   5.752  0.2711 -0.0006 -0.1148
11553TIP3    H156150   5.058   4.007   5.770  0.2784 -1.0983 -4.2970
11553TIP3    H256151   5.192   4.076   5.778 -0.0809 -0.6134  0.8561
11554TIP3   OH256152   2.803   0.638  16.615  0.4640  0.4186 -0.1098
11554TIP3    H156153   2.771   0.713  16.664 -1.5141 -0.0434 -0.6201
11554TIP3    H256154   2.776   0.562  16.666 -1.6506 -0.0727 -1.8264
11555TIP3   OH256155   1.399   2.089  11.653  0.1845  0.4132  0.0591
11555TIP3    H156156   1.465   2.132  11.708 -0.4363  0.6099  0.6655
11555TIP3    H256157   1.399   1.998  11.683  0.1841  0.4116  0.0538
11556TIP3   OH256158   4.337   4.323  11.615 -0.1135 -0.4350 -0.2795
11556TIP3    H156159   4.425   4.289  11.597  0.4696  1.2240 -0.7249
11556TIP3    H256160   4.279   4.269  11.562  1.0073  0.6243 -2.7309
11557TIP3   OH256161   1.412   0.198  16.628  0.0600 -0.1103  0.3905
11557TIP3    H156162   1.416   0.211  16.723  1.1585  0.5081  0.2805
11557TIP3    H256163   1.337   0.250  16.599  0.9753  1.4312  0.6749
11558TIP3   OH256164   0.471   1.090  15.338 -0.0396 -0.1468 -0.1359
11558TIP3    H156165   0.405   1.094  15.269 -0.1516 -0.0527 -0.0244
11558TIP3    H256166   0.545   1.140  15.304  0.5887 -1.5472 -0.9143
11559TIP3   OH256167   1.588   5.977  12.029  0.2095 -0.3633  0.2311
11559TIP3    H156168   1.540   5.940  11.954  3.7618  0.6530 -2.8491
11559TIP3    H256169   1.606   6.067  12.003  2.1480 -0.1771  2.0311
11560TIP3   OH256170   2.249   4.506   1.157  0.4226  0.4199 -0.5217
11560TIP3    H156171   2.182   4.463   1.210  0.9763  1.1229  0.8049
11560TIP3    H256172   2.310   4.436   1.134 -0.4239 -0.1045 -1.2034
11561TIP3   OH256173   0.237   1.519   0.491  0.0087 -0.1734 -0.1073
11561TIP3    H156174   0.298   1.557   0.554 -1.8277 -0.1049  1.7133
11561TIP3    H256175   0.161   1.493   0.543 -2.7789  2.3132 -2.5400
11562TIP3   OH256176   0.372   4.886   5.884 -0.0973  0.0196  0.4778
11562TIP3    H156177   0.387   4.805   5.932 -0.6357 -0.2312  0.2331
11562TIP3    H256178   0.412   4.954   5.938  1.2896 -0.5212  0.1875
11563TIP3   OH256179   4.894   2.252  16.182 -0.4004 -0.3184  0.2483
11563TIP3    H156180   4.951   2.321  16.216  0.2190 -1.0457  0.6939
11563TIP3    H256181   4.830   2.299  16.128  1.4612  0.4152 -1.4712
11564TIP3   OH256182   4.281   4.063   5.618 -0.4636  0.2346  0.6942
11564TIP3    H156183   4.221   4.138   5.614  0.7675  1.1899 -1.7089
11564TIP3    H256184   4.361   4.099   5.655  0.4189  0.3968 -1.2502
11565TIP3   OH256185   2.000   5.782   2.017  0.3007  0.6016 -0.0860
11565TIP3    H156186   1.917   5.830   2.020 -0.3340 -0.4784 -0.1833
11565TIP3    H256187   2.000   5.738   1.932 -0.8014 -2.4644  1.3599
11566TIP3   OH256188   6.710   2.497  14.220  0.2334  0.0574  0.7720
11566TIP3    H156189   6.761   2.578  14.208  0.6684 -0.2868  0.2588
11566TIP3    H256190   6.773   2.427  14.205 -0.6317 -0.3927 -1.0654
11567TIP3   OH256191   6.726   2.092  11.533 -0.1191 -0.2478  0.5122
11567TIP3    H156192   6.633   2.071  11.536 -0.3275  0.6629  0.8829
11567TIP3    H256193   6.738   2.154  11.605  0.5117  0.6364 -0.3321
11568TIP3   OH256194   3.615   4.301  15.559  0.2433  0.5505 -0.2388
11568TIP3    H156195   3.571   4.254  15.488  0.7167 -0.9318  0.3941
11568TIP3    H256196   3.595   4.250  15.638 -0.3737  2.2252  0.7430
11569TIP3   OH256197   2.239   3.133   1.918  0.0819 -0.0326  0.1891
11569TIP3    H156198   2.299   3.207   1.913 -1.2171  1.1123  0.8862
11569TIP3    H256199   2.152   3.172   1.919 -0.7205 -1.6426 -0.8524
11570TIP3   OH256200   6.613   6.314   4.811 -0.0705 -0.3057  0.5586
11570TIP3    H156201   6.553   6.325   4.885  0.4928  0.0633  0.9657
11570TIP3    H256202   6.596   6.225   4.780 -0.3326 -0.4543  1.1099
11571TIP3   OH256203   2.531   4.910   4.839 -0.0953 -0.3665 -0.3181
11571TIP3    H156204   2.544   5.004   4.850 -0.0027 -0.1333 -2.0448
11571TIP3    H256205   2.438   4.900   4.823 -0.2531 -0.6895  0.7422
11572TIP3   OH256206   0.384   0.537  11.588 -0.6274 -0.4030 -0.1705
11572TIP3    H156207   0.401   0.485  11.510 -0.9223  1.1225 -1.2787
11572TIP3    H256208   0.471   0.555  11.624 -0.5472 -2.7469  1.0328
11573TIP3   OH256209   0.112   1.373   4.043 -0.2637  0.0453  0.1872
11573TIP3    H156210   0.122   1.438   3.974 -0.4690  0.7743  0.8252
11573TIP3    H256211   0.185   1.390   4.103 -0.4734 -0.1298  0.4961
11574TIP3   OH256212   4.434   4.550   4.873  0.9541  0.7933  0.6014
11574TIP3    H156213   4.445   4.629   4.820 -1.7059 -1.1519 -3.3246
11574TIP3    H256214   4.501   4.490   4.840 -1.7492 -1.0133 -2.1853
11575TIP3   OH256215   3.619   6.761   4.553  0.2789  0.4598 -0.4388
11575TIP3    H156216   3.555   6.803   4.610 -2.2378 -2.6509 -0.6952
11575TIP3    H256217   3.694   6.744   4.610 -0.8875  0.3096  1.1468
11576TIP3   OH256218   0.339   5.530  15.062  0.1006  0.6419  0.3131
11576TIP3    H156219   0.387   5.471  15.120  1.0035  0.2154 -0.8397
11576TIP3    H256220   0.248   5.501  15.070  0.3134  0.0959  0.9251
11577TIP3   OH256221   3.257   0.161  16.787 -0.0263  0.2490  0.2937
11577TIP3    H156222   3.231   0.162  16.695 -2.3489  0.0950  0.8944
11577TIP3    H256223   3.274   0.069  16.806 -0.4097  0.1584  0.2173
11578TIP3   OH256224   5.429   1.729   4.845 -0.2242 -0.1315 -0.6732
11578TIP3    H156225   5.451   1.816   4.811 -1.4123 -0.2744 -1.8722
11578TIP3    H256226   5.377   1.747   4.924 -0.3166  0.2512 -0.8175
11579TIP3   OH256227   0.867   0.427   2.392  0.4134 -0.0383 -0.3265
11579TIP3    H156228   0.962   0.421   2.376  0.3022 -1.0568 -0.6839
11579TIP3    H256229   0.842   0.509   2.350  0.8867 -0.5369 -1.6591
11580TIP3   OH256230   2.803   3.007   4.062 -0.0960  0.1415 -1.2894
11580TIP3    H156231   2.830   2.987   3.972  1.3849 -1.4719 -0.5327
11580TIP3    H256232   2.792   2.922   4.104  0.4220  0.8662  0.3886
11581TIP3   OH256233   2.083   3.802  16.287 -0.1133  0.7120  0.0909
11581TIP3    H156234   2.178   3.815  16.287  0.3528 -1.9872 -0.6219
11581TIP3    H256235   2.072   3.711  16.259 -2.8473  0.3417  2.0183
11582TIP3   OH256236   4.494   3.256  13.645 -0.2580  0.0120 -0.1365
11582TIP3    H156237   4.547   3.272  13.567 -0.4927  0.0146 -0.2973
11582TIP3    H256238   4.445   3.337  13.657  0.8602  0.5732  0.8762
11583TIP3   OH256239   3.997   0.463  13.939  0.6626 -0.2614  0.2205
11583TIP3    H156240   3.973   0.370  13.948 -0.7425 -0.0197 -0.8433
11583TIP3    H256241   3.970   0.502  14.022  0.4297 -0.6301  0.3246
11584TIP3   OH256242   1.330   5.360  11.871  0.3711 -0.2911  0.4439
11584TIP3    H156243   1.403   5.341  11.811  0.5091 -0.2099  0.5841
11584TIP3    H256244   1.312   5.276  11.913  2.0828  0.1782  2.2868
11585TIP3   OH256245   2.080   4.469  11.408 -0.2027 -0.1260  0.0947
11585TIP3    H156246   2.102   4.562  11.400  1.8957 -0.6969 -1.4530
11585TIP3    H256247   2.019   4.452  11.336  2.6765 -0.7603 -2.3845
11586TIP3   OH256248   6.600   1.272   5.245 -0.5915  0.0317 -0.1110
11586TIP3    H156249   6.645   1.312   5.171 -0.9310 -1.4381 -1.1518
11586TIP3    H256250   6.515   1.244   5.210  0.6037 -4.0029 -0.2883
11587TIP3   OH256251   1.746   3.235   1.618  0.2016  0.0577  0.1586
11587TIP3    H156252   1.813   3.205   1.557 -0.8781 -0.2001 -0.9333
11587TIP3    H256253   1.749   3.331   1.612 -0.7823  0.0204 -1.3266
11588TIP3   OH256254   0.670   2.209  11.632 -0.1723  0.2499 -0.9800
11588TIP3    H156255   0.584   2.202  11.593 -0.9836 -1.9237  0.9513
11588TIP3    H256256   0.657   2.263  11.711  0.1435 -0.3392 -0.5120
11589TIP3   OH256257   2.243   6.390   4.762 -0.1609 -0.1190 -0.4130
11589TIP3    H156258   2.166   6.342   4.792 -0.1669  1.6252  2.7425
11589TIP3    H256259   2.207   6.465   4.714 -0.2863 -0.6753 -1.2173
11590TIP3   OH256260   5.578   2.173  16.879 -0.4337  0.1548 -0.1554
11590TIP3    H156261   5.549   2.160  16.969 -2.0052 -4.3022 -1.0194
11590TIP3    H256262   5.503   2.145  16.826  0.9663  1.1444 -2.8374
11591TIP3   OH256263   4.557   4.807  13.573  0.0147 -0.1462 -0.6502
11591TIP3    H156264   4.623   4.849  13.628  0.1130  0.4594 -1.2173
11591TIP3    H256265   4.513   4.745  13.632 -0.3785  1.0111  0.3147
11592TIP3   OH256266   0.482   3.009  16.443  0.0298 -0.7641  0.3966
11592TIP3    H156267   0.459   2.947  16.375 -0.5517 -0.4251  0.2736
11592TIP3    H256268   0.562   2.974  16.483  0.5218 -0.8309 -0.6213
11593TIP3   OH256269   1.616   5.026  16.282 -0.1998  0.1439 -0.5438
11593TIP3    H156270   1.660   4.953  16.238 -0.4595 -1.5458  1.8115
11593TIP3    H256271   1.522   5.004  16.277 -0.1756 -1.3857  2.6403
11594TIP3   OH256272   2.552   1.106   0.507  0.6289 -0.0448 -0.2824
11594TIP3    H156273   2.608   1.182   0.489 -0.1951  0.5744 -0.3375
11594TIP3    H256274   2.562   1.091   0.601  1.0031 -0.0420 -0.3196
11595TIP3   OH256275   3.141   6.789  16.177 -0.1276  0.4895  0.2493
11595TIP3    H156276   3.062   6.836  16.202 -2.1794 -0.8474 -3.0942
11595TIP3    H256277   3.118   6.743  16.096  3.8824 -0.5464 -0.5422
11596TIP3   OH256278   2.663   4.266   4.064  0.4392 -0.4420 -0.1586
11596TIP3    H156279   2.571   4.279   4.038  0.7780 -1.4205 -2.0226
11596TIP3    H256280   2.699   4.355   4.069 -0.8883  0.0545  1.9007
11597TIP3   OH256281   2.707   2.052  14.118  0.2881  0.0392  0.3367
11597TIP3    H156282   2.659   2.133  14.131  2.2493  1.0871  1.6025
11597TIP3    H256283   2.702   2.007  14.203 -0.7583 -1.2082 -0.3376
11598TIP3   OH256284   6.513   3.725  11.997 -0.3166 -0.6007 -0.0524
11598TIP3    H156285   6.498   3.702  11.905 -0.9557  1.3631 -0.4885
11598TIP3    H256286   6.608   3.723  12.007 -0.1506  0.4308 -1.1452
11599TIP3   OH256287   1.777   2.488   6.200 -0.0966  0.0933  0.1062
11599TIP3    H156288   1.748   2.412   6.250  1.5304  0.1169  1.1467
11599TIP3    H256289   1.777   2.458   6.109  2.3263 -1.8625  0.6252
11600TIP3   OH256290   2.094   2.285  14.373 -0.0180  0.2001 -0.4136
11600TIP3    H156291   2.165   2.306  14.434  0.7938 -0.2253 -1.1932
11600TIP3    H256292   2.014   2.311  14.420  0.6354  0.5994  0.5146
11601TIP3   OH256293   6.758   1.623  15.716 -0.6739 -0.1642 -0.7832
11601TIP3    H156294   6.728   1.535  15.738 -2.9818  0.7828  0.2438
11601TIP3    H256295   6.814   1.611  15.639 -1.1904 -2.4744 -0.8730
11602TIP3   OH256296   2.073   4.643  15.122 -0.0844  0.5679  0.3742
11602TIP3    H156297   2.126   4.573  15.159  0.1828  1.0215  0.8500
11602TIP3    H256298   1.994   4.645  15.176 -0.0016  0.7681  0.4890
11603TIP3   OH256299   4.331   1.137  11.792  0.5668 -0.1528 -0.0025
11603TIP3    H156300   4.423   1.136  11.816  1.0917  3.4840 -1.2320
11603TIP3    H256301   4.325   1.199  11.719 -2.6595 -1.3954 -0.9899
11604TIP3   OH256302   1.463   3.432   2.496  0.1078 -0.3232  0.4308
11604TIP3    H156303   1.440   3.513   2.452  3.5703 -0.0794 -1.2012
11604TIP3    H256304   1.392   3.372   2.473 -1.4391  1.5900 -0.0808
11605TIP3   OH256305   5.412   5.434   0.703 -0.5830  0.0531  0.1268
11605TIP3    H156306   5.459   5.433   0.787  1.1249 -0.9174 -0.7942
11605TIP3    H256307   5.391   5.527   0.690  2.4030  0.8235 -0.0621
11606TIP3   OH256308   4.135   5.552   1.523 -0.7589  0.0678 -0.1771
11606TIP3    H156309   4.147   5.573   1.616 -1.5675 -1.5783  0.3463
11606TIP3    H256310   4.161   5.631   1.477  1.2701  0.4051  1.3588
11607TIP3   OH256311   4.732   1.282   4.671 -0.2470  0.3168 -0.0792
11607TIP3    H156312   4.766   1.371   4.664  0.7132  0.1169  1.5340
11607TIP3    H256313   4.780   1.244   4.745 -0.9627 -1.3938 -0.4504
11608TIP3   OH256314   5.154   0.021  16.302  0.0429  0.5269 -0.0278
11608TIP3    H156315   5.245   0.004  16.281 -0.1602 -0.9410  0.1679
11608TIP3    H256316   5.137  -0.033  16.379 -1.0341  0.6418 -0.1699
11609TIP3   OH256317   4.937   6.200  13.483  0.8177  0.3620 -0.2338
11609TIP3    H156318   4.848   6.180  13.453  0.8340 -0.1469  0.0546
11609TIP3    H256319   4.931   6.289  13.517  0.7190  0.8263 -1.4273
11610TIP3   OH256320   6.816   6.757   4.929  0.0823  0.4497  0.1365
11610TIP3    H156321   6.779   6.824   4.872 -1.2965  1.3195  1.9566
11610TIP3    H256322   6.883   6.802   4.979  0.5065 -0.0220  0.0005
11611TIP3   OH256323   4.701   5.891  11.560 -0.1643  0.3238 -0.5039
11611TIP3    H156324   4.747   5.918  11.639  0.8190 -3.3513  0.3949
11611TIP3    H256325   4.752   5.926  11.488  0.3967  1.5798  0.4733
11612TIP3   OH256326   6.522   4.969   4.641  0.3594 -0.0951  0.5974
11612TIP3    H156327   6.556   5.033   4.704  2.0982  1.2343 -1.5126
11612TIP3    H256328   6.582   4.894   4.649  1.1388  0.4404 -0.0499
11613TIP3   OH256329   0.893   6.812   4.224  0.6502  0.2133 -0.1384
11613TIP3    H156330   0.980   6.849   4.212  1.1749 -1.0867 -0.5372
11613TIP3    H256331   0.870   6.776   4.138  0.5308 -1.1126  0.4191
11614TIP3   OH256332   5.517   2.018  13.611  0.0511 -0.2331 -0.4815
11614TIP3    H156333   5.445   2.064  13.655  0.5703  0.6887 -0.5637
11614TIP3    H256334   5.474   1.954  13.555 -0.6535 -1.4683  1.3536
11615TIP3   OH256335   1.725   0.580  15.157  0.7273 -0.8366 -0.3445
11615TIP3    H156336   1.635   0.577  15.124 -0.6883 -2.0543  3.1815
11615TIP3    H256337   1.756   0.667  15.132 -2.0420  0.2747 -0.3238
11616TIP3   OH256338   1.447   2.983  15.980  0.3191 -0.0167 -0.3583
11616TIP3    H156339   1.461   2.939  15.897 -1.1622 -3.8436  1.2185
11616TIP3    H256340   1.387   3.054  15.960  1.6320  0.5092 -2.8050
11617TIP3   OH256341   6.044   6.782  16.211 -0.1790 -0.0978  0.5594
11617TIP3    H156342   5.968   6.820  16.255 -0.7030  0.5689 -0.8526
11617TIP3    H256343   6.109   6.770  16.280 -1.2842  0.0643  1.6496
11618TIP3   OH256344   6.116   2.193   5.478  0.3741  0.7101 -0.1876
11618TIP3    H156345   6.165   2.112   5.496 -0.8160  0.2094  0.9527
11618TIP3    H256346   6.147   2.255   5.544  2.7495  1.9187 -2.2611
11619TIP3   OH256347   4.079   4.055   4.657  0.5596  0.0398  0.1947
11619TIP3    H156348   4.077   4.017   4.745  0.3363  1.2058  0.7016
11619TIP3    H256349   4.061   3.981   4.599 -2.5071 -0.2180  1.2874
11620TIP3   OH256350   2.714   0.524  13.311  0.0969 -0.0526 -0.3724
11620TIP3    H156351   2.788   0.581  13.296  0.0957 -0.2657 -1.2081
11620TIP3    H256352   2.645   0.556  13.253 -0.5517  0.2712  0.5381
11621TIP3   OH256353   6.075   2.215   0.840 -0.5102  0.0216  0.1683
11621TIP3    H156354   6.128   2.249   0.768 -0.2994 -1.9567 -0.6872
11621TIP3    H256355   6.136   2.204   0.913 -0.5902  1.4144  0.4728
11622TIP3   OH256356   4.732   6.285  16.341 -0.0987 -0.0788 -0.4082
11622TIP3    H156357   4.796   6.354  16.324  1.3384 -1.0232  0.8951
11622TIP3    H256358   4.669   6.325  16.401  1.2045 -0.0765  1.0473
11623TIP3   OH256359   1.259   6.641   0.683  0.5638  0.6606 -0.3128
11623TIP3    H156360   1.180   6.597   0.715  0.8221  0.6116  0.2750
11623TIP3    H256361   1.230   6.728   0.658  0.2131  0.4497 -0.6616
11624TIP3   OH256362   2.497   6.287   4.504  0.2005  0.2063 -0.5001
11624TIP3    H156363   2.430   6.333   4.453  0.4285  0.6346 -0.4199
11624TIP3    H256364   2.498   6.198   4.469 -0.5547  0.1378 -0.3670
11625TIP3   OH256365   4.516   0.223   3.777  0.0999  0.7002  0.4025
11625TIP3    H156366   4.422   0.211   3.767  0.1227  1.2535 -0.6211
11625TIP3    H256367   4.525   0.294   3.841 -0.1749  0.6694  0.4765
11626TIP3   OH256368   0.855   3.727   0.864  0.2708  0.1935  0.4357
11626TIP3    H156369   0.868   3.638   0.832  0.4682  0.3756  0.0009
11626TIP3    H256370   0.870   3.783   0.788 -1.4379  0.5222  0.2878
11627TIP3   OH256371   5.324   6.407  14.471  0.0378 -0.0926 -0.4587
11627TIP3    H156372   5.329   6.324  14.423 -1.8341 -1.2103  1.1439
11627TIP3    H256373   5.231   6.422  14.482  0.3544  0.1979  2.6266
11628TIP3   OH256374   6.731   2.222  13.880  0.4292  0.0742 -0.1833
11628TIP3    H156375   6.778   2.301  13.855 -1.1154  0.8350 -0.7823
11628TIP3    H256376   6.675   2.203  13.805  1.8332 -2.4890 -0.7076
11629TIP3   OH256377   3.989   5.906  11.274  0.5423  0.3684  0.8275
11629TIP3    H156378   4.001   5.855  11.354  0.1825 -1.1036 -0.0399
11629TIP3    H256379   4.064   5.883  11.219 -0.3736 -0.3450 -0.1484
11630TIP3   OH256380   1.829   6.508  15.453  1.5824 -0.1025 -0.1194
11630TIP3    H156381   1.747   6.481  15.411  2.6375  0.2247 -2.5633
11630TIP3    H256382   1.825   6.603  15.455  1.0707 -0.1178  1.6817
11631TIP3   OH256383   5.313   1.517   4.270 -0.5522 -0.0698  0.1947
11631TIP3    H156384   5.330   1.600   4.225 -1.5001 -0.2696 -0.5674
11631TIP3    H256385   5.306   1.540   4.362  2.0346  0.2727  0.3886
11632TIP3   OH256386   0.542   0.318   5.358 -0.0452 -0.8406  0.0516
11632TIP3    H156387   0.563   0.263   5.434  1.0073  1.0486  1.2216
11632TIP3    H256388   0.620   0.312   5.302 -0.1102 -0.8814 -0.0346
11633TIP3   OH256389   6.076   1.511   1.590  0.1928 -0.2886  0.1606
11633TIP3    H156390   6.124   1.437   1.550  0.0167 -0.4614  0.2675
11633TIP3    H256391   6.111   1.588   1.546  1.9359 -0.2367  1.5672
11634TIP3   OH256392   1.302   6.114  12.561 -0.0656  0.0661  0.2545
11634TIP3    H156393   1.367   6.049  12.536 -0.1737  0.5454 -1.3984
11634TIP3    H256394   1.218   6.070  12.550 -0.0967  0.1146  0.2940
11635TIP3   OH256395   4.701   3.743   5.154  0.0711 -0.2624  0.8212
11635TIP3    H156396   4.642   3.718   5.226 -0.2535 -0.4011  0.5132
11635TIP3    H256397   4.693   3.671   5.091 -0.3488  0.2897  0.2345
11636TIP3   OH256398   0.084   1.929  11.203  0.2542  0.0170 -0.4275
11636TIP3    H156399   0.071   1.844  11.245 -0.2819  0.6768  0.8148
11636TIP3    H256400   0.073   1.912  11.110  1.0842 -1.4414 -0.2963
11637TIP3   OH256401   2.625   0.704  16.969 -0.5791 -0.6339  0.4971
11637TIP3    H156402   2.678   0.746  16.901  0.0339 -0.6879  0.9314
11637TIP3    H256403   2.576   0.636  16.923  0.4397 -1.2101  0.2275
11638TIP3   OH256404   2.983   1.324   1.283 -0.1425 -0.2918 -0.0192
11638TIP3    H156405   3.073   1.356   1.283 -0.6092  1.1191  0.2113
11638TIP3    H256406   2.930   1.404   1.284 -1.3955 -1.0995 -0.3348
11639TIP3   OH256407   5.242   2.628  16.216  0.4092  0.4208 -0.3720
11639TIP3    H156408   5.273   2.712  16.180  0.7687  0.6780  0.4994
11639TIP3    H256409   5.147   2.635  16.214  0.3011 -0.4552 -3.2645
11640TIP3   OH256410   6.790   6.334  16.185  0.0700 -0.0665 -0.0856
11640TIP3    H156411   6.742   6.416  16.181  0.5415  0.1883 -0.6138
11640TIP3    H256412   6.881   6.360  16.199  0.2277 -0.4996 -0.2770
11641TIP3   OH256413   1.479   1.714   5.599  0.1672 -0.1178 -0.0937
11641TIP3    H156414   1.568   1.745   5.619 -0.0298 -0.1139  0.8133
11641TIP3    H256415   1.490   1.622   5.577  0.0224 -1.1720  3.6122
11642TIP3   OH256416   1.194   4.548  13.004  0.0530  0.2587 -0.2835
11642TIP3    H156417   1.200   4.618  13.069  1.6435  0.5692 -0.7310
11642TIP3    H256418   1.173   4.593  12.922 -2.0085 -0.1381 -0.0415
11643TIP3   OH256419   2.331   4.923  11.408 -0.5270  0.1153 -0.2578
11643TIP3    H156420   2.257   4.939  11.467 -1.1075  0.8484 -1.1399
11643TIP3    H256421   2.310   4.841  11.364 -0.9890  0.4689 -0.7206
11644TIP3   OH256422   5.885   6.754   4.118  0.1927 -0.0492  0.3768
11644TIP3    H156423   5.928   6.671   4.137  0.2523 -0.2554 -0.5857
11644TIP3    H256424   5.869   6.793   4.204  0.7689 -0.7425  0.8127
11645TIP3   OH256425   6.247   0.291   2.012  0.0214 -0.4009  0.0795
11645TIP3    H156426   6.151   0.297   2.011 -0.0222 -1.0957 -0.3049
11645TIP3    H256427   6.276   0.361   1.953 -0.2625 -0.4634 -0.1356
11646TIP3   OH256428   5.221   0.618  17.059  0.3489 -0.3908 -0.2152
11646TIP3    H156429   5.293   0.576  17.106  2.1847  0.6682 -1.8780
11646TIP3    H256430   5.237   0.597  16.967 -0.3681  1.4289 -0.8058
11647TIP3   OH256431   5.067   3.971   3.214  0.1548 -0.6219  0.0700
11647TIP3    H156432   5.068   4.026   3.292 -1.1353 -0.7474  0.1957
11647TIP3    H256433   4.974   3.964   3.191  0.6011  0.9770 -2.6024
11648TIP3   OH256434   5.976   5.556  11.959  0.1073  0.0582  0.1342
11648TIP3    H156435   5.964   5.461  11.953 -1.8689  0.2123  0.9820
11648TIP3    H256436   6.071   5.567  11.969  0.4404 -1.7712 -0.5593
11649TIP3   OH256437   1.581   4.627  16.290 -0.4545 -0.2892  0.4166
11649TIP3    H156438   1.526   4.666  16.358 -0.0674  0.8571  0.0912
11649TIP3    H256439   1.522   4.615  16.215 -0.9982 -1.9882  1.0665
11650TIP3   OH256440   3.768   2.580  15.538  0.2425  0.2619  0.7344
11650TIP3    H156441   3.828   2.523  15.490  2.1008  2.8491 -0.2388
11650TIP3    H256442   3.681   2.547  15.516  1.1780 -1.4176 -0.7600
11651TIP3   OH256443   2.376   1.050   1.289  0.7297 -0.7250 -0.3997
11651TIP3    H156444   2.346   0.977   1.343  0.2524  0.8472  1.5884
11651TIP3    H256445   2.469   1.059   1.309  1.5847 -2.6055 -2.9700
11652TIP3   OH256446   2.798   1.602  13.735 -0.1476 -0.4006  0.2087
11652TIP3    H156447   2.724   1.607  13.674 -1.0138 -1.0464  1.1637
11652TIP3    H256448   2.796   1.511  13.767  1.1564 -0.4645  0.1457
11653TIP3   OH256449   2.445   3.507  14.571 -0.3178 -0.3879 -0.3212
11653TIP3    H156450   2.472   3.516  14.662 -0.9114 -2.1690  0.0732
11653TIP3    H256451   2.460   3.594  14.533  0.2946  0.2903  1.3575
11654TIP3   OH256452   0.465   1.942  11.876 -0.0919 -0.3102 -0.6480
11654TIP3    H156453   0.468   1.901  11.963 -0.4418 -0.4484 -0.7021
11654TIP3    H256454   0.496   2.031  11.891 -1.7502  0.2032 -0.0698
11655TIP3   OH256455   3.268   2.443  12.837  0.3528 -0.3245  0.3526
11655TIP3    H156456   3.188   2.487  12.866 -1.6632 -1.7749 -2.5421
11655TIP3    H256457   3.329   2.514  12.817 -0.6272  0.8590  1.4154
11656TIP3   OH256458   1.978   3.593   3.185 -0.0918  0.1499 -0.9626
11656TIP3    H156459   2.027   3.608   3.266  2.0743 -0.9583 -1.9834
11656TIP3    H256460   1.917   3.666   3.180 -0.8746 -0.1719  2.0591
11657TIP3   OH256461   2.185   0.391   6.006 -0.0770  0.2481 -0.4896
11657TIP3    H156462   2.160   0.360   6.093 -2.4166 -0.7903 -1.4412
11657TIP3    H256463   2.205   0.311   5.957  0.8336  0.7913 -1.0426
11658TIP3   OH256464   2.068   2.944   0.880 -0.2716  0.2930 -0.0616
11658TIP3    H156465   2.162   2.932   0.890 -0.2503 -0.1308 -0.7366
11658TIP3    H256466   2.044   2.889   0.806 -0.9728  0.7872 -0.2140
11659TIP3   OH256467   4.810   0.252  15.356  0.0315  0.1306  0.4184
11659TIP3    H156468   4.779   0.241  15.446  0.5701 -1.6316  0.4097
11659TIP3    H256469   4.804   0.347  15.340 -4.2363  0.1277  0.8013
11660TIP3   OH256470   2.625   3.411  16.346 -0.3581  0.3330  0.0080
11660TIP3    H156471   2.538   3.374  16.330 -0.1914 -1.0113  1.8237
11660TIP3    H256472   2.678   3.380  16.273 -0.9609 -0.4783 -0.0964
11661TIP3   OH256473   1.835   6.367  12.993 -0.4236 -0.2432 -0.2845
11661TIP3    H156474   1.897   6.373  13.065 -0.2543  0.4528 -0.4847
11661TIP3    H256475   1.889   6.358  12.914 -0.6092 -1.1575 -0.3207
11662TIP3   OH256476   2.420   5.159  13.254 -0.2824 -0.0544 -0.7116
11662TIP3    H156477   2.370   5.083  13.282 -0.8904  0.0973 -1.3650
11662TIP3    H256478   2.442   5.204  13.336  1.6254 -1.8335 -0.1635
11663TIP3   OH256479   0.063   2.701  12.249 -0.2545  0.2127 -0.3174
11663TIP3    H156480   0.124   2.678  12.320  0.4119  0.8666 -0.6659
11663TIP3    H256481   0.030   2.617  12.218  0.7471 -0.1772 -0.3599
11664TIP3   OH256482   6.029   0.127  13.124  0.3377 -0.0977 -0.8096
11664TIP3    H156483   5.982   0.188  13.068  0.9237  1.7054  0.5912
11664TIP3    H256484   5.970   0.051  13.130 -1.4475  1.2173 -0.8139
11665TIP3   OH256485   4.586   4.595  14.884  0.6859 -0.1302  0.0115
11665TIP3    H156486   4.503   4.643  14.880  1.7135  1.6373 -1.2335
11665TIP3    H256487   4.584   4.552  14.970 -1.0235  0.7768  0.4753
11666TIP3   OH256488   3.008   3.777  14.572  0.4792  0.2811 -0.1113
11666TIP3    H156489   2.960   3.785  14.490  0.2359 -0.3000 -0.0286
11666TIP3    H256490   3.100   3.775  14.545  0.3470 -1.8663 -0.5559
11667TIP3   OH256491   1.443   0.860   4.201  0.5348  0.0840  0.1075
11667TIP3    H156492   1.520   0.812   4.171  0.8011  0.5611  0.0191
11667TIP3    H256493   1.382   0.857   4.128 -0.2324 -1.7537  0.7640
11668TIP3   OH256494   5.183   0.568  13.729  0.0999  0.5236  0.1366
11668TIP3    H156495   5.227   0.616  13.799  0.6742 -2.7042  2.2266
11668TIP3    H256496   5.090   0.583  13.744  0.2006 -0.2986  1.8111
11669TIP3   OH256497   2.126   0.515  15.260 -0.1357 -0.6055  0.0688
11669TIP3    H156498   2.099   0.433  15.220 -1.8375  0.7453 -1.7757
11669TIP3    H256499   2.216   0.528  15.231 -0.9880 -0.1704 -2.6303
11670TIP3   OH256500   4.610   5.370   2.232  0.0137  0.4015  0.1782
11670TIP3    H156501   4.653   5.422   2.300 -0.0937  0.0596  0.5085
11670TIP3    H256502   4.640   5.281   2.247 -0.3870  0.2490  0.0763
11671TIP3   OH256503   1.788   5.491   5.994  0.3056  0.0657  0.3418
11671TIP3    H156504   1.719   5.436   5.957  0.5905  1.1995 -2.0252
11671TIP3    H256505   1.826   5.437   6.064 -1.7932 -1.2564  0.5461
11672TIP3   OH256506   6.799   1.828  11.688 -0.3843 -0.2166 -0.1231
11672TIP3    H156507   6.796   1.915  11.647 -0.3064  0.2854  0.9106
11672TIP3    H256508   6.729   1.779  11.645 -1.5805  0.9074  0.4904
11673TIP3   OH256509   2.573   3.303  13.099  0.3119 -0.0544 -0.4066
11673TIP3    H156510   2.550   3.247  13.173  0.4823  0.8397  0.3375
11673TIP3    H256511   2.656   3.343  13.124  0.0664  0.7295 -0.8108
11674TIP3   OH256512   4.413   2.238  12.755 -0.4791  0.2644  0.0948
11674TIP3    H156513   4.395   2.144  12.760 -0.0982  0.1203 -0.9644
11674TIP3    H256514   4.477   2.254  12.824  0.1966 -0.4474 -0.3553
11675TIP3   OH256515   2.816   0.075   1.595 -0.2624  0.2655 -0.6509
11675TIP3    H156516   2.884   0.136   1.568  1.4034 -1.7600 -1.2204
11675TIP3    H256517   2.756   0.071   1.521  0.5405 -0.0392 -1.2990
11676TIP3   OH256518   0.165   6.415   3.613  0.4238  0.0942 -0.2338
11676TIP3    H156519   0.186   6.508   3.604  1.0297  0.1178  1.1763
11676TIP3    H256520   0.075   6.414   3.646  0.9585  0.2683  1.3280
11677TIP3   OH256521   2.414   5.184  14.154 -0.0226 -0.0644  0.2346
11677TIP3    H156522   2.480   5.160  14.089  0.9467  0.3293  1.0381
11677TIP3    H256523   2.391   5.274  14.134  0.1264 -0.0093  0.3079
11678TIP3   OH256524   2.771   0.512  16.161  0.0355  0.4558 -0.0106
11678TIP3    H156525   2.767   0.480  16.071 -0.5154  0.1434  0.1231
11678TIP3    H256526   2.686   0.554  16.176  0.1433  0.5502  0.3502
11679TIP3   OH256527   5.130   3.239   1.197 -0.1644 -0.1083  0.1707
11679TIP3    H156528   5.051   3.292   1.206 -1.4106 -1.6425 -1.0657
11679TIP3    H256529   5.105   3.153   1.230  0.9047 -0.6941 -0.4868
11680TIP3   OH256530   4.752   6.779   3.171  0.1182  0.3832  0.0809
11680TIP3    H156531   4.773   6.686   3.157  1.3099  0.8276 -1.4337
11680TIP3    H256532   4.728   6.785   3.263 -3.2501 -2.0054 -0.4068
11681TIP3   OH256533   3.990   5.398  16.864  0.5425  0.1066  0.0389
11681TIP3    H156534   3.980   5.457  16.939  0.9371  0.6690 -0.3488
11681TIP3    H256535   3.961   5.313  16.897 -1.4898  0.8087  0.1746
11682TIP3   OH256536   1.643   3.162  14.549 -0.1458 -0.4402 -0.3631
11682TIP3    H156537   1.574   3.222  14.579 -0.4315 -1.0686  0.2715
11682TIP3    H256538   1.722   3.215  14.548 -0.5260  0.1353 -0.5061
11683TIP3   OH256539   6.357   4.131   5.471  0.8963  0.2233 -0.5728
11683TIP3    H156540   6.274   4.117   5.515  0.8040  1.0538 -0.4688
11683TIP3    H256541   6.415   4.062   5.506  0.2149 -0.4683 -0.7844
11684TIP3   OH256542   1.430   0.012   3.967  0.6735  0.4435  0.3803
11684TIP3    H156543   1.472  -0.014   3.885 -0.9420 -1.3718  0.0642
11684TIP3    H256544   1.381   0.091   3.945  2.8608  1.9047  0.4718
11685TIP3   OH256545   3.659   2.133   0.975  0.0403  0.0617  0.4874
11685TIP3    H156546   3.587   2.074   0.998  0.2527 -0.1106  0.7155
11685TIP3    H256547   3.627   2.182   0.899  0.4088 -1.3742 -0.6374
11686TIP3   OH256548   6.336   5.395  14.287 -0.5738 -0.0804  0.1037
11686TIP3    H156549   6.263   5.347  14.250  0.1559  0.5125 -2.2439
11686TIP3    H256550   6.405   5.329  14.300 -0.1700 -0.0040 -1.4839
11687TIP3   OH256551   3.821   4.010  10.517 -0.2279  0.2733  0.4814
11687TIP3    H156552   3.732   4.034  10.543 -0.6357  0.9914 -1.4449
11687TIP3    H256553   3.833   3.922  10.553 -2.5325 -0.7355 -0.9958
11688TIP3   OH256554   1.082   1.420   2.313  0.6733 -0.3299  0.1450
11688TIP3    H156555   1.112   1.500   2.356  2.5122 -0.4830 -0.7461
11688TIP3    H256556   1.083   1.354   2.382 -2.5961  0.6768  1.3474
11689TIP3   OH256557   1.305   2.695   2.612 -0.1481  0.2061  0.3440
11689TIP3    H156558   1.349   2.637   2.549  0.3384 -0.1046  0.9598
11689TIP3    H256559   1.363   2.696   2.688 -1.4741 -0.6528  1.4047
11690TIP3   OH256560   5.137   3.753   5.584  0.2849  0.3833 -0.5613
11690TIP3    H156561   5.112   3.788   5.498  0.3903 -0.4380 -0.9405
11690TIP3    H256562   5.212   3.696   5.566 -0.0447 -0.2396 -0.0081
11691TIP3   OH256563   0.677   4.193  14.716  0.1117  0.2743  0.1831
11691TIP3    H156564   0.667   4.144  14.798 -0.7874 -0.2874 -0.2452
11691TIP3    H256565   0.648   4.282  14.737  1.4788  0.5885  0.8926
11692TIP3   OH256566   3.293   2.630   3.061  0.8448  0.2948  0.5518
11692TIP3    H156567   3.338   2.661   3.139  0.4517  0.4004  0.7387
11692TIP3    H256568   3.363   2.601   3.002  1.1418  0.2325  0.9348
11693TIP3   OH256569   2.208   2.623  16.463  0.1571  0.6934  0.0257
11693TIP3    H156570   2.184   2.537  16.429 -0.4010  1.0567 -0.5271
11693TIP3    H256571   2.145   2.639  16.534  2.1758 -0.6591  2.2463
11694TIP3   OH256572   2.768   3.856   0.918  0.2835  0.4610 -0.0196
11694TIP3    H156573   2.701   3.804   0.875 -1.5238  1.0010  1.9981
11694TIP3    H256574   2.831   3.792   0.950 -0.3934 -0.2385 -0.0707
11695TIP3   OH256575   3.437   5.053  13.306 -0.0467  0.4714 -0.0974
11695TIP3    H156576   3.359   5.041  13.251  0.0156 -0.5706  0.0125
11695TIP3    H256577   3.451   5.147  13.308 -0.8130  0.6132 -0.8099
11696TIP3   OH256578   1.786   3.673   2.325  0.4640 -0.1352  0.0012
11696TIP3    H156579   1.777   3.598   2.266  2.9030  1.1651 -2.2450
11696TIP3    H256580   1.717   3.734   2.297  0.6088 -0.1872 -0.4858
11697TIP3   OH256581   1.713   0.157   2.363 -0.1541 -0.1589  0.0188
11697TIP3    H156582   1.736   0.224   2.428  2.4895 -0.3153 -0.6295
11697TIP3    H256583   1.712   0.075   2.413  0.1471 -0.0628  0.1875
11698TIP3   OH256584   5.097   6.412  13.826  0.1050  0.4669  0.2789
11698TIP3    H156585   5.107   6.317  13.834  1.8704  0.7270  2.0235
11698TIP3    H256586   5.172   6.439  13.773 -1.4105  0.7597 -1.8304
11699TIP3   OH256587   5.355   2.532   0.986  0.2971  0.1436 -0.2426
11699TIP3    H156588   5.338   2.443   0.955 -1.1162 -0.8291  2.8603
11699TIP3    H256589   5.270   2.574   0.985  0.5205  0.6302  0.5965
11700TIP3   OH256590   1.463   2.512   4.003  0.3005  0.4027 -0.6829
11700TIP3    H156591   1.547   2.484   3.967  0.8178  1.7387 -0.5766
11700TIP3    H256592   1.485   2.564   4.080 -0.7882 -2.2064  1.5489
11701TIP3   OH256593   5.467   4.737   6.167  0.6027 -0.5891 -0.2637
11701TIP3    H156594   5.440   4.799   6.099  1.9583  0.3361  0.0078
11701TIP3    H256595   5.556   4.712   6.142  1.4082  0.3312  1.5059
11702TIP3   OH256596   6.784   0.702  13.088  0.2900  0.6655  0.0841
11702TIP3    H156597   6.747   0.689  13.176 -2.0407  1.8603 -0.6371
11702TIP3    H256598   6.876   0.675  13.097  0.1066  0.6147  2.8335
11703TIP3   OH256599   0.882   1.568   5.636 -0.6703  0.0130  0.3665
11703TIP3    H156600   0.817   1.525   5.582 -1.1140  1.2638 -0.1502
11703TIP3    H256601   0.905   1.504   5.704 -0.3293 -1.4812 -1.0954
11704TIP3   OH256602   5.188   0.662   2.582 -0.0806  0.2242  0.4235
11704TIP3    H156603   5.093   0.652   2.580 -0.0797  0.1987  0.5652
11704TIP3    H256604   5.219   0.607   2.510 -0.1257 -0.2563  0.7674
11705TIP3   OH256605   5.830   1.507   1.687 -0.1235  0.0801  0.1836
11705TIP3    H156606   5.852   1.493   1.779 -0.3443  1.2219  0.4228
11705TIP3    H256607   5.908   1.549   1.651 -0.7918  1.5286  0.3571
11706TIP3   OH256608   4.932   4.933  12.521 -0.3047  0.0093  0.0245
11706TIP3    H156609   5.017   4.904  12.555 -0.4008 -0.2338  0.0627
11706TIP3    H256610   4.877   4.854  12.525  0.0128 -0.3578 -1.8145
11707TIP3   OH256611   3.476   1.390   5.543  0.5722  0.3072 -0.2700
11707TIP3    H156612   3.533   1.349   5.478  0.9455 -1.7633  1.2649
11707TIP3    H256613   3.394   1.405   5.496  0.8412 -1.1046 -1.2754
11708TIP3   OH256614   0.200   1.788  14.742 -0.2748  0.6112  0.4444
11708TIP3    H156615   0.254   1.751  14.672  0.4733  2.6355 -0.1113
11708TIP3    H256616   0.203   1.722  14.812 -0.2572 -1.0271 -1.0439
11709TIP3   OH256617   2.899   6.540   3.265  0.1540  0.0160 -0.7764
11709TIP3    H156618   2.860   6.460   3.302  0.4081  0.7175  1.1403
11709TIP3    H256619   2.872   6.609   3.325  1.7528  1.0249 -1.1621
11710TIP3   OH256620   5.733   0.006   2.112 -0.3877 -0.7992  0.0491
11710TIP3    H156621   5.688   0.050   2.040 -0.6214  0.7297  1.0840
11710TIP3    H256622   5.808  -0.037   2.070  0.8355  1.9496 -0.8766
11711TIP3   OH256623   0.687   6.606   6.196 -0.3472 -0.2870  0.2178
11711TIP3    H156624   0.711   6.631   6.107 -0.9333 -1.1930 -0.2138
11711TIP3    H256625   0.767   6.571   6.234 -0.3690 -1.0059 -0.3696
11712TIP3   OH256626   5.051   5.075   0.557  0.3238  0.1364  0.6150
11712TIP3    H156627   5.128   5.083   0.502 -0.0880  0.2793  0.0470
11712TIP3    H256628   4.986   5.033   0.501 -0.2607  0.7335  0.8245
11713TIP3   OH256629   4.149   5.224  15.519  0.0517 -0.3631 -0.6845
11713TIP3    H156630   4.123   5.186  15.435 -0.4543 -1.7686  0.0862
11713TIP3    H256631   4.113   5.165  15.585 -0.6700  1.3973  0.5721
11714TIP3   OH256632   1.826   6.163  15.674 -0.0783 -0.6226 -0.1972
11714TIP3    H156633   1.781   6.191  15.594 -0.5213 -0.5815  0.0609
11714TIP3    H256634   1.877   6.087  15.648 -0.6402 -0.9344 -0.4061
11715TIP3   OH256635   6.038   5.944  15.383  0.3418 -0.0349 -0.1783
11715TIP3    H156636   6.116   5.947  15.439  1.1885 -0.4468 -1.2904
11715TIP3    H256637   5.980   5.882  15.426  0.4589  0.5705  0.8738
11716TIP3   OH256638   1.301   2.399  11.495 -0.4187 -0.1167  0.7687
11716TIP3    H156639   1.332   2.309  11.506  1.3950 -0.1463 -3.0057
11716TIP3    H256640   1.340   2.447  11.568  2.3557 -1.6284  0.4297
11717TIP3   OH256641   2.976   5.536   2.571  0.4052 -1.1457  0.3328
11717TIP3    H156642   3.023   5.457   2.541 -1.1010 -2.1158  0.3988
11717TIP3    H256643   2.927   5.565   2.494 -1.7234 -2.3367  1.1307
11718TIP3   OH256644   5.345   6.120  12.578 -0.4136 -0.2181 -0.0916
11718TIP3    H156645   5.428   6.156  12.548 -0.3857 -1.5035 -1.6999
11718TIP3    H256646   5.343   6.139  12.672  1.1885  0.7769 -0.2235
11719TIP3   OH256647   0.877   3.974   0.695  0.3892 -0.3922  0.2933
11719TIP3    H156648   0.966   3.990   0.666  1.4880  0.1655  3.5447
11719TIP3    H256649   0.829   4.054   0.672  1.5988  0.6946  1.3846
11720TIP3   OH256650   4.308   5.364   0.884 -0.5077  0.1019  0.2113
11720TIP3    H156651   4.357   5.286   0.857  0.5146  1.0154 -0.6496
11720TIP3    H256652   4.351   5.392   0.965  0.5588  1.0067 -0.6390
11721TIP3   OH256653   2.688   3.243   1.821  0.2938 -0.6189  0.2046
11721TIP3    H156654   2.697   3.183   1.747 -0.0500 -1.9063  1.1692
11721TIP3    H256655   2.763   3.223   1.877 -1.2869 -2.2199  1.9111
11722TIP3   OH256656   0.785   1.898   4.109  0.1809  0.3544 -0.1158
11722TIP3    H156657   0.728   1.878   4.035  0.2590  0.4647 -0.2070
11722TIP3    H256658   0.770   1.991   4.127 -0.6886  0.0611  0.7453
11723TIP3   OH256659   0.005   1.625  16.599 -0.1036 -0.1288  0.3063
11723TIP3    H156660   0.075   1.685  16.576  1.3594 -1.3613  1.3726
11723TIP3    H256661  -0.075   1.670  16.571  0.9634  1.9983  0.4667
11724TIP3   OH256662   1.481   5.539  12.058 -0.1326  1.1621  0.0878
11724TIP3    H156663   1.487   5.604  11.987  2.7284  1.4961  0.4830
11724TIP3    H256664   1.454   5.459  12.014  0.7153  1.5751 -1.2603
11725TIP3   OH256665   5.681   2.828  11.587 -0.0435  0.5541 -0.3208
11725TIP3    H156666   5.705   2.736  11.584  2.0365  1.0640 -0.6499
11725TIP3    H256667   5.672   2.848  11.680 -1.6462 -0.2222 -0.2854
11726TIP3   OH256668   4.677   5.215   1.086 -0.5002 -0.0803 -0.2647
11726TIP3    H156669   4.737   5.285   1.111 -1.6873  0.6031  0.7507
11726TIP3    H256670   4.591   5.246   1.113 -1.2620 -1.2583 -1.2327
11727TIP3   OH256671   3.949   4.342   5.414 -0.3351  0.2776 -0.4375
11727TIP3    H156672   4.040   4.339   5.382 -0.2814 -0.1133 -0.2517
11727TIP3    H256673   3.945   4.420   5.468  0.2386 -0.3676  0.5771
11728TIP3   OH256674   3.883   0.529  15.781 -0.2398 -0.6685 -0.5751
11728TIP3    H156675   3.906   0.541  15.873 -1.6619  0.0533 -0.2904
11728TIP3    H256676   3.840   0.444  15.777  1.7284 -1.6970 -0.9870
11729TIP3   OH256677   1.501   1.840   0.989  0.1281 -0.0691 -0.0301
11729TIP3    H156678   1.563   1.796   1.047  0.3816  1.9145  1.2839
11729TIP3    H256679   1.553   1.907   0.945 -0.9530  1.3365  0.7644
11730TIP3   OH256680   4.124   0.655  17.194 -0.1461  0.2333 -0.1304
11730TIP3    H156681   4.135   0.720  17.124  0.3223 -1.0544 -1.2895
11730TIP3    H256682   4.169   0.577  17.162 -0.0566 -0.4432  1.5596
11731TIP3   OH256683   5.935   2.161   4.758  0.1681  0.0287 -0.4195
11731TIP3    H156684   5.901   2.250   4.748  0.2491  0.1103  0.0084
11731TIP3    H256685   5.958   2.155   4.850 -0.4235 -0.6516 -0.3114
11732TIP3   OH256686   4.807   6.042   2.668 -0.0875  0.0132 -0.1373
11732TIP3    H156687   4.778   6.133   2.672  0.6935  0.2311  1.1819
11732TIP3    H256688   4.838   6.030   2.578 -1.8436  0.4976 -0.8520
11733TIP3   OH256689   4.468   0.314  12.374  0.4009 -0.4657 -0.3879
11733TIP3    H156690   4.415   0.362  12.312 -0.3331 -0.3210  0.3282
11733TIP3    H256691   4.486   0.376  12.445  0.7034 -0.8016 -0.1619
11734TIP3   OH256692   5.238   2.483   0.372  0.5076  0.2955  0.5008
11734TIP3    H156693   5.315   2.537   0.392 -0.0167  1.0315  0.5803
11734TIP3    H256694   5.273   2.408   0.323  1.0797  1.4541 -0.9378
11735TIP3   OH256695   3.293   6.334   0.525 -0.0408  0.0365  0.5800
11735TIP3    H156696   3.274   6.374   0.440  0.9737 -0.5040  0.0862
11735TIP3    H256697   3.216   6.281   0.544 -0.0635 -0.2440 -0.2473
11736TIP3   OH256698   1.396   5.622   1.307 -0.0438  0.2556  0.1104
11736TIP3    H156699   1.305   5.595   1.295  0.2062 -0.3372 -0.5556
11736TIP3    H256700   1.391   5.709   1.345 -0.8867 -0.2736  1.2592
11737TIP3   OH256701   5.355   6.178  17.128 -0.0675 -0.2326 -0.0434
11737TIP3    H156702   5.330   6.231  17.204  0.8700 -0.6713  0.5955
11737TIP3    H256703   5.401   6.239  17.071 -0.4140  0.0059 -0.0742
11738TIP3   OH256704   4.811   6.499   5.771  0.4250  0.1272  0.4174
11738TIP3    H156705   4.779   6.573   5.821 -0.5519  0.9790 -1.3591
11738TIP3    H256706   4.853   6.538   5.694  0.3575 -1.1289 -0.2982
11739TIP3   OH256707   4.994   1.907   2.440 -0.3879 -0.1574  0.0438
11739TIP3    H156708   4.913   1.957   2.442  0.4354  1.1846  0.8518
11739TIP3    H256709   5.029   1.921   2.352 -1.4234 -1.4644 -0.6230
11740TIP3   OH256710   1.089   2.412   2.916 -0.3477  0.3859 -0.6525
11740TIP3    H156711   1.123   2.501   2.914 -1.0389  0.6501 -2.2895
11740TIP3    H256712   1.164   2.358   2.944  0.0327  1.4695  0.4987
11741TIP3   OH256713   4.268   0.997   1.543  0.5372 -0.0416 -0.2103
11741TIP3    H156714   4.241   0.957   1.460 -0.0617 -0.7059  0.2964
11741TIP3    H256715   4.224   1.082   1.545 -1.9397 -1.2401  0.7712
11742TIP3   OH256716   0.352   4.292  14.134  0.4723  0.2305  0.0763
11742TIP3    H156717   0.360   4.326  14.223 -1.4014 -0.0788  0.4124
11742TIP3    H256718   0.386   4.362  14.078  1.1731  0.6436  1.0009
11743TIP3   OH256719   2.321   5.432  14.117 -0.2815  0.2558  0.2396
11743TIP3    H156720   2.280   5.475  14.192  1.8320  0.3312  1.4019
11743TIP3    H256721   2.395   5.488  14.095  0.1238 -0.6728 -0.8400
11744TIP3   OH256722   3.205   1.275  11.165  0.5533  0.0154 -0.1435
11744TIP3    H156723   3.264   1.307  11.096 -0.8219  1.1996 -0.8334
11744TIP3    H256724   3.143   1.219  11.118 -0.4936  0.9607  0.0699
11745TIP3   OH256725   1.531   1.684  14.885  0.6106  0.3091  0.1715
11745TIP3    H156726   1.544   1.730  14.802  1.4011  0.9128  0.6105
11745TIP3    H256727   1.522   1.592  14.861  2.1658  0.2983 -0.5012
11746TIP3   OH256728   2.054   2.600  15.685  0.3368  0.1446  0.3441
11746TIP3    H156729   1.988   2.667  15.702 -0.1532 -0.5396  1.2777
11746TIP3    H256730   2.137   2.642  15.706  0.1770  0.8974 -0.4787
11747TIP3   OH256731   3.901   2.695  15.219  0.0315  0.2117  0.2462
11747TIP3    H156732   3.884   2.666  15.309  0.5560 -0.6077  0.0861
11747TIP3    H256733   3.897   2.791  15.224 -2.8171  0.1477  0.5522
11748TIP3   OH256734   6.165   2.866   3.457  0.3665  0.0049 -0.0166
11748TIP3    H156735   6.203   2.804   3.519 -1.0137 -3.2012 -2.1336
11748TIP3    H256736   6.171   2.822   3.372 -0.8026  2.7819 -1.6750
11749TIP3   OH256737   5.680   5.590  13.637 -0.2873  0.2843  0.1690
11749TIP3    H156738   5.744   5.549  13.579  0.4024  0.1742  1.0028
11749TIP3    H256739   5.673   5.531  13.712  0.5263  1.5078  1.2584
11750TIP3   OH256740   0.317   0.824   3.571 -0.7072 -0.3335 -0.1818
11750TIP3    H156741   0.247   0.846   3.633 -1.9149 -0.0144 -1.5870
11750TIP3    H256742   0.354   0.743   3.605 -0.4031  0.5221  1.6793
11751TIP3   OH256743   0.502   0.248  12.898  0.1661 -0.0322  0.2323
11751TIP3    H156744   0.566   0.233  12.968 -1.3403  0.4734  1.7922
11751TIP3    H256745   0.549   0.229  12.817  1.4729 -2.5064  1.4625
11752TIP3   OH256746   1.363   2.211  13.559 -0.1925 -0.0337 -0.3092
11752TIP3    H156747   1.276   2.208  13.518  0.2850  0.2705 -1.3676
11752TIP3    H256748   1.398   2.296  13.534  0.5393 -0.2885 -0.1537
11753TIP3   OH256749   0.168   4.545   1.513 -0.1855 -0.3201 -0.2375
11753TIP3    H156750   0.224   4.576   1.584 -0.7943  0.1998  0.0245
11753TIP3    H256751   0.229   4.511   1.448  0.3594 -1.4540  0.8275
11754TIP3   OH256752   6.304   1.715  12.427 -0.1879 -0.2570 -0.2367
11754TIP3    H156753   6.211   1.702  12.406 -0.5695  0.6854  0.7777
11754TIP3    H256754   6.329   1.793  12.378  0.5586 -1.4273 -1.8269
11755TIP3   OH256755   2.107   1.487  11.510 -0.3016 -0.6054  0.2547
11755TIP3    H156756   2.188   1.535  11.494 -0.6404 -0.5266 -1.4930
11755TIP3    H256757   2.052   1.548  11.559  0.7104 -0.7064  1.5622
11756TIP3   OH256758   1.696   0.111   3.089 -0.0319  0.2272  0.1298
11756TIP3    H156759   1.731   0.162   3.162 -1.8881  2.0996 -0.2113
11756TIP3    H256760   1.620   0.066   3.126 -0.8822  1.0509 -0.5832
11757TIP3   OH256761   1.169   5.248   4.003 -0.3141 -0.3954 -0.4462
11757TIP3    H156762   1.118   5.328   4.009  1.3651  0.6273  0.9318
11757TIP3    H256763   1.133   5.203   3.926 -2.8150  0.5419  0.0701
11758TIP3   OH256764   5.833   3.947   0.989 -0.3652  0.3936 -0.3562
11758TIP3    H156765   5.905   4.006   1.012 -0.5345  0.3538  0.2986
11758TIP3    H256766   5.821   3.892   1.067 -0.6914 -0.0160 -0.6899
11759TIP3   OH256767   3.750   6.753   3.799 -0.1803  0.4323 -1.0656
11759TIP3    H156768   3.729   6.846   3.792 -0.4583  0.3232 -1.7757
11759TIP3    H256769   3.763   6.738   3.893 -0.0199  1.2070 -0.9566
11760TIP3   OH256770   4.156   5.028  11.841  0.7103 -0.6733  0.0831
11760TIP3    H156771   4.086   5.076  11.884 -1.1010 -1.2386 -2.0692
11760TIP3    H256772   4.120   4.941  11.826  1.1793 -0.5020 -2.5715
11761TIP3   OH256773   5.424   2.245   4.330 -0.3944 -0.2964 -0.0361
11761TIP3    H156774   5.517   2.261   4.342 -0.5458 -0.2521  1.2245
11761TIP3    H256775   5.407   2.268   4.238  0.9499 -0.9561 -0.4706
11762TIP3   OH256776   4.397   2.385   2.822  0.0403  0.1959 -0.6146
11762TIP3    H156777   4.426   2.471   2.792  0.1815 -0.1523 -1.5076
11762TIP3    H256778   4.463   2.324   2.789 -1.6562 -0.6231 -2.7288
11763TIP3   OH256779   0.629   1.263   4.131 -0.5209 -0.0793 -0.3669
11763TIP3    H156780   0.635   1.181   4.180 -1.5432  0.2316  0.2960
11763TIP3    H256781   0.667   1.242   4.045 -0.7370 -1.2346 -0.1966
11764TIP3   OH256782   5.494   3.795  13.341 -1.0618  0.0958 -0.2405
11764TIP3    H156783   5.554   3.740  13.393 -2.1025 -0.6884  0.1687
11764TIP3    H256784   5.519   3.778  13.250 -1.1252 -0.7994 -0.1046
11765TIP3   OH256785   2.056   4.132  11.079  0.1067  0.0575  0.0599
11765TIP3    H156786   1.970   4.128  11.119  0.4674 -1.8157  0.7808
11765TIP3    H256787   2.075   4.225  11.071 -0.5963  0.5625  2.9742
11766TIP3   OH256788   4.588   1.749  16.776  0.3712 -0.2361 -0.5435
11766TIP3    H156789   4.536   1.793  16.709  0.2839  0.5779  0.0296
11766TIP3    H256790   4.567   1.657  16.767 -0.1964 -0.0558 -1.1493
11767TIP3   OH256791   1.168   2.906   1.048 -0.3218 -0.4690 -0.3131
11767TIP3    H156792   1.122   2.964   0.988 -0.0919  1.3439  1.1670
11767TIP3    H256793   1.213   2.843   0.992 -0.5387  0.8315 -2.0023
11768TIP3   OH256794   2.238   2.752   3.232 -0.2185  0.7144 -0.0867
11768TIP3    H156795   2.317   2.721   3.189 -1.3360 -0.8529 -1.1273
11768TIP3    H256796   2.221   2.689   3.301 -0.7391  0.8268 -0.1039
11769TIP3   OH256797   6.007   6.039   0.433  0.0097  0.2167 -0.2955
11769TIP3    H156798   5.990   6.092   0.511 -0.6081  0.6844 -0.7452
11769TIP3    H256799   5.984   5.950   0.459 -1.3535  0.5504 -0.3068
11770TIP3   OH256800   0.968   3.515   2.737  0.2912 -0.5818 -0.5695
11770TIP3    H156801   1.026   3.452   2.695 -0.5075 -0.6543 -1.6227
11770TIP3    H256802   0.883   3.471   2.741  0.0891 -0.1510  0.1205
11771TIP3   OH256803   4.935   4.681   0.594 -0.1066 -0.6969  0.2649
11771TIP3    H156804   5.021   4.684   0.552 -1.2017 -0.6441 -2.1298
11771TIP3    H256805   4.928   4.764   0.640  1.1503 -0.7572  0.6110
11772TIP3   OH256806   5.497   3.378  16.807 -0.0420 -0.3653  0.4450
11772TIP3    H156807   5.425   3.442  16.807 -0.8796 -1.2798  0.9046
11772TIP3    H256808   5.457   3.297  16.838  1.0666 -1.0497  0.1434
11773TIP3   OH256809   5.500   4.984   3.321 -0.1396 -0.0412  0.2676
11773TIP3    H156810   5.546   4.943   3.248 -0.5245  0.7294 -0.4384
11773TIP3    H256811   5.459   5.062   3.282  0.5626  1.0053  1.5419
11774TIP3   OH256812   4.265   6.635  12.863  0.0408 -0.0495 -0.2415
11774TIP3    H156813   4.199   6.671  12.803 -0.5571 -1.2603 -0.3433
11774TIP3    H256814   4.280   6.704  12.927 -1.2099  0.3129 -0.3154
11775TIP3   OH256815   0.721   1.785   5.628 -0.3426  0.7506  0.1736
11775TIP3    H156816   0.793   1.721   5.631 -0.0718  1.0743  1.1762
11775TIP3    H256817   0.649   1.742   5.675 -0.2884  1.0251  0.5105
11776TIP3   OH256818   0.224   6.327   0.374  0.2953 -0.7659  0.1150
11776TIP3    H156819   0.176   6.356   0.297  0.2174 -0.1899  0.3811
11776TIP3    H256820   0.163   6.269   0.420 -0.3557  0.3985  0.7432
11777TIP3   OH256821   2.291   2.729  17.120  0.1190  0.3619 -0.6674
11777TIP3    H156822   2.242   2.757  17.197 -0.7188 -1.0657 -0.6342
11777TIP3    H256823   2.380   2.711  17.153 -0.2900 -0.4576  0.0299
11778TIP3   OH256824   0.230   0.219  11.361 -0.4134 -0.1505  0.3939
11778TIP3    H156825   0.316   0.256  11.382 -0.9050  1.0017  0.4710
11778TIP3    H256826   0.195   0.276  11.293 -1.4546 -0.1006  0.9472
11779TIP3   OH256827   5.427   0.205   1.677  0.1441 -0.1864 -0.3251
11779TIP3    H156828   5.455   0.158   1.599  1.1465 -1.1521  0.5746
11779TIP3    H256829   5.353   0.153   1.711  0.5177 -0.4899  0.0408
11780TIP3   OH256830   3.281   6.039  10.580 -1.0787 -0.2957  0.3078
11780TIP3    H156831   3.314   6.128  10.595  0.6576 -0.9063  0.4105
11780TIP3    H256832   3.216   6.025  10.649 -0.0126  0.2590  1.4559
11781TIP3   OH256833   6.741   3.989  16.470 -0.1760  0.2106 -0.0772
11781TIP3    H156834   6.687   4.068  16.462  0.8806  1.1495  1.6077
11781TIP3    H256835   6.831   4.021  16.468  0.2938 -1.0758 -0.2988
11782TIP3   OH256836   3.868   5.311  10.958  1.1205 -0.2486  0.2966
11782TIP3    H156837   3.814   5.388  10.941  1.2510 -0.6388 -2.1849
11782TIP3    H256838   3.957   5.345  10.965  0.9773  0.0037  0.9545
11783TIP3   OH256839   4.435   5.908  17.302  0.0950 -0.3097 -0.2255
11783TIP3    H156840   4.434   5.923  17.396  0.3941  0.6874 -0.3666
11783TIP3    H256841   4.343   5.894  17.279 -0.2221  1.2169 -0.0263
11784TIP3   OH256842   0.552   0.652  15.932 -0.0587  0.6391  0.4017
11784TIP3    H156843   0.624   0.713  15.922 -0.1170  0.9577  1.7085
11784TIP3    H256844   0.477   0.696  15.892  0.5651  0.0164 -1.5920
11785TIP3   OH256845   4.999   5.134   4.469  0.1768 -0.0065 -0.3141
11785TIP3    H156846   5.002   5.223   4.434 -1.3791  0.4879  0.6902
11785TIP3    H256847   5.054   5.137   4.547  2.1653 -0.6306 -1.6278
11786TIP3   OH256848   6.276   6.164   5.664  0.2388  0.7181 -0.2715
11786TIP3    H156849   6.351   6.139   5.610  0.2716  0.5224 -0.1364
11786TIP3    H256850   6.228   6.082   5.679  1.6562  0.2096  2.2067
11787TIP3   OH256851   3.480   1.607  15.577 -0.0223 -0.0037 -0.1904
11787TIP3    H156852   3.413   1.634  15.515  0.4011  2.6069  0.3393
11787TIP3    H256853   3.436   1.606  15.662  0.1013 -0.4976 -0.1291
11788TIP3   OH256854   4.157   5.026  14.975  0.3400 -0.2251  0.8264
11788TIP3    H156855   4.170   4.944  15.023 -1.9110 -2.6469 -2.3297
11788TIP3    H256856   4.236   5.077  14.994  1.4202 -2.6400  3.6952
11789TIP3   OH256857   3.213   4.097  14.476 -0.3121  0.5853 -0.2094
11789TIP3    H156858   3.168   4.069  14.556 -1.5872 -0.7736 -1.3254
11789TIP3    H256859   3.156   4.164  14.439 -0.3753  0.3370 -0.5735
11790TIP3   OH256860   3.942   3.688  16.159 -0.4069  0.1015  0.0701
11790TIP3    H156861   3.886   3.611  16.146  1.3708 -1.1136 -0.6443
11790TIP3    H256862   3.938   3.735  16.076 -1.7966  1.0741  0.6247
11791TIP3   OH256863   0.588   3.512  13.083  0.3535  0.1669 -0.7574
11791TIP3    H156864   0.521   3.525  13.015  0.4667 -1.2876 -1.1755
11791TIP3    H256865   0.649   3.584  13.069 -0.8602  1.2481 -0.6728
11792TIP3   OH256866   0.023   3.846  13.702 -0.7911 -0.0742  0.1046
11792TIP3    H156867  -0.055   3.871  13.750 -0.5983 -0.2554  0.5152
11792TIP3    H256868   0.084   3.814  13.769 -0.0841  0.7715 -0.1169
11793TIP3   OH256869   2.751   0.991  16.507  0.4240 -0.5294 -0.3308
11793TIP3    H156870   2.834   1.031  16.481  0.6908 -0.8912 -0.0389
11793TIP3    H256871   2.700   1.063  16.543  1.0220 -0.5081  0.4924
11794TIP3   OH256872   5.206   0.046   1.762 -0.2883  0.1149 -0.1006
11794TIP3    H156873   5.193  -0.030   1.705 -1.1861 -0.3203  0.6505
11794TIP3    H256874   5.217   0.009   1.850  0.2910  0.8124  0.1341
11795TIP3   OH256875   3.803   1.566   5.891  0.0745 -0.1461  0.5195
11795TIP3    H156876   3.737   1.518   5.840  1.0915 -2.1801  0.9925
11795TIP3    H256877   3.752   1.627   5.944 -1.2018  0.1160 -0.9211
11796TIP3   OH256878   4.181   3.675  10.793  0.5560  0.0153 -0.1875
11796TIP3    H156879   4.134   3.756  10.815  2.1220  0.9569 -0.1798
11796TIP3    H256880   4.137   3.643  10.714 -0.5678  0.4488  0.2451
11797TIP3   OH256881   4.398   0.095  11.265 -0.1449  0.0877  0.4345
11797TIP3    H156882   4.414   0.147  11.343 -3.1477 -0.4795  1.5700
11797TIP3    H256883   4.485   0.076  11.230  1.2256  1.7399  2.6949
11798TIP3   OH256884   1.268   0.121   3.721 -0.2834 -0.2648 -0.6940
11798TIP3    H156885   1.236   0.100   3.633  0.4324 -2.3176 -0.5142
11798TIP3    H256886   1.362   0.129   3.712 -0.1820 -0.6745 -0.1016
11799TIP3   OH256887   5.946   2.620  12.650 -0.1654 -0.1015 -0.4396
11799TIP3    H156888   5.884   2.639  12.721 -0.5215  1.3764 -1.1063
11799TIP3    H256889   6.030   2.651  12.683  0.3561 -2.4895  0.6334
11800TIP3   OH256890   0.792   2.313   5.294  0.5710  0.3402  0.4286
11800TIP3    H156891   0.777   2.223   5.268  1.6866  0.1601  0.3732
11800TIP3    H256892   0.734   2.364   5.238  0.8921 -0.2509 -0.4627
11801TIP3   OH256893   1.878   5.901  12.113  0.5922 -0.0460  0.0430
11801TIP3    H156894   1.834   5.975  12.071  1.5836  0.8700  0.5418
11801TIP3    H256895   1.909   5.847  12.040 -1.8420 -1.0752 -0.3179
11802TIP3   OH256896   3.242   4.855  11.811 -0.5533 -0.0016  0.0695
11802TIP3    H156897   3.233   4.825  11.720  0.5642 -0.1406 -0.0092
11802TIP3    H256898   3.165   4.909  11.826 -0.3021  0.7989 -1.2884
11803TIP3   OH256899   4.317   0.042  15.570 -0.4871 -0.7290  0.4462
11803TIP3    H156900   4.295   0.012  15.658 -2.5332 -1.5096 -0.2610
11803TIP3    H256901   4.306   0.137  15.574 -1.5462 -0.8457  0.8204
11804TIP3   OH256902   0.707   2.129   2.605  0.1598 -0.5536 -0.3768
11804TIP3    H156903   0.733   2.168   2.688  0.9421  1.0036 -1.3110
11804TIP3    H256904   0.743   2.188   2.538 -2.6289 -0.3089 -1.8074
11805TIP3   OH256905   6.101   6.249   2.417 -0.1325 -0.0239 -0.1988
11805TIP3    H156906   6.170   6.196   2.378  0.5781  1.2075 -0.6655
11805TIP3    H256907   6.024   6.231   2.363 -0.0518 -1.0040 -0.0013
11806TIP3   OH256908   4.628   2.733  11.431 -0.5330  0.5043 -0.1991
11806TIP3    H156909   4.619   2.825  11.406 -2.2922 -0.0325 -1.7398
11806TIP3    H256910   4.637   2.687  11.348 -2.6255 -0.9932  0.3456
11807TIP3   OH256911   1.266   0.322  14.848  0.1133 -0.0795 -0.2467
11807TIP3    H156912   1.343   0.374  14.829  0.2927 -0.5672 -0.9070
11807TIP3    H256913   1.216   0.374  14.911 -0.0913  1.2401 -1.4416
11808TIP3   OH256914   1.463   4.363   1.044 -0.4204  0.4893 -0.1903
11808TIP3    H156915   1.478   4.279   1.088  0.2968 -0.9656 -2.9781
11808TIP3    H256916   1.519   4.425   1.091  1.8116 -1.3886 -0.1838
11809TIP3   OH256917   2.321   1.530   3.527 -0.6184  0.2844  0.2556
11809TIP3    H156918   2.410   1.555   3.504  0.3187 -1.4312  1.7601
11809TIP3    H256919   2.297   1.590   3.598 -1.0395  1.3409 -0.7560
11810TIP3   OH256920   3.507   6.260   6.175  0.0094  0.4746  0.3433
11810TIP3    H156921   3.442   6.213   6.227 -1.0502  2.2522  0.7364
11810TIP3    H256922   3.538   6.330   6.233  2.9210 -0.7554  0.4377
11811TIP3   OH256923   5.362   4.783  16.220  0.4175  0.2552  0.1538
11811TIP3    H156924   5.421   4.830  16.277 -0.1179  1.2229 -0.0701
11811TIP3    H256925   5.351   4.697  16.261 -3.0557  2.1356  3.7971
11812TIP3   OH256926   2.402   1.291  13.289  0.4332  0.7869  0.1782
11812TIP3    H156927   2.389   1.196  13.294  1.1891  0.7030  0.7893
11812TIP3    H256928   2.462   1.311  13.361  1.3832  1.5246 -0.7710
11813TIP3   OH256929   6.090   1.703  10.885  0.1771  0.5837 -0.3499
11813TIP3    H156930   6.046   1.618  10.877 -3.6866  2.1274  1.5763
11813TIP3    H256931   6.058   1.753  10.810  0.5100  1.0419 -0.1889
11814TIP3   OH256932   0.207   3.186  12.801 -0.0690 -0.4906  0.4879
11814TIP3    H156933   0.169   3.257  12.749  0.8755  0.1638  0.6602
11814TIP3    H256934   0.295   3.174  12.764  0.4499 -0.3263  1.6187
11815TIP3   OH256935   1.290   4.730   2.029 -0.9635  0.0082  0.3476
11815TIP3    H156936   1.254   4.725   1.940 -0.6330 -2.2506  0.2842
11815TIP3    H256937   1.229   4.679   2.082  0.3356 -1.0866  0.8501
11816TIP3   OH256938   2.605   4.535   1.278 -0.2448 -0.5188 -0.0185
11816TIP3    H156939   2.549   4.517   1.353  1.8546 -2.5383  1.2047
11816TIP3    H256940   2.661   4.607   1.307 -0.1433 -0.5900 -0.0358
11817TIP3   OH256941   1.413   3.159  16.804  0.1257  0.6364 -0.1286
11817TIP3    H156942   1.362   3.239  16.794  2.4716  2.3650  0.7357
11817TIP3    H256943   1.504   3.188  16.799  1.0907 -1.7921  1.5164
11818TIP3   OH256944   3.268   1.313  17.112  0.0702  0.5315 -0.0560
11818TIP3    H156945   3.197   1.329  17.174 -0.5419  0.5896 -0.7659
11818TIP3    H256946   3.334   1.379  17.134 -0.1275  0.5355  0.5473
11819TIP3   OH256947   0.908   0.785   3.594  0.6114  0.5074  0.5394
11819TIP3    H156948   0.949   0.698   3.591 -2.1946 -0.9305 -1.6149
11819TIP3    H256949   0.815   0.768   3.574  0.1596  4.1084 -1.2190
11820TIP3   OH256950   0.318   3.961   1.400  0.0015  0.5393  0.1546
11820TIP3    H156951   0.405   3.991   1.375  0.1823  0.9426  1.2258
11820TIP3    H256952   0.320   3.866   1.384  0.1613  0.7331 -1.1223
11821TIP3   OH256953   5.724   0.356   4.682  0.3023 -0.1165  0.1978
11821TIP3    H156954   5.630   0.366   4.693  0.4715  0.2881  1.3981
11821TIP3    H256955   5.759   0.444   4.696  0.8566 -0.2426 -0.3539
11822TIP3   OH256956   0.699   3.337  16.636  0.0373 -0.9987 -0.1549
11822TIP3    H156957   0.756   3.405  16.670  0.2055 -0.3078 -1.7407
11822TIP3    H256958   0.679   3.283  16.712  0.2288  0.5681  1.0592
11823TIP3   OH256959   1.059   4.606   1.792 -0.8471 -0.4682  0.2664
11823TIP3    H156960   0.967   4.591   1.770 -0.3712 -0.5177 -1.9504
11823TIP3    H256961   1.107   4.548   1.733  0.6310  0.4045  0.5580
11824TIP3   OH256962   1.637   1.582  11.067 -0.4739  0.5972  0.5900
11824TIP3    H156963   1.673   1.667  11.040 -0.7227  0.8063  0.9094
11824TIP3    H256964   1.553   1.604  11.108 -2.0358 -0.0324 -2.0250
11825TIP3   OH256965   2.348   1.057   0.971 -0.4920 -0.8461  0.1999
11825TIP3    H156966   2.403   1.076   1.047 -1.0335  0.1751  0.3698
11825TIP3    H256967   2.306   0.974   0.991  0.2684 -1.1656  0.4855
11826TIP3   OH256968   4.292   0.095   5.315 -0.3270  0.5150  0.8409
11826TIP3    H156969   4.299   0.131   5.226  1.8748  0.5532  0.9827
11826TIP3    H256970   4.241   0.161   5.363  0.7968  1.8598  0.2704
11827TIP3   OH256971   2.278   4.358   5.622 -0.3033  0.6226  0.0499
11827TIP3    H156972   2.230   4.371   5.703 -0.0098  0.2293  0.2894
11827TIP3    H256973   2.300   4.265   5.622  1.7608  1.0662  0.6700
11828TIP3   OH256974   3.513   1.105  12.225  0.5445  0.1958  0.1865
11828TIP3    H156975   3.570   1.161  12.278 -0.8641  1.1577  0.7578
11828TIP3    H256976   3.473   1.046  12.289  1.0928 -0.6554 -0.2465
11829TIP3   OH256977   3.773   4.379   5.788 -0.0124  0.0373 -0.0483
11829TIP3    H156978   3.818   4.456   5.756  0.0560  1.0920  2.3713
11829TIP3    H256979   3.747   4.331   5.709  0.2858  2.3045 -1.5951
11830TIP3   OH256980   4.507   4.714   1.871 -0.0146 -0.3022 -0.2691
11830TIP3    H156981   4.512   4.622   1.846  2.8063  0.2461 -2.1342
11830TIP3    H256982   4.579   4.726   1.933  0.2061  0.8065 -0.7134
11831TIP3   OH256983   0.694   1.798   6.290 -0.0878 -0.3820 -0.0902
11831TIP3    H156984   0.696   1.862   6.361  1.4080 -0.1495 -0.2958
11831TIP3    H256985   0.720   1.716   6.331 -1.2230 -0.7039  0.0146
11832TIP3   OH256986   0.098   4.995   1.219 -0.1539  0.3613  0.2609
11832TIP3    H156987   0.112   4.977   1.312  2.2596  1.5590  0.2165
11832TIP3    H256988   0.185   4.987   1.180 -0.5169  2.9344 -1.3084
11833TIP3   OH256989   6.381   0.661   5.368  0.3795  0.1624  0.5153
11833TIP3    H156990   6.396   0.701   5.283  1.4107 -0.8605  0.1926
11833TIP3    H256991   6.349   0.573   5.348  0.0398  0.1248  1.1928
11834TIP3   OH256992   5.297   1.642  14.984 -0.2060 -0.2359  0.1498
11834TIP3    H156993   5.379   1.623  14.938  1.1343  1.0296  1.9155
11834TIP3    H256994   5.300   1.736  15.003 -1.8441 -0.2539  0.7008
11835TIP3   OH256995   2.100   1.396   3.391 -0.1841  0.5765  0.1063
11835TIP3    H156996   2.055   1.338   3.452 -1.5519  2.0684  0.6176
11835TIP3    H256997   2.147   1.458   3.447  0.2830  0.6682 -0.3841
11836TIP3   OH256998   2.971   6.307  13.097  0.5145 -0.5138  0.0333
11836TIP3    H156999   2.984   6.218  13.065 -0.3003 -0.3254 -0.9022
11836TIP3    H257000   2.879   6.325  13.078  0.4247  0.2035  1.0632
11837TIP3   OH257001   3.856   1.887   3.446  0.3276 -0.5140  0.1853
11837TIP3    H157002   3.903   1.815   3.487 -0.5417  0.4904  3.2187
11837TIP3    H257003   3.774   1.848   3.414  1.4142 -1.4915 -1.5387
11838TIP3   OH257004   5.613   1.012   0.095 -0.0551 -0.1377  0.4535
11838TIP3    H157005   5.678   0.942   0.106  0.0635 -0.1168 -0.0763
11838TIP3    H257006   5.531   0.965   0.076  0.2565 -0.1316 -1.0786
11839TIP3   OH257007   2.390   1.433   2.747 -0.1350 -0.2530 -0.0998
11839TIP3    H157008   2.436   1.386   2.817  0.0327  0.7031  0.4480
11839TIP3    H257009   2.298   1.408   2.758 -0.0193 -0.6286  0.0366
11840TIP3   OH257010   5.482   6.759   1.916 -0.4260 -0.2930  0.1650
11840TIP3    H157011   5.455   6.845   1.948 -0.3989 -0.2532  0.0817
11840TIP3    H257012   5.507   6.710   1.994  0.3398  0.0450  0.1362
11841TIP3   OH257013   3.657   4.103   1.101  0.7963  0.6047  0.0080
11841TIP3    H157014   3.664   4.171   1.168 -0.2993  1.2897 -0.5504
11841TIP3    H257015   3.738   4.112   1.050  0.6859  1.4555 -0.0324
11842TIP3   OH257016   6.052   4.634  14.335  0.4607 -0.3676 -0.1002
11842TIP3    H157017   6.094   4.605  14.254  0.5125  0.1002 -0.2444
11842TIP3    H257018   6.087   4.722  14.350 -0.6033  0.1114 -0.3233
11843TIP3   OH257019   1.652   1.914   4.631  0.6132  0.8088  0.5978
11843TIP3    H157020   1.724   1.880   4.577 -0.1737 -0.5837  0.3788
11843TIP3    H257021   1.626   1.840   4.686 -0.3859  1.4059  0.9569
11844TIP3   OH257022   2.795   5.172   4.076  0.3558 -0.2691  0.2745
11844TIP3    H157023   2.711   5.137   4.048  2.1469 -3.5262 -1.6995
11844TIP3    H257024   2.791   5.171   4.172 -2.0433  0.4625  0.2529
11845TIP3   OH257025   5.276   3.848   1.531  0.0333  0.2394  0.1773
11845TIP3    H157026   5.362   3.835   1.491 -0.0306  1.3009 -0.3384
11845TIP3    H257027   5.224   3.892   1.463 -1.1758 -1.0990  0.1890
11846TIP3   OH257028   6.259   1.176  12.144  0.3571  0.2543 -0.0212
11846TIP3    H157029   6.219   1.183  12.231 -0.5709  1.5079 -0.5195
11846TIP3    H257030   6.191   1.207  12.084  0.9597 -0.6627 -1.2106
11847TIP3   OH257031   4.753   3.467  14.043  0.0020  0.8888 -0.0409
11847TIP3    H157032   4.759   3.423  14.128 -3.1707  0.9821  0.3512
11847TIP3    H257033   4.816   3.421  13.988 -0.0705 -1.2518  1.5372
11848TIP3   OH257034   1.495   6.771   0.021 -0.3458  0.0067  0.2780
11848TIP3    H157035   1.480   6.682   0.053 -0.6757 -0.0965 -0.1478
11848TIP3    H257036   1.413   6.816   0.038  0.5788  0.9236  2.6783
11849TIP3   OH257037   6.550   4.259  11.465  0.2223  0.2483 -0.0139
11849TIP3    H157038   6.574   4.259  11.373 -1.7370  1.1627 -0.5809
11849TIP3    H257039   6.490   4.185  11.474 -1.1517  1.3343  0.0364
11850TIP3   OH257040   5.479   2.782  14.924  0.4027 -0.3693 -0.1859
11850TIP3    H157041   5.427   2.802  15.002  0.3471 -0.3775 -0.2201
11850TIP3    H257042   5.414   2.761  14.857  0.4460 -4.4457  0.7977
11851TIP3   OH257043   0.626   5.678   3.866  0.6137 -0.1370 -0.3161
11851TIP3    H157044   0.629   5.740   3.939  1.9648 -0.1611 -0.3084
11851TIP3    H257045   0.548   5.626   3.881 -0.2963  1.2544 -0.0683
11852TIP3   OH257046   4.477   0.200   5.535  0.7155  0.2764  0.2459
11852TIP3    H157047   4.436   0.136   5.477  0.7350  0.6691 -0.2027
11852TIP3    H257048   4.475   0.282   5.486  0.4950  0.6705  0.8998
11853TIP3   OH257049   4.758   6.204  12.439  0.2248  0.7304 -0.0672
11853TIP3    H157050   4.765   6.221  12.345 -0.8484  2.8492  0.1748
11853TIP3    H257051   4.664   6.208  12.457  0.4762  1.2853  1.2351
11854TIP3   OH257052   4.105   2.089  10.889  0.1323  0.6200 -0.7081
11854TIP3    H157053   4.090   2.010  10.940  1.0439  1.1001  0.3645
11854TIP3    H257054   4.143   2.058  10.807 -0.1156 -0.0915 -0.5629
11855TIP3   OH257055   5.508   5.303  15.703  0.4982 -0.2407 -0.1651
11855TIP3    H157056   5.443   5.317  15.634 -0.8635  1.2181  1.2957
11855TIP3    H257057   5.532   5.211  15.696 -0.0785 -0.2725 -2.1625
11856TIP3   OH257058   4.717   6.641   4.027  0.3573  0.5077  0.4964
11856TIP3    H157059   4.774   6.679   3.961 -1.1226  2.1724  0.1041
11856TIP3    H257060   4.676   6.566   3.983  0.5756  0.6326  0.0738
11857TIP3   OH257061   2.872   5.247  10.924 -0.2485 -0.2385  0.2982
11857TIP3    H157062   2.794   5.244  10.868  0.5427 -0.3852 -0.8429
11857TIP3    H257063   2.850   5.309  10.993 -1.5592 -0.6560  0.2828
11858TIP3   OH257064   0.513   3.959  11.139  0.6709  0.2543  0.1665
11858TIP3    H157065   0.455   3.884  11.149  0.8065 -0.3302 -2.7335
11858TIP3    H257066   0.601   3.922  11.142  0.7345  0.2061 -1.5730
11859TIP3   OH257067   6.158   3.455  13.077 -0.6018  0.3355  0.5769
11859TIP3    H157068   6.142   3.406  13.158 -0.2333 -0.5823  0.1091
11859TIP3    H257069   6.080   3.438  13.024 -0.7867  0.8344  0.6882
11860TIP3   OH257070   3.153   5.188   4.489 -0.2371 -0.6338  0.2324
11860TIP3    H157071   3.163   5.263   4.431 -1.7832 -0.3316  0.3100
11860TIP3    H257072   3.213   5.206   4.562 -1.0918  0.8811  0.5878
11861TIP3   OH257073   3.895   1.794  15.736 -0.0524  0.0022 -0.3048
11861TIP3    H157074   3.801   1.796  15.752 -0.3684  0.7048 -2.1125
11861TIP3    H257075   3.915   1.877  15.694  1.6171  0.3895  1.1036
11862TIP3   OH257076   6.135   2.140  16.470  0.3769 -0.1436  0.7234
11862TIP3    H157077   6.227   2.116  16.480  0.5662  0.4231  0.4095
11862TIP3    H257078   6.092   2.102  16.547  0.6187 -1.5962  0.1702
11863TIP3   OH257079   2.120   6.687   4.889 -0.3731 -0.0033 -0.1985
11863TIP3    H157080   2.086   6.600   4.909  1.7920 -0.3188  2.7667
11863TIP3    H257081   2.062   6.747   4.935 -0.8353  0.0027 -0.7813
11864TIP3   OH257082   4.805   5.517  15.133 -0.0927  0.3023  0.1306
11864TIP3    H157083   4.848   5.599  15.110  1.2968 -0.8314 -1.6010
11864TIP3    H257084   4.799   5.469  15.050  1.6550 -2.4492  1.4159
11865TIP3   OH257085   2.222   3.083   5.412 -0.2205 -0.3475 -0.2697
11865TIP3    H157086   2.285   3.023   5.453  1.4460  0.7642 -1.0955
11865TIP3    H257087   2.263   3.107   5.328 -1.7986  0.3578 -0.8721
11866TIP3   OH257088   1.070   0.112  11.864 -0.1773 -0.1670  0.2630
11866TIP3    H157089   1.161   0.088  11.883 -0.2457  0.0212  0.8434
11866TIP3    H257090   1.023   0.029  11.867  0.2424 -0.5498 -1.8102
11867TIP3   OH257091   2.945   4.174   3.994 -0.2286 -0.1929  0.2790
11867TIP3    H157092   2.858   4.202   4.022 -0.5506 -1.0450  0.1603
11867TIP3    H257093   2.958   4.219   3.910 -1.0078 -0.8723 -0.2281
11868TIP3   OH257094   0.238   3.866  14.270 -0.4124 -0.3983  0.8055
11868TIP3    H157095   0.302   3.902  14.332  0.4625 -0.9799  0.2766
11868TIP3    H257096   0.242   3.925  14.195  0.1040 -0.8640  0.4511
11869TIP3   OH257097   4.403   5.565  14.043 -0.0399 -0.0702  0.4424
11869TIP3    H157098   4.360   5.602  14.120 -1.0823 -1.3945  0.5248
11869TIP3    H257099   4.388   5.629  13.974 -0.6192  0.3053  0.9080
11870TIP3   OH257100   0.714   5.176   4.801 -0.2533  0.2406  0.2810
11870TIP3    H157101   0.655   5.251   4.804 -1.7666 -0.8291 -1.3677
11870TIP3    H257102   0.788   5.205   4.747 -1.2223  0.3183 -1.0431
11871TIP3   OH257103   2.530   4.796   4.309 -0.2616  0.4486  0.1546
11871TIP3    H157104   2.620   4.789   4.340  0.5112 -0.8820 -2.1230
11871TIP3    H257105   2.527   4.881   4.264  0.0656  0.2153 -0.3174
11872TIP3   OH257106   1.272   0.826   3.991  0.0813 -0.3663  0.2257
11872TIP3    H157107   1.204   0.768   3.957 -0.1139 -0.5883  0.9784
11872TIP3    H257108   1.252   0.912   3.952 -0.7755 -0.3769  0.6163
11873TIP3   OH257109   1.929   2.629  15.958  0.4317 -0.4019 -0.2825
11873TIP3    H157110   1.893   2.613  16.045  0.4187 -0.3104 -0.2717
11873TIP3    H257111   2.000   2.691  15.972  0.8308 -0.8551 -0.2538
11874TIP3   OH257112   1.788   2.336   0.317  0.3057  0.0805  0.5619
11874TIP3    H157113   1.858   2.387   0.276  3.1879 -1.7574  2.7286
11874TIP3    H257114   1.735   2.305   0.243  0.2198  3.5044 -1.0172
11875TIP3   OH257115   6.591   6.413   1.349  0.3076 -0.3555  0.4949
11875TIP3    H157116   6.609   6.495   1.304 -1.1854 -0.8825 -1.1997
11875TIP3    H257117   6.521   6.372   1.298  2.0408 -3.4207  0.2944
11876TIP3   OH257118   0.659   0.908  15.856 -0.3579  0.6661  0.0705
11876TIP3    H157119   0.650   0.921  15.761  0.2495 -0.4146 -0.1605
11876TIP3    H257120   0.683   0.993  15.890  1.0785  0.7265 -0.9840
11877TIP3   OH257121   5.346   3.297  11.205  0.1334  0.3789  0.5921
11877TIP3    H157122   5.315   3.299  11.295  0.8828  0.2130  0.8644
11877TIP3    H257123   5.304   3.220  11.166 -0.2191  0.4736  0.7878
11878TIP3   OH257124   1.384   1.117  16.704 -0.6327 -0.0059 -0.3285
11878TIP3    H157125   1.425   1.050  16.649  1.4122  0.0944  0.9917
11878TIP3    H257126   1.316   1.069  16.752  0.0355 -0.9151 -0.2580
11879TIP3   OH257127   1.366   1.723   3.761  0.0524  0.3738 -1.1031
11879TIP3    H157128   1.345   1.732   3.668 -0.1644  1.7518 -0.9444
11879TIP3    H257129   1.353   1.811   3.797 -0.4639 -0.2598  0.3527
11880TIP3   OH257130   6.341   4.069   0.530 -0.2319  0.1832  0.4193
11880TIP3    H157131   6.325   4.152   0.484  1.2911  0.5327  0.4565
11880TIP3    H257132   6.423   4.036   0.492 -0.4649 -0.9699  0.8826
11881TIP3   OH257133   3.129   0.961  14.674 -0.5886 -0.2447 -0.0321
11881TIP3    H157134   3.196   1.029  14.671 -0.4728 -0.1309  2.7335
11881TIP3    H257135   3.169   0.891  14.726 -1.7966 -1.1823 -0.3316
11882TIP3   OH257136   0.032   4.350  15.429 -0.3505  0.0123 -0.1506
11882TIP3    H157137  -0.061   4.340  15.449 -0.6617  1.6308 -0.6044
11882TIP3    H257138   0.039   4.335  15.335 -0.2884  0.6151 -0.2478
11883TIP3   OH257139   5.472   1.591  14.446 -0.3026  0.6190 -0.1773
11883TIP3    H157140   5.530   1.583  14.370  0.6832 -0.4381  0.6570
11883TIP3    H257141   5.385   1.605  14.408  0.0098 -0.8508 -1.5383
11884TIP3   OH257142   2.934   0.876   4.484  0.0689 -0.3987  0.1683
11884TIP3    H157143   3.015   0.829   4.466  0.4725 -0.3934  1.8648
11884TIP3    H257144   2.871   0.841   4.420  1.1203 -1.1353 -0.4839
11885TIP3   OH257145   1.138   4.496   1.010  0.1408 -0.2945 -0.3111
11885TIP3    H157146   1.211   4.554   1.033 -0.9356  0.3954  1.5742
11885TIP3    H257147   1.157   4.468   0.921  1.1562  2.2931 -0.9933
11886TIP3   OH257148   0.099   4.595   1.175 -0.0991  0.1687  0.0134
11886TIP3    H157149   0.027   4.535   1.195 -0.2457  1.0755  2.6399
11886TIP3    H257150   0.172   4.564   1.229  1.4126 -0.4258 -2.2196
11887TIP3   OH257151   4.135   4.482   0.579 -0.0626  0.6367 -0.4252
11887TIP3    H157152   4.137   4.555   0.518  0.7915  0.8917 -0.1017
11887TIP3    H257153   4.093   4.411   0.529  0.1927  0.9811 -1.1476
11888TIP3   OH257154   3.539   0.642   3.541 -0.0983  0.1270  0.0333
11888TIP3    H157155   3.613   0.667   3.597  0.6243 -2.2425  0.2415
11888TIP3    H257156   3.462   0.655   3.597  0.1247  2.3649 -0.0961
11889TIP3   OH257157   2.024   1.769   5.454  0.7630  0.3908 -0.1085
11889TIP3    H157158   2.032   1.674   5.451  0.0488  0.2279  1.6149
11889TIP3    H257159   2.104   1.799   5.496  0.2478  0.3568  0.9486
11890TIP3   OH257160   4.345   5.828   3.647 -0.2703  0.0051 -0.3527
11890TIP3    H157161   4.298   5.801   3.568  0.9421  0.3449 -1.2157
11890TIP3    H257162   4.360   5.746   3.695  2.0331 -0.7856 -2.2133
11891TIP3   OH257163   1.808   3.097   3.273 -0.0617  0.0516  0.5214
11891TIP3    H157164   1.872   3.166   3.257 -0.1189  0.1274  0.6126
11891TIP3    H257165   1.748   3.102   3.199 -0.5265  0.6297  0.9201
11892TIP3   OH257166   4.152   0.478   4.174  0.1474  0.2948 -0.1169
11892TIP3    H157167   4.060   0.463   4.154  0.4834 -0.2785 -1.3575
11892TIP3    H257168   4.153   0.559   4.224 -0.9214  0.9927 -1.1651
11893TIP3   OH257169   2.731   6.786   0.452 -0.6435 -0.0469  0.5269
11893TIP3    H157170   2.794   6.820   0.388  0.5850 -0.5515  1.4207
11893TIP3    H257171   2.784   6.735   0.513 -1.8198  0.1510  1.7707
11894TIP3   OH257172   4.304   5.242  12.542 -0.1879 -0.1699 -0.7656
11894TIP3    H157173   4.339   5.217  12.457  0.6023 -1.6856 -0.0399
11894TIP3    H257174   4.237   5.176  12.561 -2.9582  2.1616 -1.7235
11895TIP3   OH257175   6.729   2.953  13.131  0.1407  0.4445  0.3622
11895TIP3    H157176   6.805   2.991  13.087 -0.3044  0.0453 -0.7982
11895TIP3    H257177   6.761   2.930  13.218  2.1371 -2.1188 -0.9048
11896TIP3   OH257178   5.420   4.023   2.468  0.1002 -0.1140 -0.6840
11896TIP3    H157179   5.418   4.100   2.411 -2.3231  0.6490  0.3178
11896TIP3    H257180   5.365   3.958   2.423 -0.5100 -0.0834 -0.0011
11897TIP3   OH257181   4.005   1.229   2.913  0.3408  0.0423  0.1230
11897TIP3    H157182   4.014   1.323   2.898  1.0065  0.4799  2.7444
11897TIP3    H257183   4.094   1.200   2.936  0.1415 -1.2257 -0.6473
11898TIP3   OH257184   5.217   5.738   0.431  0.3204 -0.1694  0.3453
11898TIP3    H157185   5.171   5.654   0.428 -0.5629  0.3180 -0.4502
11898TIP3    H257186   5.160   5.797   0.382 -0.2402  1.4825  2.8401
11899TIP3   OH257187   0.437   6.067   2.583 -0.4144  0.1565  0.4854
11899TIP3    H157188   0.498   6.066   2.509 -0.5392  0.3837  0.3804
11899TIP3    H257189   0.443   5.978   2.619 -1.0420 -0.2355 -0.3503
11900TIP3   OH257190   0.393   1.136   3.982 -0.6316 -0.3153  0.5219
11900TIP3    H157191   0.460   1.193   4.019 -1.7684  1.7625 -0.4815
11900TIP3    H257192   0.433   1.100   3.902 -0.1406 -0.4475  0.8222
11901TIP3   OH257193   6.799   0.143   1.510 -0.4517 -0.6497 -0.6579
11901TIP3    H157194   6.868   0.210   1.509  0.0508 -1.1598 -0.6697
11901TIP3    H257195   6.721   0.189   1.541 -0.0494 -0.1174 -0.4216
11902TIP3   OH257196   1.960   1.854  11.240 -0.0368  0.1308  0.4925
11902TIP3    H157197   1.995   1.889  11.158 -0.7661 -0.6274 -0.1634
11902TIP3    H257198   1.977   1.923  11.304 -1.9132  1.9717 -0.8359
11903TIP3   OH257199   4.716   5.013  14.612 -0.0525 -0.3020 -0.0797
11903TIP3    H157200   4.810   5.020  14.631  0.2137  1.2834 -1.7460
11903TIP3    H257201   4.674   5.071  14.676  0.3961  1.1653 -1.0615
11904TIP3   OH257202   6.692   5.298  13.686  0.3410  0.0891 -0.3000
11904TIP3    H157203   6.599   5.317  13.701  0.6320  1.5131 -0.1731
11904TIP3    H257204   6.725   5.377  13.642  1.1072 -1.0994 -1.9763
11905TIP3   OH257205   2.464   6.753   0.703 -0.0560 -0.0631  0.1821
11905TIP3    H157206   2.532   6.820   0.697 -0.1137  0.1395  1.4609
11905TIP3    H257207   2.385   6.794   0.669  0.7153 -0.7948 -2.8566
11906TIP3   OH257208   0.517   5.128  10.534 -0.6454 -0.3454  0.7174
11906TIP3    H157209   0.564   5.084  10.604  2.4679 -0.4083 -1.2080
11906TIP3    H257210   0.501   5.217  10.567 -0.7361 -0.8489  2.0707
11907TIP3   OH257211   1.988   5.492  16.350  0.2287 -0.2837 -0.5676
11907TIP3    H157212   1.924   5.422  16.332  0.4576 -0.4880 -0.5888
11907TIP3    H257213   2.072   5.446  16.359  0.5844  0.1038 -1.7556
11908TIP3   OH257214   3.038   5.022  11.829  0.1775  0.2504 -0.6361
11908TIP3    H157215   3.045   5.116  11.843  1.6156  0.1101 -0.3016
11908TIP3    H257216   2.955   4.998  11.871  0.2204  1.2230  0.0335
11909TIP3   OH257217   2.142   4.988  10.920  0.5774 -0.5001 -0.5364
11909TIP3    H157218   2.076   4.972  10.852 -0.0612 -0.2605  0.0154
11909TIP3    H257219   2.171   5.078  10.904 -1.2660  0.4155  0.8856
11910TIP3   OH257220   5.528   6.812   0.809  0.8429 -0.0825  0.4915
11910TIP3    H157221   5.517   6.888   0.866  1.9910 -0.4023  1.1756
11910TIP3    H257222   5.520   6.737   0.868  2.4593 -0.4087  0.3477
11911TIP3   OH257223   1.727   2.720  15.051  0.1564 -0.6031 -0.0073
11911TIP3    H157224   1.706   2.813  15.042  2.7010  0.0651  0.1009
11911TIP3    H257225   1.717   2.684  14.964 -1.6420 -0.4548  0.1034
11912TIP3   OH257226   0.819   6.622   3.547 -0.0712 -0.3131 -0.2283
11912TIP3    H157227   0.827   6.560   3.619 -1.5698 -0.3560 -0.0559
11912TIP3    H257228   0.728   6.652   3.552  0.4848  1.5501 -0.5912
11913TIP3   OH257229   4.962   1.600  11.361 -0.2630  0.3187 -0.4013
11913TIP3    H157230   5.020   1.558  11.298 -1.0038 -0.3450 -0.6631
11913TIP3    H257231   4.875   1.565  11.340 -0.8612  1.7547 -0.4198
11914TIP3   OH257232   6.714   5.631   2.431  0.0595  0.0624 -0.1665
11914TIP3    H157233   6.727   5.565   2.364  0.0753  0.4328 -0.5311
11914TIP3    H257234   6.799   5.639   2.474  1.0815  2.2563 -2.3402
11915TIP3   OH257235   4.113   5.617   5.442  0.1000 -0.1032  0.8875
11915TIP3    H157236   4.104   5.578   5.355  1.4245 -1.2219  1.2050
11915TIP3    H257237   4.104   5.543   5.502 -0.6531  0.6302  1.7022
11916TIP3   OH257238   1.542   0.516  11.767 -0.6492 -0.1008 -0.4823
11916TIP3    H157239   1.587   0.526  11.851  0.1344  0.3113 -0.9460
11916TIP3    H257240   1.474   0.583  11.769 -0.9386 -0.3991  0.0140
11917TIP3   OH257241   3.298   4.464   4.965  0.1643 -0.0938  0.0291
11917TIP3    H157242   3.385   4.439   4.933  0.0320 -0.1118 -0.3205
11917TIP3    H257243   3.254   4.500   4.888  0.5747  1.8210  0.6318
11918TIP3   OH257244   5.292   0.197  11.908  0.2342 -0.1660 -0.2592
11918TIP3    H157245   5.376   0.234  11.937 -1.0485  1.2533  1.9293
11918TIP3    H257246   5.260   0.259  11.842  0.1644  0.2002  0.1141
11919TIP3   OH257247   1.070   4.174  12.296 -0.2298  0.0259  0.4516
11919TIP3    H157248   1.031   4.257  12.324  0.9233  0.5332  0.5967
11919TIP3    H257249   1.006   4.137  12.235 -1.1158  0.6407  0.9945
11920TIP3   OH257250   6.385   3.733   4.516  0.2142 -0.0919 -0.6757
11920TIP3    H157251   6.463   3.726   4.461  0.2916 -0.2951 -0.5395
11920TIP3    H257252   6.338   3.651   4.501  0.9875 -0.8192  0.7122
11921TIP3   OH257253   2.376   1.275  13.920 -0.2111 -0.0826 -0.0010
11921TIP3    H157254   2.376   1.215  13.846  1.5252 -0.3684  0.1833
11921TIP3    H257255   2.393   1.361  13.881 -0.8018  0.0004 -0.0783
11922TIP3   OH257256   1.208   4.852  11.780 -0.6855  0.1992 -0.1738
11922TIP3    H157257   1.291   4.813  11.753 -1.7585 -3.2405  0.9273
11922TIP3    H257258   1.163   4.872  11.699  0.9043  1.5344 -0.7837
11923TIP3   OH257259   3.334   2.494   0.986 -0.1465 -0.5257  0.1693
11923TIP3    H157260   3.343   2.399   0.989 -0.3285 -0.5491 -0.0530
11923TIP3    H257261   3.290   2.517   1.067  0.5321 -0.5619  0.5550
11924TIP3   OH257262   6.092   2.504  15.301 -0.5651  0.0930  0.7500
11924TIP3    H157263   6.045   2.567  15.247 -1.0900  1.6331  2.8839
11924TIP3    H257264   6.024   2.461  15.352 -0.0679 -1.2110  0.3583
11925TIP3   OH257265   0.705   4.900   6.501 -0.2054  0.1291  0.2867
11925TIP3    H157266   0.792   4.872   6.528  0.1361  1.5148  0.6514
11925TIP3    H257267   0.705   4.995   6.512 -1.9727  0.0913  0.9052
11926TIP3   OH257268   0.721   6.438   6.525  0.1266  0.2563  0.0533
11926TIP3    H157269   0.791   6.374   6.543 -0.2496 -0.3457 -0.5776
11926TIP3    H257270   0.767   6.519   6.503  0.7806 -0.9021 -3.4842
11927TIP3   OH257271   1.871   6.677  15.138 -0.1358  0.2291  0.6379
11927TIP3    H157272   1.805   6.740  15.166  0.7333  2.0073 -1.0883
11927TIP3    H257273   1.954   6.722  15.149  0.4293 -0.0402 -1.8578
11928TIP3   OH257274   3.966   5.065  14.587 -0.6766 -0.3404  0.0494
11928TIP3    H157275   3.886   5.013  14.581 -0.4308 -0.7805  0.5714
11928TIP3    H257276   3.990   5.084  14.496 -0.7065 -1.2195 -0.1412
11929TIP3   OH257277   0.944   2.423  10.750  0.3120 -0.0415  0.2847
11929TIP3    H157278   0.859   2.381  10.765  0.4077  0.0355  1.0734
11929TIP3    H257279   0.990   2.364  10.691  0.7970 -1.5215  2.0781
11930TIP3   OH257280   0.801   4.261  11.942  0.3590  0.1543  0.1691
11930TIP3    H157281   0.800   4.345  11.897 -3.0489  0.3927  0.4377
11930TIP3    H257282   0.795   4.283  12.035  1.5967 -0.4074  0.4055
11931TIP3   OH257283   2.259   5.083   1.143  0.3171 -0.6349 -0.2585
11931TIP3    H157284   2.350   5.069   1.115 -0.1817 -1.2672 -1.6027
11931TIP3    H257285   2.265   5.159   1.202  1.9050 -1.5268  0.8184
11932TIP3   OH257286   1.169   6.020  17.017  0.1552 -0.1005  0.3964
11932TIP3    H157287   1.229   6.095  17.008 -0.6542  0.5413  0.2079
11932TIP3    H257288   1.086   6.059  17.045  0.1318 -1.1014  1.8372
11933TIP3   OH257289   6.474   4.467  12.093  0.1588  0.3994 -0.4908
11933TIP3    H157290   6.546   4.514  12.134  0.2134 -0.5607  0.5641
11933TIP3    H257291   6.407   4.533  12.076  1.0426  1.1966 -0.9303
11934TIP3   OH257292   5.302   4.491   0.365  0.1950 -0.1069  0.0009
11934TIP3    H157293   5.376   4.475   0.423 -0.4943  0.8332  1.1975
11934TIP3    H257294   5.339   4.487   0.277  1.0192 -2.9130  0.3811
11935TIP3   OH257295   5.174   5.734  12.118  0.2768 -0.0460 -0.4796
11935TIP3    H157296   5.171   5.690  12.033  2.6628  0.2957 -0.7996
11935TIP3    H257297   5.204   5.822  12.098 -1.1312  0.6973  0.5392
11936TIP3   OH257298   3.960   1.236   5.615 -0.3328  0.7613 -0.1004
11936TIP3    H157299   3.940   1.329   5.624  2.9957  1.7072 -1.0462
11936TIP3    H257300   4.004   1.213   5.697 -1.3840 -0.0906  0.2422
11937TIP3   OH257301   0.216   3.592   2.746  0.1407  0.4266 -0.4247
11937TIP3    H157302   0.210   3.648   2.823 -2.0142  0.0498 -0.2645
11937TIP3    H257303   0.164   3.636   2.679  0.3974 -0.1936 -1.0559
11938TIP3   OH257304   6.244   0.985  14.884  0.3375 -0.1165 -0.3775
11938TIP3    H157305   6.181   1.038  14.933 -0.1530 -1.5813  0.6379
11938TIP3    H257306   6.210   0.896  14.890  2.2774 -0.8933 -0.1918
11939TIP3   OH257307   5.746   2.146  16.435  0.2854 -0.2367  0.2194
11939TIP3    H157308   5.803   2.200  16.490 -1.4185  1.4725  0.4227
11939TIP3    H257309   5.682   2.108  16.495  0.4897 -1.2031 -0.1489
11940TIP3   OH257310   1.995   2.155  14.133  0.0732 -0.1896 -0.3377
11940TIP3    H157311   2.037   2.203  14.204 -0.5716  0.3405 -0.3058
11940TIP3    H257312   1.907   2.191  14.128 -0.0454 -0.5556 -1.0924
11941TIP3   OH257313   5.386   5.173  12.824 -0.0879 -0.2297  0.0618
11941TIP3    H157314   5.372   5.255  12.872 -0.3587 -1.2066  1.7422
11941TIP3    H257315   5.316   5.171  12.758 -0.9843  0.2303  0.9651
11942TIP3   OH257316   0.017   3.842  14.472  0.0414  0.0606  0.4741
11942TIP3    H157317   0.104   3.828  14.434  1.2038  0.2233  2.8510
11942TIP3    H257318  -0.032   3.763  14.449  0.7556  0.0220 -1.0207
11943TIP3   OH257319   6.060   3.953   5.886 -0.3292  0.0456  0.2094
11943TIP3    H157320   6.100   3.875   5.848  1.8853  0.3877  1.6747
11943TIP3    H257321   6.068   3.941   5.981 -1.8042  1.1558  0.5266
11944TIP3   OH257322   2.279   0.243  14.624 -0.1863  0.9291  0.2859
11944TIP3    H157323   2.367   0.226  14.590 -0.3391  1.8061 -0.6115
11944TIP3    H257324   2.268   0.338  14.616 -0.9870  0.9066  0.9593
11945TIP3   OH257325   4.976   2.479  14.177  0.0840 -0.2186  0.3103
11945TIP3    H157326   5.030   2.555  14.152 -0.3115  0.5333  1.6296
11945TIP3    H257327   4.886   2.511  14.172 -0.4003 -1.7280 -2.7680
11946TIP3   OH257328   2.800   5.928  16.630 -0.0640 -0.4271  0.0607
11946TIP3    H157329   2.711   5.935  16.595  0.1107 -0.2309 -0.3534
11946TIP3    H257330   2.856   5.943  16.554  0.3449  1.6572  0.7133
11947TIP3   OH257331   3.051   2.369   1.994  0.0263 -0.2726  0.0875
11947TIP3    H157332   3.080   2.417   1.916 -0.2820 -2.4682 -1.4587
11947TIP3    H257333   3.017   2.437   2.052  1.8347  1.6227 -0.9325
11948TIP3   OH257334   1.683   2.225  11.027 -0.4357 -0.3500  0.1705
11948TIP3    H157335   1.770   2.219  10.987 -0.6762  0.4771 -0.5095
11948TIP3    H257336   1.664   2.136  11.056  0.3923 -0.6600 -0.1952
11949TIP3   OH257337   4.252   5.715  14.243 -0.5138  0.6438  0.3727
11949TIP3    H157338   4.211   5.752  14.165 -0.0327  0.5943  0.0938
11949TIP3    H257339   4.191   5.646  14.271 -0.3969  0.2511 -0.3143
11950TIP3   OH257340   2.898   4.317   2.364 -0.3229 -0.5489 -0.0857
11950TIP3    H157341   2.922   4.226   2.347 -1.6336 -0.7384 -1.1393
11950TIP3    H257342   2.870   4.351   2.279  0.0390  0.8097  0.3147
11951TIP3   OH257343   4.403   4.961  15.896 -0.2768  0.0015 -0.0709
11951TIP3    H157344   4.477   4.906  15.871  0.2802  1.1549 -1.0228
11951TIP3    H257345   4.439   5.048  15.906 -1.3599  0.4291  0.2649
11952TIP3   OH257346   0.515   2.649   2.675 -0.6724  0.1353 -0.1309
11952TIP3    H157347   0.534   2.660   2.768 -1.8801 -2.2499  0.4655
11952TIP3    H257348   0.597   2.670   2.631  0.5719 -0.7716  1.6393
11953TIP3   OH257349   0.857   3.589   4.047 -0.4958  0.1575 -0.5284
11953TIP3    H157350   0.898   3.614   3.964  1.4330  0.7336  0.5425
11953TIP3    H257351   0.764   3.611   4.035 -0.0217  1.5422 -2.0372
11954TIP3   OH257352   6.202   3.635  15.478  0.0327 -0.0149 -0.3646
11954TIP3    H157353   6.239   3.582  15.407 -1.8014 -0.3845 -1.1033
11954TIP3    H257354   6.146   3.574  15.527  0.6539  0.4243  0.9456
11955TIP3   OH257355   4.557   2.440  11.883  0.0217  0.1019  0.1080
11955TIP3    H157356   4.512   2.509  11.932 -0.1394  0.1768 -0.1413
11955TIP3    H257357   4.498   2.422  11.810  0.3715  0.1527 -0.1844
11956TIP3   OH257358   0.005   6.603  16.806  0.3840 -0.1796  0.3015
11956TIP3    H157359   0.069   6.671  16.827 -0.6839  0.8420  0.3490
11956TIP3    H257360   0.029   6.529  16.863  1.2421  0.3506  0.6428
11957TIP3   OH257361   0.966   3.647   5.066  0.0899 -0.5304  0.0339
11957TIP3    H157362   0.894   3.615   5.011  2.9448 -3.4153 -2.3558
11957TIP3    H257363   0.962   3.593   5.145  0.4874 -1.7629 -0.7669
11958TIP3   OH257364   1.403   0.186   5.560  0.3602  0.2272 -0.5642
11958TIP3    H157365   1.328   0.167   5.504  0.0398 -3.4135  0.8387
11958TIP3    H257366   1.365   0.202   5.647  1.0985  1.2445 -0.3999
11959TIP3   OH257367   0.397   5.404   1.988 -0.3982 -0.1808  0.0724
11959TIP3    H157368   0.415   5.495   1.965 -1.4796  0.0771  0.2317
11959TIP3    H257369   0.376   5.406   2.081 -1.5202 -0.4292 -0.1678
11960TIP3   OH257370   2.363   1.503   5.326  0.6433 -0.3140 -0.6945
11960TIP3    H157371   2.432   1.525   5.389 -0.6506 -2.6345  1.7839
11960TIP3    H257372   2.332   1.587   5.293  1.8814  0.9952  1.2688
11961TIP3   OH257373   6.575   2.414  16.056  0.2462 -0.0172 -0.1931
11961TIP3    H157374   6.530   2.423  16.140  1.6166 -0.3983  0.5998
11961TIP3    H257375   6.605   2.502  16.035 -2.2038  0.5919 -1.5515
11962TIP3   OH257376   1.722   4.381  12.195  0.5043 -0.2422 -0.0576
11962TIP3    H157377   1.647   4.429  12.158  0.2964 -0.2744  0.3143
11962TIP3    H257378   1.749   4.322  12.125  0.2439 -0.1586 -0.2319
11963TIP3   OH257379   1.043   6.114   5.103  0.2729  0.2994  0.5983
11963TIP3    H157380   1.078   6.058   5.172  1.7338  0.9921  0.4620
11963TIP3    H257381   1.096   6.093   5.026 -0.9664 -0.0701 -0.1797
11964TIP3   OH257382   2.010   6.493  16.668 -0.2726 -0.3116  0.4765
11964TIP3    H157383   1.931   6.522  16.623 -0.2554  2.1823  1.8659
11964TIP3    H257384   2.072   6.565  16.658  1.3739 -1.6475  0.5706
11965TIP3   OH257385   2.534   4.672  11.576  0.0390 -0.3737 -0.0776
11965TIP3    H157386   2.468   4.741  11.580 -0.1346 -0.5570  0.2330
11965TIP3    H257387   2.616   4.718  11.555 -0.3893 -0.2801 -1.6578
11966TIP3   OH257388   2.516   1.627   5.510 -0.2691  0.1574  0.0385
11966TIP3    H157389   2.556   1.540   5.505 -1.0374 -0.1856 -0.2778
11966TIP3    H257390   2.476   1.631   5.597 -1.4655 -0.3680 -0.4665
11967TIP3   OH257391   5.783   1.803  10.920  0.5991 -0.0225 -0.5736
11967TIP3    H157392   5.808   1.895  10.933 -1.4151  0.3196  1.4053
11967TIP3    H257393   5.855   1.767  10.868  2.0445  2.3594 -0.4106
11968TIP3   OH257394   6.182   6.497   3.840  0.0129  0.6660 -0.2468
11968TIP3    H157395   6.106   6.548   3.812  0.2561  0.7672 -0.7238
11968TIP3    H257396   6.149   6.443   3.912 -0.5599  0.5532 -0.5902
11969TIP3   OH257397   1.531   3.845  15.617 -0.6580 -0.5212  0.6411
11969TIP3    H157398   1.465   3.782  15.647 -0.8649 -0.5552  0.1137
11969TIP3    H257399   1.611   3.794  15.611 -0.9428 -0.8784 -0.3211
11970TIP3   OH257400   0.068   0.420  12.434  0.6166 -0.0331 -0.4413
11970TIP3    H157401   0.079   0.515  12.440  1.7064 -0.0614 -1.5678
11970TIP3    H257402  -0.022   0.409  12.403 -0.1844  0.5269  1.5177
11971TIP3   OH257403   0.089   2.747   6.681  0.4598 -0.4811  0.2293
11971TIP3    H157404   0.071   2.656   6.704  0.9355 -0.1883  1.8542
11971TIP3    H257405   0.184   2.751   6.673  0.4320 -0.1473  0.0666
11972TIP3   OH257406   2.662   3.711  12.638 -0.1364  0.5038  0.4185
11972TIP3    H157407   2.693   3.791  12.680 -0.9964  0.5972  0.9089
11972TIP3    H257408   2.570   3.704  12.665  0.3978 -1.6469  1.9342
11973TIP3   OH257409   4.708   0.015  14.036  0.0474 -0.0703 -0.0581
11973TIP3    H157410   4.730  -0.022  13.951  0.0954  0.6030 -0.3470
11973TIP3    H257411   4.768   0.090  14.046 -0.9785  0.7767 -0.1136
11974TIP3   OH257412   5.462   3.792   3.128  0.1832  0.1868 -0.4080
11974TIP3    H157413   5.509   3.719   3.168 -1.1526 -0.8370 -0.6545
11974TIP3    H257414   5.519   3.868   3.143  0.7712 -0.5625  1.4412
11975TIP3   OH257415   6.293   5.091   5.542 -0.3444  0.2149  0.0856
11975TIP3    H157416   6.207   5.114   5.579 -0.8637  0.0549 -0.9798
11975TIP3    H257417   6.287   5.117   5.451  0.1849 -1.2179 -0.3877
11976TIP3   OH257418   2.912   0.093   0.307  0.4887  0.7405  0.3403
11976TIP3    H157419   2.956   0.161   0.358 -0.5209  2.3481 -0.8267
11976TIP3    H257420   2.849   0.141   0.252  1.2081 -0.9059 -2.0924
11977TIP3   OH257421   0.554   3.473  14.928 -0.0217  0.6761  0.0671
11977TIP3    H157422   0.517   3.486  15.015  1.5848  1.8986  0.6173
11977TIP3    H257423   0.635   3.424  14.944  0.1494  0.6610 -0.7814
11978TIP3   OH257424   2.958   1.092   3.717  0.6182  0.2337  0.1817
11978TIP3    H157425   3.025   1.151   3.681 -0.0729  0.6149 -0.5247
11978TIP3    H257426   2.889   1.150   3.747  1.8773  0.0523  3.8589
11979TIP3   OH257427   0.704   3.824  11.467 -0.1492  0.0719  0.0592
11979TIP3    H157428   0.785   3.872  11.485 -0.9804  1.4915  0.1825
11979TIP3    H257429   0.672   3.861  11.385 -1.0106 -0.0012  0.3523
11980TIP3   OH257430   6.180   2.449   1.007 -0.0475  0.1120  1.3686
11980TIP3    H157431   6.218   2.534   0.983 -3.6020  0.9356 -2.2965
11980TIP3    H257432   6.252   2.387   0.995  1.2789  1.9634 -1.4021
11981TIP3   OH257433   5.378   3.306   1.335  0.7152  0.0718 -0.2033
11981TIP3    H157434   5.298   3.336   1.291  1.5803  0.3056 -1.6935
11981TIP3    H257435   5.348   3.235   1.392 -0.7146  0.8839  0.1098
11982TIP3   OH257436   4.050   6.578  13.875 -0.0446  0.0017 -0.0685
11982TIP3    H157437   3.964   6.546  13.849 -0.2188 -0.4628  1.0486
11982TIP3    H257438   4.060   6.661  13.827  0.1070 -1.2781 -2.4324
11983TIP3   OH257439   4.185   2.277   0.258 -0.5557 -0.0614  0.0062
11983TIP3    H157440   4.130   2.355   0.248  0.2516  0.5141  0.0044
11983TIP3    H257441   4.134   2.219   0.316 -1.2251  0.3987 -0.1142
11984TIP3   OH257442   5.926   1.006  10.667  0.0123 -0.7940  0.2875
11984TIP3    H157443   5.953   0.950  10.594  2.5357 -2.7058  2.4485
11984TIP3    H257444   6.003   1.060  10.685 -1.1847  0.9122  0.4626
11985TIP3   OH257445   5.571   4.235   4.336  0.4417  0.1148  0.5040
11985TIP3    H157446   5.666   4.230   4.331  0.4108 -0.9824  0.5689
11985TIP3    H257447   5.540   4.178   4.266 -0.1794  0.8680  0.1496
11986TIP3   OH257448   4.052   0.364   2.499  0.1412  0.3447  0.4035
11986TIP3    H157449   4.062   0.392   2.590  0.5916 -1.7105  1.0466
11986TIP3    H257450   3.959   0.345   2.490  0.1592  0.1799  0.5582
11987TIP3   OH257451   4.857   1.509   5.518 -0.4131  0.0460  0.2719
11987TIP3    H157452   4.872   1.456   5.596  0.6182 -0.1053 -0.0136
11987TIP3    H257453   4.866   1.599   5.548 -3.9019  0.2544  1.1454
11988TIP3   OH257454   6.090   3.914   4.073  0.4221  0.1389  0.0433
11988TIP3    H157455   6.146   3.982   4.110  1.7168 -1.1779  0.5981
11988TIP3    H257456   6.118   3.908   3.981  0.3794  0.2609  0.0212
11989TIP3   OH257457   3.305   4.020   2.305  0.3549  0.5282 -0.4085
11989TIP3    H157458   3.259   3.976   2.376  1.1052 -2.1045 -1.4425
11989TIP3    H257459   3.239   4.075   2.263 -1.1714 -1.0478 -0.1832
11990TIP3   OH257460   3.259   3.419   0.807  0.1794  0.1035 -0.2420
11990TIP3    H157461   3.276   3.334   0.765 -2.4883 -1.3309  1.3675
11990TIP3    H257462   3.237   3.477   0.734  0.0649 -1.1156 -1.2195
11991TIP3   OH257463   5.354   3.821   1.204 -0.0012  0.6743 -0.2025
11991TIP3    H157464   5.297   3.747   1.223 -0.7994  0.9577 -1.4092
11991TIP3    H257465   5.398   3.798   1.122  2.5605 -0.0642  1.2601
11992TIP3   OH257466   2.051   2.468   2.748  0.0701 -0.3742  0.5280
11992TIP3    H157467   1.971   2.502   2.789 -0.1843 -0.6502  0.2691
11992TIP3    H257468   2.071   2.388   2.796  0.6508  0.1060  1.1148
11993TIP3   OH257469   1.574   1.645   4.520  0.2413 -0.2622 -0.0766
11993TIP3    H157470   1.648   1.615   4.573 -2.2447 -0.9242  3.2690
11993TIP3    H257471   1.582   1.595   4.439  1.5573 -2.9077  1.5563
11994TIP3   OH257472   5.366   0.522  14.202  0.1402  0.7435  0.1753
11994TIP3    H157473   5.354   0.596  14.143 -1.7206  1.1738  1.0156
11994TIP3    H257474   5.313   0.544  14.279  1.8261 -0.1584  1.6877
11995TIP3   OH257475   4.269   3.537  17.190 -0.1735 -0.1031 -0.5138
11995TIP3    H157476   4.281   3.632  17.184  0.0850 -0.1593 -0.9855
11995TIP3    H257477   4.327   3.510  17.260 -1.9607  0.3699  1.2459
11996TIP3   OH257478   0.674   0.809  13.624 -0.1393  0.0998 -0.2118
11996TIP3    H157479   0.636   0.756  13.554  3.1822  0.8178 -2.8213
11996TIP3    H257480   0.612   0.881  13.636 -2.9830 -2.3117  0.9058
11997TIP3   OH257481   3.694   2.210   3.513  0.3274  0.2078  0.8971
11997TIP3    H157482   3.716   2.224   3.605 -0.7597  0.2970  1.1573
11997TIP3    H257483   3.609   2.253   3.502  0.2156 -0.2289 -0.0309
11998TIP3   OH257484   6.037   3.109  13.439 -0.1675 -0.2694 -0.1015
11998TIP3    H157485   6.042   3.119  13.534 -0.5856 -1.1062  0.0161
11998TIP3    H257486   6.069   3.021  13.421  0.0598 -0.0644 -0.7587
11999TIP3   OH257487   4.009   0.776  16.172 -0.4192  0.7637  0.0501
11999TIP3    H157488   3.940   0.771  16.238 -1.0680 -1.4704 -0.6999
11999TIP3    H257489   4.090   0.787  16.221 -1.1393  1.7446  1.0457
12000TIP3   OH257490   6.510   1.247   5.714  0.4101 -0.2279 -0.5579
12000TIP3    H157491   6.424   1.212   5.693  0.7824 -0.3659 -1.9957
12000TIP3    H257492   6.566   1.170   5.721  0.7530 -0.0633 -1.3649
12001TIP3   OH257493   3.505   0.451   3.322 -0.1005 -1.2284 -0.4759
12001TIP3    H157494   3.575   0.443   3.257 -0.4893  1.7638 -1.4128
12001TIP3    H257495   3.530   0.526   3.376 -1.2198 -1.8740  1.0257
12002TIP3   OH257496   2.059   5.318   1.779  0.0888 -0.8266  0.2350
12002TIP3    H157497   2.021   5.271   1.853 -0.6171 -1.3287 -0.4404
12002TIP3    H257498   2.139   5.269   1.757 -0.4138 -1.4619 -0.1889
12003TIP3   OH257499   6.032   0.309  14.251  0.6006  0.4897  0.4526
12003TIP3    H157500   6.093   0.263  14.308 -0.3844 -0.2437  0.9329
12003TIP3    H257501   6.008   0.244  14.185 -1.9169 -0.2406  1.9569
12004TIP3   OH257502   4.970   5.756   3.535 -0.4674 -0.0810 -0.3819
12004TIP3    H157503   4.943   5.668   3.510  0.0748 -0.3574 -0.0161
12004TIP3    H257504   4.959   5.759   3.630 -1.1900  0.4988 -0.4699
12005TIP3   OH257505   6.612   0.775   0.011  0.3567  0.2039  0.9727
12005TIP3    H157506   6.659   0.699   0.044 -1.1146 -0.3239  1.9433
12005TIP3    H257507   6.677   0.846   0.013  1.3658 -0.7111  1.3487
12006TIP3   OH257508   4.615   5.429  15.470 -0.2421  0.1753 -0.2840
12006TIP3    H157509   4.708   5.420  15.491 -0.2635 -0.6675 -0.5141
12006TIP3    H257510   4.571   5.366  15.527 -0.5047 -0.5776 -1.2759
12007TIP3   OH257511   5.821   3.886   3.978 -0.2555  0.3068  0.5835
12007TIP3    H157512   5.813   3.883   4.073 -0.3989  0.0363  0.5637
12007TIP3    H257513   5.912   3.913   3.963 -0.3550  0.7748  0.7939
12008TIP3   OH257514   3.821   4.170   2.737 -0.1564 -0.0527 -0.5936
12008TIP3    H157515   3.736   4.215   2.738 -1.2287 -1.9540 -0.9293
12008TIP3    H257516   3.814   4.105   2.807  1.4430  0.4357  0.0545
12009TIP3   OH257517   5.047   1.636  14.802  0.3913  0.1678  0.7431
12009TIP3    H157518   5.038   1.682  14.886  0.8124  2.6748 -0.4656
12009TIP3    H257519   5.137   1.655  14.774  0.2177 -0.4910 -0.3417
12010TIP3   OH257520   6.473   3.043  16.569 -0.5118 -0.4128  0.2696
12010TIP3    H157521   6.429   2.986  16.507 -0.8459 -0.0701  0.1862
12010TIP3    H257522   6.424   3.032  16.650 -2.2258  1.6600 -0.3854
12011TIP3   OH257523   4.863   4.350  12.311  0.4527 -0.3690  0.4996
12011TIP3    H157524   4.816   4.334  12.229  0.4430 -0.3179  0.4950
12011TIP3    H257525   4.951   4.376  12.284  0.1429  0.6857  0.4812
12012TIP3   OH257526   2.726   5.214   5.120  1.2134  0.3550  0.0112
12012TIP3    H157527   2.793   5.147   5.135 -0.8170 -1.7198  0.2770
12012TIP3    H257528   2.681   5.186   5.041  0.8224  1.9061 -0.3606
12013TIP3   OH257529   5.642   0.035   0.501  0.0529 -0.3357 -0.6562
12013TIP3    H157530   5.562   0.083   0.481  0.9514  0.7387 -1.8565
12013TIP3    H257531   5.712   0.091   0.468  1.2107 -2.0042 -1.1576
12014TIP3   OH257532   5.658   1.428   1.313  0.2872  0.3575 -0.0537
12014TIP3    H157533   5.709   1.360   1.357 -1.7332 -0.3511  1.3492
12014TIP3    H257534   5.672   1.412   1.219  1.2749 -0.8326  0.2705
12015TIP3   OH257535   0.827   4.976  13.307 -0.3778  0.1492 -0.5264
12015TIP3    H157536   0.748   5.015  13.346 -0.2220 -0.8282  0.8158
12015TIP3    H257537   0.806   4.883  13.299  0.1710  0.0906 -1.3868
12016TIP3   OH257538   0.072   6.126   0.471 -0.3979  0.0308 -0.2762
12016TIP3    H157539   0.062   6.080   0.554  1.8345 -0.1950 -0.0786
12016TIP3    H257540  -0.001   6.096   0.417 -2.3683  0.7927  1.8444
12017TIP3   OH257541   2.123   5.978  11.318  0.8939  0.0800 -0.2184
12017TIP3    H157542   2.085   5.975  11.405 -1.4897  0.3865 -1.1741
12017TIP3    H257543   2.091   5.899  11.274  2.0138 -0.0540 -0.8582
12018TIP3   OH257544   4.402   3.588  11.864  0.1763  0.3590  0.0184
12018TIP3    H157545   4.408   3.628  11.951 -0.0162  2.7000 -0.9692
12018TIP3    H257546   4.324   3.533  11.868 -0.0960  0.8112  1.1818
12019TIP3   OH257547   0.293   5.823   4.358  0.5402  0.0563 -0.2442
12019TIP3    H157548   0.358   5.893   4.349  0.8937 -0.4103 -1.4484
12019TIP3    H257549   0.209   5.868   4.347  0.7724  0.2679 -1.2623
12020TIP3   OH257550   0.964   0.830  15.626  0.2323 -0.1901 -0.0034
12020TIP3    H157551   0.966   0.879  15.543  0.0724  0.0013  0.1032
12020TIP3    H257552   1.016   0.883  15.686 -0.5184  0.2115  0.3056
12021TIP3   OH257553   3.131   2.565  17.119  0.3820 -0.3285  0.2957
12021TIP3    H157554   3.127   2.481  17.073  1.0603  0.1223 -0.6244
12021TIP3    H257555   3.223   2.573  17.147  0.4629  0.3680 -0.1488
12022TIP3   OH257556   1.451   2.424   2.871  0.2436  0.3043 -1.0516
12022TIP3    H157557   1.509   2.434   2.796 -1.6490  1.4369 -2.4632
12022TIP3    H257558   1.414   2.511   2.885 -3.2407 -0.8407 -2.1023
12023TIP3   OH257559   0.120   4.630   4.570 -0.1617 -0.1355 -0.2709
12023TIP3    H157560   0.074   4.616   4.652 -0.6154 -1.5316 -0.7355
12023TIP3    H257561   0.129   4.726   4.563 -1.3607  0.0728  0.7106
12024TIP3   OH257562   4.900   6.340   1.566  0.0378 -0.5489 -0.3139
12024TIP3    H157563   4.853   6.332   1.483  0.8054  0.7589 -0.8944
12024TIP3    H257564   4.841   6.300   1.630 -0.2563 -2.2534 -1.5692
12025TIP3   OH257565   6.104   3.824   5.123  0.2422 -0.1434  0.3428
12025TIP3    H157566   6.043   3.852   5.055 -1.9209 -2.2193  1.2342
12025TIP3    H257567   6.067   3.859   5.204  0.1170 -1.5093  0.9132
12026TIP3   OH257568   4.768   3.518   5.010  0.5883  0.3072  0.2434
12026TIP3    H157569   4.863   3.512   5.001  0.8337  3.3394 -0.4129
12026TIP3    H257570   4.734   3.469   4.935  1.4223 -3.0337  1.8675
12027TIP3   OH257571   2.842   1.838  14.887  0.2941  0.0024  0.1539
12027TIP3    H157572   2.748   1.840  14.869  0.4622  0.6454 -0.7079
12027TIP3    H257573   2.848   1.822  14.982 -0.6040 -3.6459 -0.2696
12028TIP3   OH257574   3.247   4.204   1.232 -0.5276  0.2072 -0.5861
12028TIP3    H157575   3.224   4.259   1.157 -2.2138 -0.0242 -0.2601
12028TIP3    H257576   3.343   4.206   1.234 -0.4937  3.2760 -0.4827
12029TIP3   OH257577   3.434   1.384   4.819  0.4951  0.1430 -0.0289
12029TIP3    H157578   3.529   1.369   4.818  0.5917  0.4943  1.6870
12029TIP3    H257579   3.423   1.468   4.863 -0.5889  0.5678 -1.0493
12030TIP3   OH257580   3.420   3.217  16.282 -0.0150  0.0655  0.8075
12030TIP3    H157581   3.350   3.279  16.304 -0.9747 -0.8905  0.5307
12030TIP3    H257582   3.462   3.198  16.366 -0.8112 -0.1970  1.1590
12031TIP3   OH257583   2.638   3.553   4.870 -0.3778  0.1143 -0.9628
12031TIP3    H157584   2.726   3.541   4.905 -0.5793 -1.2247 -0.8704
12031TIP3    H257585   2.639   3.507   4.786 -0.6587  1.0981 -1.5277
12032TIP3   OH257586   4.574   0.072   1.868 -0.3581  0.0495  0.4644
12032TIP3    H157587   4.553   0.024   1.788 -1.7077  1.2069  0.0862
12032TIP3    H257588   4.668   0.089   1.861 -0.6046  0.9352 -1.3521
12033TIP3   OH257589   0.542   5.081  13.254  0.0274  0.3286 -0.7774
12033TIP3    H157590   0.473   5.036  13.303  1.0942  0.1541  0.6446
12033TIP3    H257591   0.570   5.151  13.312  2.0545 -0.5204 -0.6359
12034TIP3   OH257592   1.313   0.445   1.453 -0.2673  0.2227  0.8468
12034TIP3    H157593   1.375   0.508   1.415 -1.1894  1.9339  2.0231
12034TIP3    H257594   1.361   0.406   1.526  0.7478 -1.4532 -0.6425
12035TIP3   OH257595   5.100   5.201   5.749 -0.6237 -0.0515 -0.0464
12035TIP3    H157596   5.008   5.179   5.764 -0.0262 -1.0079  2.6775
12035TIP3    H257597   5.104   5.296   5.758 -1.4200  0.0763 -0.8541
12036TIP3   OH257598   5.417   3.402  11.559 -0.6414 -0.1209  0.5019
12036TIP3    H157599   5.349   3.335  11.558  0.3594 -1.1751 -0.8772
12036TIP3    H257600   5.476   3.377  11.488  0.8683  1.0903  1.2815
12037TIP3   OH257601   0.152   0.625   5.682  0.2455  0.7157  0.5713
12037TIP3    H157602   0.139   0.711   5.643  0.1182  0.5897  0.3362
12037TIP3    H257603   0.110   0.632   5.768 -0.9043  0.4877  0.0363
12038TIP3   OH257604   4.797   3.598   3.865  0.1306 -0.0743 -0.0698
12038TIP3    H157605   4.870   3.632   3.814  0.4296 -2.0929 -1.0872
12038TIP3    H257606   4.838   3.558   3.942 -0.2668  2.3310  1.4962
12039TIP3   OH257607   3.758   3.855   3.353 -0.4048  0.3313 -0.2280
12039TIP3    H157608   3.839   3.864   3.303 -1.8602  0.7020 -2.6593
12039TIP3    H257609   3.755   3.762   3.377  0.5234  0.2372 -0.4493
12040TIP3   OH257610   0.033   6.084   2.762 -0.1181 -0.2203 -0.7501
12040TIP3    H157611   0.017   6.174   2.789 -0.6619 -0.2833 -0.8551
12040TIP3    H257612   0.107   6.056   2.815 -0.3839  0.0619 -0.2227
12041TIP3   OH257613   3.167   1.596   5.010 -0.6913 -0.3310 -0.0552
12041TIP3    H157614   3.189   1.633   5.096 -0.3942  2.1331 -1.0920
12041TIP3    H257615   3.072   1.601   5.006 -0.6581  0.3463 -0.1623
12042TIP3   OH257616   2.952   5.497  11.378  0.5118  0.5833  0.4026
12042TIP3    H157617   3.027   5.556  11.390 -0.1543  1.1176  2.2461
12042TIP3    H257618   2.981   5.413  11.414  0.2527  0.7933  1.1277
12043TIP3   OH257619   1.786   3.908  14.463 -0.5225  0.1716  0.0627
12043TIP3    H157620   1.705   3.937  14.505 -0.9608 -1.1185  0.1316
12043TIP3    H257621   1.763   3.901  14.370 -1.2447 -2.5709  0.3807
12044TIP3   OH257622   6.207   0.937  13.695 -0.0988  0.6074  0.0268
12044TIP3    H157623   6.249   0.851  13.702 -2.2956 -0.7387 -1.9995
12044TIP3    H257624   6.217   0.961  13.603 -0.9377  1.7978  0.2267
12045TIP3   OH257625   4.922   5.934   5.723  0.7199  0.5408 -0.0020
12045TIP3    H157626   4.955   6.022   5.739  1.0562  0.0617  2.3556
12045TIP3    H257627   4.967   5.904   5.644  0.2446  2.6139 -1.1134
12046TIP3   OH257628   5.449   1.838   1.029 -0.0690  0.2342  0.0463
12046TIP3    H157629   5.394   1.829   1.107 -0.1640 -1.7958 -0.2010
12046TIP3    H257630   5.496   1.755   1.023  1.4541  1.1146 -0.9495
12047TIP3   OH257631   4.249   0.664  15.395  0.3071  0.2002 -0.1676
12047TIP3    H157632   4.326   0.612  15.375 -0.3490 -0.1902 -1.7877
12047TIP3    H257633   4.209   0.620  15.471  0.2717 -1.1209 -0.9347
12048TIP3   OH257634   6.525   5.338  13.086 -0.2917 -0.6555  0.5020
12048TIP3    H157635   6.515   5.381  13.001  1.8016 -0.0069  0.5165
12048TIP3    H257636   6.471   5.260  13.081 -1.7264  0.3671 -0.7019
12049TIP3   OH257637   6.503   1.747   2.609  0.2797  0.1185 -0.1837
12049TIP3    H157638   6.506   1.697   2.691  1.4115 -0.4836 -0.5761
12049TIP3    H257639   6.535   1.834   2.633  1.4213 -0.2984 -0.1401
12050TIP3   OH257640   0.298   6.456  13.551 -0.1173 -0.7274  0.7530
12050TIP3    H157641   0.392   6.445  13.546  0.0696  1.1157 -1.3811
12050TIP3    H257642   0.285   6.549  13.572 -1.4740 -1.2357  2.3859
12051TIP3   OH257643   4.895   3.405   1.847  0.2198  0.2849 -0.4015
12051TIP3    H157644   4.980   3.432   1.882  0.5463  0.2989 -1.1885
12051TIP3    H257645   4.876   3.468   1.778 -1.5464  1.6979  1.2699
12052TIP3   OH257646   1.847   2.715   4.937 -0.4070 -0.2702 -0.0606
12052TIP3    H157647   1.866   2.746   4.849  1.8165 -0.9239  0.1092
12052TIP3    H257648   1.833   2.621   4.928  0.6532 -0.4877  0.3375
12053TIP3   OH257649   3.342   3.029  15.871 -0.0153  0.0418 -0.3326
12053TIP3    H157650   3.385   3.068  15.795 -0.7919  0.0945 -0.7585
12053TIP3    H257651   3.403   3.043  15.944  1.4186 -1.3074 -1.2179
12054TIP3   OH257652   3.397   6.229  17.204 -0.2966  0.5259  0.0868
12054TIP3    H157653   3.387   6.211  17.297  1.5065  0.4886  0.3122
12054TIP3    H257654   3.308   6.225  17.168 -0.9567  0.1079  1.7154
12055TIP3   OH257655   6.503   0.415   1.441  0.5206 -0.3336 -0.4043
12055TIP3    H157656   6.410   0.439   1.443  0.4356 -0.6651 -0.3958
12055TIP3    H257657   6.549   0.496   1.465  0.1732 -0.5097  0.9175
12056TIP3   OH257658   4.249   3.775   4.886 -0.0519  0.3884  0.2905
12056TIP3    H157659   4.258   3.682   4.863 -0.2909  0.6036 -0.7023
12056TIP3    H257660   4.154   3.790   4.886 -0.0181  0.6137  0.5468
12057TIP3   OH257661   6.527   2.960   6.767  0.3047 -0.2675 -0.0424
12057TIP3    H157662   6.512   3.047   6.804  1.2761 -0.6230  1.2495
12057TIP3    H257663   6.444   2.914   6.780  0.0133  0.2450 -0.0828
12058TIP3   OH257664   1.436   4.459  11.632  0.1307 -0.4286 -0.2344
12058TIP3    H157665   1.432   4.520  11.707  0.7993 -0.5959 -0.0556
12058TIP3    H257666   1.368   4.490  11.573 -0.3800 -0.2618  0.4244
12059TIP3   OH257667   4.605   1.513   6.455  0.1715  0.2518  0.1557
12059TIP3    H157668   4.685   1.524   6.404  1.1545 -0.8830  1.3594
12059TIP3    H257669   4.586   1.419   6.450 -1.2338  0.5384 -0.2940
12060TIP3   OH257670   6.257   0.759   3.730  0.5355  0.4845 -0.0958
12060TIP3    H157671   6.172   0.773   3.772  0.6877 -0.1323  0.4261
12060TIP3    H257672   6.249   0.801   3.645  0.0557  1.3403  0.3585
12061TIP3   OH257673   0.281   0.892  16.657  0.2190 -0.1357 -0.1971
12061TIP3    H157674   0.264   0.986  16.671  0.2659 -0.3840  1.8373
12061TIP3    H257675   0.369   0.879  16.693 -0.5368 -1.3091  1.2648
12062TIP3   OH257676   1.410   5.782  15.854  0.4066  0.4361 -0.1127
12062TIP3    H157677   1.318   5.776  15.879  0.1755 -0.1631 -1.0490
12062TIP3    H257678   1.410   5.846  15.782  1.0147  1.9529  1.1951
12063TIP3   OH257679   2.497   1.601   4.744 -0.2599  0.4960  0.4630
12063TIP3    H157680   2.570   1.569   4.797  0.1162 -1.2527 -1.0162
12063TIP3    H257681   2.426   1.538   4.760  0.3641 -1.0165 -2.2066
12064TIP3   OH257682   4.950   1.072   2.278  0.2621 -0.4048  0.3320
12064TIP3    H157683   4.934   1.060   2.185  0.0530 -0.6637  0.4017
12064TIP3    H257684   4.910   0.996   2.320  0.0198 -0.0992  0.6672
12065TIP3   OH257685   2.723   2.407   2.105  0.4517 -0.3339  0.4546
12065TIP3    H157686   2.638   2.384   2.143  0.1446  1.4713  0.9679
12065TIP3    H257687   2.769   2.324   2.097 -0.5220 -1.1030  2.2731
12066TIP3   OH257688   0.454   2.471  13.014  0.2816  0.9267  0.5457
12066TIP3    H157689   0.490   2.464  12.926  0.2954 -1.9534  0.6994
12066TIP3    H257690   0.528   2.454  13.073  0.0626  1.8503  1.1257
12067TIP3   OH257691   3.255   3.502   4.302 -0.4792 -0.8266  0.4379
12067TIP3    H157692   3.322   3.457   4.249 -0.4367  0.1450 -0.3639
12067TIP3    H257693   3.272   3.474   4.391  1.3385 -0.1985  0.3255
12068TIP3   OH257694   6.712   3.966  11.598 -0.1479 -0.4246  0.0895
12068TIP3    H157695   6.639   4.003  11.646  0.1418 -0.2401  0.3931
12068TIP3    H257696   6.673   3.900  11.541 -0.7361  0.6713 -0.8132
12069TIP3   OH257697   3.500   6.101   0.345  0.0808  0.2781  0.6283
12069TIP3    H157698   3.512   6.141   0.431 -0.0875 -0.4156  0.9776
12069TIP3    H257699   3.501   6.007   0.361  2.2269  0.0628 -0.4039
12070TIP3   OH257700   4.812   4.575   6.230  0.2323  0.8409 -0.2733
12070TIP3    H157701   4.896   4.590   6.187  0.7254  0.8229  0.6532
12070TIP3    H257702   4.831   4.583   6.323 -0.2902 -1.5260  0.1067
12071TIP3   OH257703   2.599   4.708   2.002  0.0094  0.6773  0.4534
12071TIP3    H157704   2.638   4.695   1.915  1.1437  1.5272  0.8116
12071TIP3    H257705   2.524   4.648   2.004  2.1475 -2.1762  0.2981
12072TIP3   OH257706   4.794   3.946  16.269  0.2926  0.6063  0.1033
12072TIP3    H157707   4.701   3.951  16.245 -0.4835  0.1616  2.7154
12072TIP3    H257708   4.824   4.036  16.265 -0.6890  0.9801  0.6552
12073TIP3   OH257709   3.022   2.653  16.769  0.0897 -0.3633  0.2687
12073TIP3    H157710   3.043   2.566  16.803  2.1033 -0.0873 -0.1367
12073TIP3    H257711   3.070   2.713  16.827  0.6821  0.3170 -0.8964
12074TIP3   OH257712   6.100   2.335  13.534 -0.8336 -0.0681  0.1873
12074TIP3    H157713   6.057   2.420  13.520  0.4432  0.5827  0.0428
12074TIP3    H257714   6.080   2.285  13.455 -0.2256  0.7133 -0.4764
12075TIP3   OH257715   5.207   4.196  10.834 -0.1621  0.1041 -0.1299
12075TIP3    H157716   5.215   4.283  10.795 -0.9790  0.5421  0.6436
12075TIP3    H257717   5.116   4.171  10.817 -0.4945  0.2413  1.3282
12076TIP3   OH257718   2.165   0.296  13.578  0.3829 -0.1377 -0.1297
12076TIP3    H157719   2.131   0.238  13.645 -1.9773 -1.7812 -2.5521
12076TIP3    H257720   2.092   0.354  13.556  2.0980  2.6536  0.9016
12077TIP3   OH257721   5.876   6.423  11.893  0.1765  0.0120 -0.2953
12077TIP3    H157722   5.931   6.474  11.952  0.2552  1.0586 -1.2301
12077TIP3    H257723   5.851   6.346  11.944 -0.9451  1.5446  1.6237
12078TIP3   OH257724   2.951   4.160   1.080  0.6553  0.3132 -0.0950
12078TIP3    H157725   2.952   4.126   1.170 -0.4378 -0.5901 -0.4064
12078TIP3    H257726   3.017   4.109   1.034 -0.9234 -1.4130 -0.5400
12079TIP3   OH257727   1.521   1.388  13.579 -0.0467 -0.8399 -0.6351
12079TIP3    H157728   1.583   1.444  13.532  0.7186 -0.4348  0.8236
12079TIP3    H257729   1.574   1.343  13.644 -1.4776  0.7025  1.7262
12080TIP3   OH257730   2.930   1.525   3.737  0.0382  0.1537  0.0337
12080TIP3    H157731   2.865   1.584   3.699  0.0032  0.1138  0.0322
12080TIP3    H257732   2.883   1.442   3.750  0.4533 -0.3274 -1.3127
12081TIP3   OH257733   6.460   1.110   1.468  0.4009  0.1644  0.5477
12081TIP3    H157734   6.369   1.079   1.471  0.3358  0.2117 -0.5834
12081TIP3    H257735   6.484   1.105   1.376  0.9349  1.9462  0.5593
12082TIP3   OH257736   0.755   1.261  15.498  0.3797 -0.1104  0.3589
12082TIP3    H157737   0.703   1.337  15.470  0.2755 -0.4508 -0.3872
12082TIP3    H257738   0.839   1.272  15.453  0.7095  0.0661  1.0090
12083TIP3   OH257739   4.980   6.659  15.972  0.1732  0.2376  0.0096
12083TIP3    H157740   5.014   6.650  15.883 -0.1558  2.2552 -0.3616
12083TIP3    H257741   5.001   6.749  15.997  0.0299 -0.1991  1.8991
12084TIP3   OH257742   0.651   0.188   5.598 -0.0163 -0.1610  0.0302
12084TIP3    H157743   0.684   0.099   5.606 -1.0238 -0.4972  0.6649
12084TIP3    H257744   0.654   0.223   5.687 -1.3528 -0.2095  0.1144
12085TIP3   OH257745   5.322   6.102   3.982 -0.3255 -0.2952 -0.0730
12085TIP3    H157746   5.315   6.192   4.014 -0.4200 -0.0708 -0.7064
12085TIP3    H257747   5.359   6.111   3.894  0.6052 -0.9425  0.2373
12086TIP3   OH257748   0.980   1.371  10.612 -0.0830  0.2829 -0.1334
12086TIP3    H157749   0.911   1.420  10.656  1.3432  0.9086  1.5516
12086TIP3    H257750   0.963   1.279  10.634 -0.3713  0.4410  0.3114
12087TIP3   OH257751   0.585   3.917   0.380 -0.3339  0.2670  0.0752
12087TIP3    H157752   0.675   3.924   0.348 -0.4372 -2.1175 -0.9179
12087TIP3    H257753   0.537   3.982   0.328  0.7056  1.2789  0.3346
12088TIP3   OH257754   1.596   2.475   5.328 -0.1220  0.1035  0.3326
12088TIP3    H157755   1.615   2.480   5.422 -0.1171 -0.1495  0.3444
12088TIP3    H257756   1.532   2.545   5.313  0.4864  0.6815  0.3742
12089TIP3   OH257757   4.630   6.780   1.449  0.0767  0.0005 -0.1744
12089TIP3    H157758   4.576   6.855   1.423 -1.7673 -0.6925  1.4093
12089TIP3    H257759   4.694   6.816   1.510 -2.4671  0.0060  2.6985
12090TIP3   OH257760   2.533   1.396  16.868  0.8046 -0.5897 -0.2760
12090TIP3    H157761   2.487   1.465  16.821 -0.7551  0.6205  2.7721
12090TIP3    H257762   2.626   1.410  16.849  0.2685 -0.5865 -3.3406
12091TIP3   OH257763   0.831   6.694   0.042  0.6414 -0.8768  0.5334
12091TIP3    H157764   0.835   6.789   0.055  1.2689 -1.1177  2.4163
12091TIP3    H257765   0.768   6.664   0.108 -1.0876 -1.5902 -1.3669
12092TIP3   OH257766   5.340   6.639  13.911 -0.4847 -0.1978  0.6152
12092TIP3    H157767   5.424   6.685  13.910  0.5184 -1.9336 -0.2756
12092TIP3    H257768   5.284   6.691  13.853 -0.0517  0.9853  1.2208
12093TIP3   OH257769   5.636   5.592  13.004 -0.2867  0.4037 -0.3467
12093TIP3    H157770   5.663   5.682  13.023 -0.0746  0.6173 -1.5784
12093TIP3    H257771   5.547   5.601  12.968  0.0442  0.2177 -1.2397
12094TIP3   OH257772   4.545   5.910  14.643  0.1948  0.2495 -0.4706
12094TIP3    H157773   4.452   5.920  14.665  0.3135  0.3059  0.0065
12094TIP3    H257774   4.574   5.997  14.617  0.2852  0.3718  0.0411
12095TIP3   OH257775   6.323   4.569   3.098  0.1741 -0.2647 -0.0438
12095TIP3    H157776   6.376   4.495   3.068  2.6996  1.4780 -0.2317
12095TIP3    H257777   6.379   4.614   3.161 -2.0041  0.5135  1.4452
12096TIP3   OH257778   3.520   4.017   3.407 -0.1512  0.1404 -0.7430
12096TIP3    H157779   3.601   3.975   3.377 -0.4384 -1.0923  0.1305
12096TIP3    H257780   3.486   4.062   3.329  1.8121  1.4599 -0.9272
12097TIP3   OH257781   2.359   5.362   1.340  0.1293  0.2073  0.2451
12097TIP3    H157782   2.426   5.307   1.300  0.3745  0.1436  0.7371
12097TIP3    H257783   2.328   5.418   1.268  0.3598 -0.1008 -0.0985
12098TIP3   OH257784   6.380   0.449   6.803 -0.2473  0.2658 -0.0718
12098TIP3    H157785   6.350   0.526   6.852  1.3983  1.1511 -0.3681
12098TIP3    H257786   6.462   0.477   6.763 -0.2799 -1.2444 -1.2874
12099TIP3   OH257787   0.146   4.236  13.806 -0.0391  0.4065 -0.2075
12099TIP3    H157788   0.216   4.172  13.812 -0.3819  0.1291  1.1234
12099TIP3    H257789   0.100   4.215  13.725 -0.0288 -0.9275  0.1146
12100TIP3   OH257790   4.253   0.878   6.531 -0.2708  0.7045  0.3270
12100TIP3    H157791   4.345   0.864   6.510 -0.4018  0.0482  0.1677
12100TIP3    H257792   4.246   0.972   6.547  0.4787  0.7152  0.6142
12101TIP3   OH257793   0.513   6.658  14.968 -0.3741  0.2625 -0.3385
12101TIP3    H157794   0.421   6.682  14.976 -0.8574 -1.8682  1.3768
12101TIP3    H257795   0.545   6.654  15.058  0.7955 -1.1072 -0.7777
12102TIP3   OH257796   5.286   2.377   2.314 -0.2845  0.6593 -0.4424
12102TIP3    H157797   5.330   2.338   2.390 -0.5010  1.9674  0.3864
12102TIP3    H257798   5.302   2.471   2.323  1.1576  0.7284 -2.9726
12103TIP3   OH257799   4.952   2.128   3.880 -0.4823  0.6565  0.4968
12103TIP3    H157800   5.030   2.102   3.930 -1.6582  0.5610  2.3534
12103TIP3    H257801   4.936   2.054   3.821  1.8074  1.4075 -1.2139
12104TIP3   OH257802   6.380   0.019   3.507  0.4747 -0.1930  0.4483
12104TIP3    H157803   6.356   0.041   3.597 -2.5876  0.0207 -0.3283
12104TIP3    H257804   6.338  -0.065   3.490  3.2041 -1.5855 -0.0434
12105TIP3   OH257805   2.536   1.354   4.463 -0.2313 -0.5297 -0.1207
12105TIP3    H157806   2.484   1.416   4.412  0.8826 -1.0060 -1.9314
12105TIP3    H257807   2.594   1.409   4.516 -2.1801 -0.0057  1.6009
12106TIP3   OH257808   6.595   4.231   6.167  0.0493 -0.6519 -0.1294
12106TIP3    H157809   6.557   4.144   6.180 -2.1142  0.3451  0.5692
12106TIP3    H257810   6.521   4.291   6.171  1.6063  1.3453  0.4324
12107TIP3   OH257811   1.008   1.846  14.724  0.2771  0.6118  0.3397
12107TIP3    H157812   0.916   1.821  14.723  0.5168 -0.3362  0.6449
12107TIP3    H257813   1.023   1.888  14.639  0.2662 -1.9827 -1.0642
12108TIP3   OH257814   1.589   5.533  16.410 -0.4994  0.6393  0.2855
12108TIP3    H157815   1.640   5.614  16.409 -1.8010  1.5000  0.9749
12108TIP3    H257816   1.654   5.464  16.397  0.8985  1.6685  1.4160
12109TIP3   OH257817   4.647   0.591  16.953 -0.1377  0.1930 -0.0489
12109TIP3    H157818   4.733   0.633  16.958  0.3072 -0.8159  1.1379
12109TIP3    H257819   4.588   0.653  16.996  0.3811 -0.0298  1.0204
12110TIP3   OH257820   4.840   0.106   6.187 -0.3344  0.4360  0.1628
12110TIP3    H157821   4.920   0.057   6.205 -1.8606 -1.8260  1.2891
12110TIP3    H257822   4.828   0.099   6.092 -1.3020 -2.8863  0.4181
12111TIP3   OH257823   1.941   2.606   3.348  0.2201  0.0553 -0.6640
12111TIP3    H157824   1.883   2.614   3.424  1.2820  1.1547  0.0737
12111TIP3    H257825   1.926   2.686   3.298 -0.4712 -0.6651 -1.6253
12112TIP3   OH257826   1.924   6.087   5.865 -0.3919  0.4007 -0.1682
12112TIP3    H157827   1.871   6.008   5.879  0.6787 -0.2532  0.2431
12112TIP3    H257828   1.894   6.148   5.932 -0.3606 -0.1076  0.3188
12113TIP3   OH257829   4.961   2.059  11.910 -0.1234  0.1598 -0.2802
12113TIP3    H157830   5.030   2.054  11.976 -0.0029 -0.0701 -0.4178
12113TIP3    H257831   4.956   2.151  11.886 -0.3414  0.2805  0.2298
12114TIP3   OH257832   6.069   1.554  14.661  0.1717 -0.2126 -0.2250
12114TIP3    H157833   6.163   1.539  14.650  0.1382 -0.9709  0.4271
12114TIP3    H257834   6.060   1.649  14.666  0.9298 -0.1422 -0.0503
12115TIP3   OH257835   2.960   1.054   2.429 -0.2823 -0.5098 -0.3170
12115TIP3    H157836   3.016   1.046   2.507 -1.0356 -1.2118  0.1702
12115TIP3    H257837   2.873   1.029   2.460 -0.3530 -2.1543 -1.6825
12116TIP3   OH257838   5.509   0.442  15.850  0.1403  0.4746 -0.3096
12116TIP3    H157839   5.452   0.498  15.904 -0.1928  0.9501 -1.1363
12116TIP3    H257840   5.457   0.363  15.834  0.5388 -0.0062  0.7011
12117TIP3   OH257841   6.025   3.323  12.777 -0.5414  0.4093 -0.2306
12117TIP3    H157842   5.999   3.280  12.859 -1.6923  2.9255  0.8450
12117TIP3    H257843   5.944   3.329  12.726 -0.2505  0.6600 -0.6739
12118TIP3   OH257844   3.339   2.908   4.910  0.4390 -0.1332 -0.0184
12118TIP3    H157845   3.339   3.002   4.928 -1.4535 -0.1429  0.2171
12118TIP3    H257846   3.431   2.887   4.895  0.9690  1.6474  0.4509
12119TIP3   OH257847   1.143   5.463  15.402  0.0954 -1.0966  0.0100
12119TIP3    H157848   1.162   5.427  15.316 -0.4802  0.6492 -0.8951
12119TIP3    H257849   1.215   5.524  15.419  0.0451 -1.2021  0.6288
12120TIP3   OH257850   2.702   6.700  16.954 -0.2781  0.3257  0.0947
12120TIP3    H157851   2.680   6.771  16.894  1.3707 -0.7308 -1.8837
12120TIP3    H257852   2.641   6.630  16.932  1.9220 -0.9990 -2.3025
12121TIP3   OH257853   3.323   0.607   4.236 -0.5499 -0.5518 -0.0873
12121TIP3    H157854   3.358   0.518   4.239 -0.2397 -0.4821 -1.2197
12121TIP3    H257855   3.282   0.614   4.151  1.1191  0.9897 -0.8412
12122TIP3   OH257856   2.606   3.225  15.990  0.0975 -0.0386 -0.2166
12122TIP3    H157857   2.670   3.239  16.060  1.5472 -2.0347 -1.0644
12122TIP3    H257858   2.535   3.176  16.031  0.9971 -1.3073 -0.1167
12123TIP3   OH257859   4.291   1.160   6.313  0.0032  0.3743 -0.2332
12123TIP3    H157860   4.269   1.160   6.406  1.2088  0.7678  0.0693
12123TIP3    H257861   4.237   1.090   6.275 -1.4037  1.0183  0.5245
12124TIP3   OH257862   5.086   5.821   4.533  0.3048  0.3143  0.1145
12124TIP3    H157863   5.051   5.734   4.517  1.8982 -0.1028 -1.4838
12124TIP3    H257864   5.166   5.806   4.584  0.0485  0.9266  0.7065
12125TIP3   OH257865   2.644   4.617   5.503 -0.3771  0.5220 -0.2471
12125TIP3    H157866   2.556   4.653   5.497 -0.3131  1.2446  2.1352
12125TIP3    H257867   2.632   4.524   5.520 -0.6816  0.6291  0.1187
12126TIP3   OH257868   0.815   6.028   0.377  0.0394 -0.4563 -0.2577
12126TIP3    H157869   0.729   6.063   0.353  0.9739  1.7173 -0.6767
12126TIP3    H257870   0.827   6.052   0.469  0.1423 -0.8526 -0.1663
12127TIP3   OH257871   2.157   0.291  13.168 -0.1871  0.0434  0.5031
12127TIP3    H157872   2.092   0.230  13.205 -0.0302 -0.2921  0.2351
12127TIP3    H257873   2.240   0.266  13.208 -0.0616 -0.1514  0.1307
12128TIP3   OH257874   2.967   4.294   5.519 -0.2969 -0.6935 -0.0981
12128TIP3    H157875   3.042   4.234   5.522  0.1423 -0.1335  0.3247
12128TIP3    H257876   3.003   4.375   5.482 -0.6022 -0.3002  0.4576
12129TIP3   OH257877   4.636   5.308  16.727  0.5276 -0.4118  0.3165
12129TIP3    H157878   4.589   5.342  16.803  0.7221  0.8203 -0.1055
12129TIP3    H257879   4.648   5.215  16.746  0.4813 -0.1412  1.7384
12130TIP3   OH257880   0.252   0.341  12.637 -0.5703  0.0058 -0.6090
12130TIP3    H157881   0.204   0.358  12.557  0.5806  2.0013 -0.9604
12130TIP3    H257882   0.336   0.385  12.624 -0.0025 -0.4060  1.3244
12131TIP3   OH257883   4.056   1.938  12.186 -0.0529  0.3002  0.4918
12131TIP3    H157884   4.106   1.916  12.265  0.8148 -1.5322 -0.5060
12131TIP3    H257885   3.967   1.956  12.218  0.2013 -0.7233  1.8597
12132TIP3   OH257886   6.209   5.820  11.410  0.5785  0.4019  0.0744
12132TIP3    H157887   6.151   5.747  11.389  1.2922 -0.3261  0.5991
12132TIP3    H257888   6.291   5.801  11.364  1.2578  0.1231  1.3567
12133TIP3   OH257889   1.767   2.455  15.154 -0.6987  0.1226 -0.2098
12133TIP3    H157890   1.749   2.549  15.156  1.1950  0.5293  1.8499
12133TIP3    H257891   1.825   2.443  15.078 -0.9352  0.6084 -0.4709
12134TIP3   OH257892   4.931   1.762   3.121  0.4200 -0.2232 -0.1724
12134TIP3    H157893   4.861   1.799   3.175  0.3177  0.4953 -0.7821
12134TIP3    H257894   4.998   1.736   3.184 -0.3085 -0.7556  0.4078
12135TIP3   OH257895   1.241   0.918  14.488  0.0713  0.6684 -0.2916
12135TIP3    H157896   1.211   0.968  14.412  0.1369  0.4741 -0.4459
12135TIP3    H257897   1.302   0.976  14.534 -1.3939  1.5146  0.6582
12136TIP3   OH257898   6.746   3.373   2.190 -0.3297  0.5966 -0.5549
12136TIP3    H157899   6.835   3.338   2.193 -0.7641 -0.6283 -1.2396
12136TIP3    H257900   6.727   3.384   2.097 -0.1496  2.8854 -0.3603
12137TIP3   OH257901   4.303   6.101  13.966 -0.4417  0.1489 -0.0608
12137TIP3    H157902   4.378   6.043  13.967 -1.2757 -0.9700 -0.3309
12137TIP3    H257903   4.325   6.168  13.902  0.1292 -0.4382 -0.4882
12138TIP3   OH257904   5.408   4.789  15.125 -0.1407  0.5692  0.4088
12138TIP3    H157905   5.390   4.830  15.040  1.1358  1.3438  0.4799
12138TIP3    H257906   5.472   4.847  15.166  1.1357 -1.0771  0.8647
12139TIP3   OH257907   0.670   3.651   1.891  0.1762  0.2460 -0.0002
12139TIP3    H157908   0.684   3.734   1.938  0.3160  0.2738 -0.0911
12139TIP3    H257909   0.628   3.594   1.955  1.7979 -0.2558  0.6671
12140TIP3   OH257910   1.996   6.574   1.201  0.0501 -0.2557  0.1724
12140TIP3    H157911   1.984   6.491   1.154  1.8788 -0.9342  0.8186
12140TIP3    H257912   2.046   6.628   1.141  1.9131 -0.9280  1.0428
12141TIP3   OH257913   0.490   5.743  16.242 -0.1565  0.1073  0.1778
12141TIP3    H157914   0.446   5.807  16.298  3.1652  1.2158  1.7639
12141TIP3    H257915   0.524   5.795  16.169  0.8274 -0.2128  0.4026
12142TIP3   OH257916   5.424   2.733   5.940 -0.0731 -0.0809  0.8658
12142TIP3    H157917   5.450   2.749   6.031  2.8032  3.2601 -0.3241
12142TIP3    H257918   5.355   2.797   5.923  0.5923  0.4859  0.2614
12143TIP3   OH257919   4.364   2.172  10.177  0.2393  0.1741  0.1442
12143TIP3    H157920   4.345   2.212  10.262  0.6833 -2.2583  1.4749
12143TIP3    H257921   4.283   2.182  10.127 -0.7679 -0.2025  1.6435
12144TIP3   OH257922   4.100   2.168  12.415  0.0104  0.4000 -0.2648
12144TIP3    H157923   4.158   2.092  12.418 -2.1063 -1.3393 -0.5678
12144TIP3    H257924   4.128   2.216  12.338  0.3289 -1.0213 -1.0736
12145TIP3   OH257925   6.342   4.515  11.671  0.0720 -0.7091 -0.0999
12145TIP3    H157926   6.395   4.548  11.598 -0.8118 -1.3343 -1.0619
12145TIP3    H257927   6.352   4.580  11.740  0.2716  0.3270 -1.0835
12146TIP3   OH257928   3.500   4.514  16.995 -0.5221 -0.0107 -0.1481
12146TIP3    H157929   3.489   4.425  17.029  1.8110 -0.2913  0.0101
12146TIP3    H257930   3.443   4.517  16.917 -0.8107 -1.5545 -0.0285
12147TIP3   OH257931   3.751   5.551   3.846  0.5992 -0.6348  0.3091
12147TIP3    H157932   3.722   5.620   3.906  0.3453 -0.8766  0.4635
12147TIP3    H257933   3.749   5.593   3.760 -1.0426 -0.8790  0.1972
12148TIP3   OH257934   6.747   5.498   3.947  1.0891 -0.5124  0.1588
12148TIP3    H157935   6.716   5.421   3.900  3.3142 -0.2628 -1.9365
12148TIP3    H257936   6.673   5.559   3.947  0.4617 -1.2366 -1.5083
12149TIP3   OH257937   0.342   2.644   0.623 -0.2953 -0.0261 -0.0651
12149TIP3    H157938   0.302   2.562   0.596  1.0059 -0.4529 -0.8056
12149TIP3    H257939   0.353   2.636   0.717 -1.1654 -0.2410  0.0254
12150TIP3   OH257940   3.982   5.749   2.010  0.4214  0.5760  0.0136
12150TIP3    H157941   4.037   5.784   2.081  1.1064 -0.7552  0.1791
12150TIP3    H257942   3.974   5.656   2.030  0.3349  0.2394 -1.4723
12151TIP3   OH257943   6.555   2.205   3.207  0.8066  0.5458  0.1557
12151TIP3    H157944   6.568   2.138   3.274 -0.2012  0.6337  0.4737
12151TIP3    H257945   6.614   2.182   3.136  2.3775  0.7975  1.3307
12152TIP3   OH257946   3.859   6.540   5.571 -0.1013  0.5200 -0.3617
12152TIP3    H157947   3.949   6.541   5.603 -0.5697  1.7459  1.0153
12152TIP3    H257948   3.806   6.566   5.646 -1.7936 -1.6966 -0.6974
12153TIP3   OH257949   5.054   4.131  13.056  0.2865 -0.0524 -0.5392
12153TIP3    H157950   5.115   4.058  13.056  0.3220 -0.0564  0.8135
12153TIP3    H257951   5.043   4.154  12.964 -0.2959 -2.2170 -1.0653
12154TIP3   OH257952   6.057   4.543  11.881  0.5456  0.3250  0.5529
12154TIP3    H157953   6.009   4.492  11.816  0.1684 -0.6580  1.5642
12154TIP3    H257954   6.108   4.605  11.830 -0.3739  0.1461 -0.6386
12155TIP3   OH257955   2.455   0.368   6.169 -0.6634 -0.0359 -0.3157
12155TIP3    H157956   2.405   0.450   6.174 -1.4352 -0.5134 -0.0745
12155TIP3    H257957   2.412   0.318   6.099 -1.4299 -1.0421  0.8447
12156TIP3   OH257958   3.793   2.780  14.607  0.4476  0.4212 -0.2224
12156TIP3    H157959   3.702   2.804  14.625  0.6720  2.2350 -1.2946
12156TIP3    H257960   3.803   2.694  14.647 -1.6253  0.3451  0.2451
12157TIP3   OH257961   5.545   3.671  12.466 -0.1305  0.1994  0.1980
12157TIP3    H157962   5.580   3.745  12.416 -0.0352  1.0221  1.4191
12157TIP3    H257963   5.559   3.595  12.410 -0.0986  1.0861 -1.0340
12158TIP3   OH257964   3.206   5.840   4.958  0.5055 -0.1551 -0.3059
12158TIP3    H157965   3.296   5.835   4.989  0.0279  0.6535  1.2819
12158TIP3    H257966   3.190   5.754   4.918  1.5018 -0.8368  0.7052
12159TIP3   OH257967   4.254   0.042  14.182 -0.0037 -0.2465  0.1955
12159TIP3    H157968   4.337   0.085  14.202  0.0759 -0.4258  0.2529
12159TIP3    H257969   4.224   0.008  14.267  0.6450 -1.5628 -0.0764
12160TIP3   OH257970   5.593   0.604  16.725  0.1386  0.2433 -0.5857
12160TIP3    H157971   5.659   0.605  16.793  0.9461 -3.2271 -1.1482
12160TIP3    H257972   5.642   0.603  16.643 -0.8009  3.5170 -1.3231
12161TIP3   OH257973   5.295   2.542   1.261  0.9395  0.7422 -0.3216
12161TIP3    H157974   5.360   2.564   1.195  1.0682 -0.8255 -0.7642
12161TIP3    H257975   5.216   2.520   1.212  0.8253  0.2568  0.0597
12162TIP3   OH257976   5.868   0.472  16.808  0.1239 -0.4730 -0.6914
12162TIP3    H157977   5.962   0.479  16.820  0.5015 -1.5034 -2.5938
12162TIP3    H257978   5.834   0.452  16.895  2.0820 -3.5321 -0.4742
12163TIP3   OH257979   0.370   0.055  16.684  0.3866 -0.1712  0.0563
12163TIP3    H157980   0.422   0.017  16.613 -0.4872  0.5552 -0.9903
12163TIP3    H257981   0.325   0.129  16.645 -0.8938 -0.3421  1.1220
12164TIP3   OH257982   1.443   4.342  12.554 -0.0685 -0.6623 -0.1130
12164TIP3    H157983   1.363   4.352  12.502  0.1311  1.1493 -0.1111
12164TIP3    H257984   1.470   4.431  12.574  1.0912 -1.2838  1.2373
12165TIP3   OH257985   6.284   2.642   0.687  0.0176  0.4961  0.1657
12165TIP3    H157986   6.276   2.738   0.690  1.5839  0.6442  0.9111
12165TIP3    H257987   6.329   2.619   0.768 -1.4320 -1.0333  0.5850
12166TIP3   OH257988   1.246   1.782  11.757 -0.5638  0.6085  0.4225
12166TIP3    H157989   1.239   1.712  11.821 -0.0540  0.2810  0.1216
12166TIP3    H257990   1.335   1.776  11.723 -0.7421  0.9459 -0.1227
12167TIP3   OH257991   1.647   1.817  12.201  0.2498 -0.0327 -0.1559
12167TIP3    H157992   1.683   1.760  12.134 -0.1946  0.2745 -0.6683
12167TIP3    H257993   1.595   1.759  12.258 -1.0073 -0.0139 -1.2402
12168TIP3   OH257994   1.266   1.072  16.391  0.1812 -0.1826  0.3049
12168TIP3    H157995   1.216   1.143  16.350  0.5163 -0.5348 -0.7513
12168TIP3    H257996   1.352   1.077  16.349  0.0535 -1.5354 -0.1655
12169TIP3   OH257997   1.160   5.878   6.359  0.7285 -0.4077 -0.5263
12169TIP3    H157998   1.200   5.823   6.427 -0.4355 -1.8026 -0.9109
12169TIP3    H257999   1.066   5.870   6.373  0.4837  2.4061  0.0480
12170TIP3   OH258000   2.580   5.300  12.792 -0.5966 -0.2035 -0.0335
12170TIP3    H158001   2.574   5.382  12.744  0.1729  0.6074  1.1934
12170TIP3    H258002   2.605   5.235  12.726  1.4300  1.0608 -0.5994
12171TIP3   OH258003   3.150   0.773  15.153  0.3054  0.1832 -0.4798
12171TIP3    H158004   3.216   0.842  15.161  0.3605  0.0605  0.1886
12171TIP3    H258005   3.179   0.705  15.215 -0.4679  0.1567 -0.1370
12172TIP3   OH258006   3.985   6.477  14.608 -0.3442 -0.4164  0.2700
12172TIP3    H158007   3.948   6.442  14.689 -0.0985 -0.2976  0.4373
12172TIP3    H258008   4.040   6.550  14.637 -0.8173  0.0818 -0.0676
12173TIP3   OH258009   3.877   1.300  13.490 -0.5880 -0.1181 -0.6584
12173TIP3    H158010   3.820   1.349  13.549 -1.2779 -1.9490  0.2880
12173TIP3    H258011   3.849   1.209  13.500 -0.4236 -0.5740 -3.5244
12174TIP3   OH258012   3.533   4.063  12.023  0.0546  0.0145  0.1366
12174TIP3    H158013   3.459   4.121  12.005  0.3712  0.2968 -0.2907
12174TIP3    H258014   3.507   4.013  12.100 -0.5914  0.0926 -0.0256
12175TIP3   OH258015   5.647   4.593  14.481  0.0994 -0.1095  0.3895
12175TIP3    H158016   5.710   4.537  14.437  1.7460  0.4420  1.9475
12175TIP3    H258017   5.678   4.682  14.465 -1.1069  0.2781  0.0174
12176TIP3   OH258018   0.973   2.694  15.374  0.0931 -0.9780  0.0032
12176TIP3    H158019   0.994   2.608  15.411  1.4249 -0.2875  0.9575
12176TIP3    H258020   1.058   2.737  15.366 -0.5608  0.2817 -0.3825
12177TIP3   OH258021   0.179   2.502  13.006 -0.3468  0.3599  0.6962
12177TIP3    H158022   0.274   2.509  13.015 -0.3434  2.9736 -0.4084
12177TIP3    H258023   0.160   2.411  13.028  2.2285  0.0819  2.2370
12178TIP3   OH258024   0.967   4.432  10.920 -0.1284 -0.0319  0.2305
12178TIP3    H158025   0.913   4.385  10.985  0.4844  0.2146  0.9323
12178TIP3    H258026   1.055   4.428  10.956 -0.0816  1.8513  0.4247
12179TIP3   OH258027   3.401   2.286   1.258  0.4484 -0.3421 -0.3652
12179TIP3    H158028   3.393   2.329   1.343  0.8424  0.3387 -0.6537
12179TIP3    H258029   3.315   2.297   1.218  1.0447  1.9796 -1.2197
12180TIP3   OH258030   2.583   2.623  11.304 -0.0709  0.6920  0.0429
12180TIP3    H158031   2.642   2.680  11.353  0.7546 -1.4707  1.7454
12180TIP3    H258032   2.637   2.548  11.280 -1.0123  0.7078 -2.4644
12181TIP3   OH258033   6.813   1.498  13.788 -0.0471  0.1161 -0.2872
12181TIP3    H158034   6.726   1.514  13.752  0.6388  1.4190 -1.5037
12181TIP3    H258035   6.811   1.537  13.875 -0.0778  2.1359 -1.1375
12182TIP3   OH258036   2.423   5.446  17.163  0.0084 -0.3084  0.0375
12182TIP3    H158037   2.405   5.396  17.083 -0.3288  0.0555 -0.1247
12182TIP3    H258038   2.340   5.488  17.183 -0.1339 -1.0556  1.0662
12183TIP3   OH258039   6.653   1.878   5.318  0.2737  0.0665 -0.4884
12183TIP3    H158040   6.605   1.895   5.237  0.6012 -2.0900 -1.1746
12183TIP3    H258041   6.714   1.952   5.325  0.4121  0.1773 -2.3212
12184TIP3   OH258042   2.427   5.949   0.367 -0.4093  0.0950  0.5595
12184TIP3    H158043   2.445   6.018   0.303 -2.1844  1.3642  1.3457
12184TIP3    H258044   2.513   5.927   0.403  0.1941  2.1875  0.5535
12185TIP3   OH258045   4.080   4.243  12.807  0.4584 -0.1726  0.5474
12185TIP3    H158046   4.144   4.297  12.760 -1.0309  1.8153  0.6485
12185TIP3    H258047   4.070   4.287  12.892 -0.7074 -0.6826  0.6920
12186TIP3   OH258048   4.348   6.313   3.765  1.0754 -0.0968  0.6203
12186TIP3    H158049   4.271   6.263   3.792  0.5293  0.8206  0.8379
12186TIP3    H258050   4.321   6.358   3.685  1.7944 -0.7003  0.0247
12187TIP3   OH258051   4.974   5.444  17.265  0.2332  0.5877 -0.3821
12187TIP3    H158052   5.067   5.426  17.255  0.1412  0.4539 -1.0708
12187TIP3    H258053   4.949   5.398  17.345  0.9408  1.3603  0.3078
12188TIP3   OH258054   0.836   3.692  15.439 -0.5717 -0.0059 -0.9089
12188TIP3    H158055   0.903   3.623  15.438  0.5909  1.0481  0.3374
12188TIP3    H258056   0.828   3.716  15.531 -0.5341  1.9056 -1.3638
12189TIP3   OH258057   5.138   2.801   3.350 -0.4608  0.0356  0.5066
12189TIP3    H158058   5.071   2.762   3.294 -2.9897  2.4151  1.6507
12189TIP3    H258059   5.219   2.791   3.299 -1.7036 -2.4164 -1.2209
12190TIP3   OH258060   4.547   1.909  13.193  0.4534  0.4111 -0.1176
12190TIP3    H158061   4.452   1.907  13.187  0.3512  3.1082 -0.4673
12190TIP3    H258062   4.565   1.942  13.282  1.0523  0.3254 -0.2029
12191TIP3   OH258063   5.794   0.570   4.447  0.0005  0.5268 -0.0153
12191TIP3    H158064   5.714   0.623   4.449 -0.4586 -0.1488 -0.1467
12191TIP3    H258065   5.763   0.480   4.445  0.7680  0.2601 -0.2900
12192TIP3   OH258066   6.543   5.975  13.488  0.3094  0.1255 -0.0835
12192TIP3    H158067   6.464   6.028  13.475  0.7311  1.0322  0.9066
12192TIP3    H258068   6.611   6.021  13.438  0.3915 -0.2045 -0.2763
12193TIP3   OH258069   1.641   4.093   0.515  0.0595 -0.0372  0.1394
12193TIP3    H158070   1.666   4.184   0.528  1.3757 -0.0318 -1.8935
12193TIP3    H258071   1.588   4.071   0.592 -2.6766  3.2160 -0.5938
12194TIP3   OH258072   4.127   5.809   0.597 -0.4031  0.1743 -0.2573
12194TIP3    H158073   4.047   5.756   0.599  0.1802 -0.6931  0.8847
12194TIP3    H258074   4.194   5.754   0.637  0.2920  1.6688  0.7332
12195TIP3   OH258075   1.402   3.229   1.908  0.3843 -0.5229  0.2190
12195TIP3    H158076   1.447   3.168   1.965  0.9809  0.0669  0.4011
12195TIP3    H258077   1.312   3.229   1.938  0.2891 -1.6055 -0.0439
12196TIP3   OH258078   0.582   6.604  15.233  0.9758 -0.0771  0.2422
12196TIP3    H158079   0.671   6.579  15.258  0.5208 -1.3060  0.7342
12196TIP3    H258080   0.566   6.686  15.280  1.8058  0.1047  0.2254
12197TIP3   OH258081   3.333   6.385  12.749 -0.5916 -0.1544 -0.1285
12197TIP3    H158082   3.350   6.432  12.667 -0.7450  0.0420 -0.0456
12197TIP3    H258083   3.396   6.421  12.811 -0.2106 -0.5777 -0.2630
12198TIP3   OH258084   0.310   2.894  15.017 -0.4081  0.0971  0.0537
12198TIP3    H158085   0.386   2.839  14.995 -1.4811 -1.7526  0.7360
12198TIP3    H258086   0.317   2.969  14.957  2.4400  0.5040  0.7142
12199TIP3   OH258087   5.169   4.647   3.072 -0.1004 -0.7371  0.0040
12199TIP3    H158088   5.250   4.598   3.056  0.3707  0.8992 -3.2505
12199TIP3    H258089   5.101   4.591   3.035 -0.3159 -1.3612  1.2766
12200TIP3   OH258090   4.380   2.493   4.248  0.1781 -0.3256  0.3349
12200TIP3    H158091   4.442   2.475   4.177  2.0532  1.2219  1.4902
12200TIP3    H258092   4.422   2.459   4.327 -1.4573 -1.1812  0.8821
12201TIP3   OH258093   1.368   6.452  12.872  0.4280  0.3943 -0.9985
12201TIP3    H158094   1.397   6.371  12.914 -0.8098  0.4868  0.0726
12201TIP3    H258095   1.440   6.513  12.887  0.1474  0.3272  0.7391
12202TIP3   OH258096   3.072   5.280  12.979 -0.4474  0.1982 -0.3093
12202TIP3    H158097   3.110   5.233  12.905  0.6171  0.5737 -0.0203
12202TIP3    H258098   2.979   5.257  12.977 -0.2173 -0.7334 -1.0493
12203TIP3   OH258099   2.416   6.243  12.399  0.3698  0.4090 -0.2673
12203TIP3    H158100   2.484   6.177  12.389  0.5873  0.0341  2.7273
12203TIP3    H258101   2.464   6.323  12.421 -0.0571  0.2243  1.5107
12204TIP3   OH258102   5.261   1.978  11.422 -0.0557  0.5630 -0.5272
12204TIP3    H158103   5.329   1.912  11.407 -1.0381 -0.5783 -0.0613
12204TIP3    H258104   5.185   1.929  11.451 -1.2433  1.7783 -1.4579
12205TIP3   OH258105   0.571   1.584  14.860  0.1980 -0.1336 -0.3097
12205TIP3    H158106   0.559   1.678  14.843  0.0983 -0.0577  0.1788
12205TIP3    H258107   0.665   1.571  14.853  0.2598  0.0905  0.0599
12206TIP3   OH258108   4.997   2.782  11.205  0.4816  0.2926 -0.2169
12206TIP3    H158109   4.949   2.700  11.214 -2.1497  1.6861 -0.1989
12206TIP3    H258110   4.933   2.842  11.166  3.6005  1.2538 -4.5252
12207TIP3   OH258111   6.818   0.073  12.426  0.3304 -0.3061  0.2944
12207TIP3    H158112   6.818   0.156  12.474  0.3959  0.4128 -0.8949
12207TIP3    H258113   6.800   0.006  12.492 -1.1454  0.7895  1.0703
12208TIP3   OH258114   1.713   0.751   1.555  0.4908  0.3365  0.0439
12208TIP3    H158115   1.789   0.800   1.586  0.2049  1.1960 -0.5676
12208TIP3    H258116   1.661   0.816   1.508 -0.4757 -0.3123  0.1999
12209TIP3   OH258117   4.295   1.224   5.399  0.4817  0.0168 -0.3924
12209TIP3    H158118   4.271   1.131   5.397 -0.2230  0.2004 -0.5024
12209TIP3    H258119   4.232   1.264   5.459  0.5136  0.4985 -0.6749
12210TIP3   OH258120   1.128   1.421  15.570 -0.4168  0.5979  0.3159
12210TIP3    H158121   1.220   1.411  15.596 -0.3363  0.7977  0.1130
12210TIP3    H258122   1.080   1.364  15.630 -0.0407 -0.4626 -0.3690
12211TIP3   OH258123   1.142   4.608  12.212  0.2507  0.0439  0.4547
12211TIP3    H158124   1.060   4.610  12.263  0.5386 -1.6642  1.0289
12211TIP3    H258125   1.140   4.525  12.166  0.7031  0.9227 -1.2183
12212TIP3   OH258126   0.040   0.662   3.542  0.7548 -0.1105  0.0983
12212TIP3    H158127   0.067   0.751   3.521  0.1342 -0.3083 -1.6872
12212TIP3    H258128  -0.055   0.667   3.551  0.9427 -0.0535  3.0773
12213TIP3   OH258129   4.368   0.417  11.904  0.0004 -0.0404 -0.3072
12213TIP3    H158130   4.295   0.473  11.932 -0.1168 -0.0290 -0.6380
12213TIP3    H258131   4.442   0.477  11.897  0.1393 -0.1198  0.4183
12214TIP3   OH258132   2.494   4.471  13.752  0.2370 -0.0077  0.2654
12214TIP3    H158133   2.504   4.556  13.709  0.4224  0.7285  1.6966
12214TIP3    H258134   2.565   4.468  13.816 -1.2606 -0.1113  2.0010
12215TIP3   OH258135   5.712   3.607   4.327 -0.1406 -0.5293 -0.1241
12215TIP3    H158136   5.713   3.519   4.291  1.1266 -0.8758  0.6757
12215TIP3    H258137   5.782   3.653   4.280  0.7977 -0.6722  1.0545
12216TIP3   OH258138   5.934   1.541  16.412 -0.1860 -0.0280 -0.1853
12216TIP3    H158139   5.889   1.526  16.328 -0.9710  1.3076 -0.0231
12216TIP3    H258140   5.868   1.521  16.478  0.7598 -2.1887  0.2055
12217TIP3   OH258141   1.513   4.595   2.642  0.1311 -0.2121  0.2090
12217TIP3    H158142   1.454   4.669   2.658 -1.0452 -0.9629 -0.4453
12217TIP3    H258143   1.590   4.613   2.695 -0.4957  1.0484  0.7278
12218TIP3   OH258144   4.697   2.076   3.305 -0.0365 -0.5397 -0.4055
12218TIP3    H158145   4.637   2.149   3.326 -1.2893 -1.7995  0.5955
12218TIP3    H258146   4.771   2.089   3.365 -1.0640 -1.0198  1.0401
12219TIP3   OH258147   2.613   0.704   2.861  0.3509 -0.2685 -0.4041
12219TIP3    H158148   2.685   0.728   2.920 -0.6434  0.0602  0.7230
12219TIP3    H258149   2.555   0.780   2.863  0.2606 -0.2844 -1.7805
12220TIP3   OH258150   5.896   5.705  14.006  0.3374  0.0379 -0.3944
12220TIP3    H158151   5.894   5.799  14.023  1.9761  0.2164 -0.9200
12220TIP3    H258152   5.984   5.678  14.034 -0.0785 -1.3199 -0.3251
12221TIP3   OH258153   0.010   4.253   1.849  0.1726  0.1211  0.1229
12221TIP3    H158154  -0.026   4.340   1.870 -0.6832 -0.2782  0.3307
12221TIP3    H258155  -0.055   4.191   1.881 -0.1826 -0.5773 -1.8207
12222TIP3   OH258156   5.952   6.124  15.163  0.7297 -0.2760 -0.2565
12222TIP3    H158157   5.960   6.088  15.251  2.4202 -2.3005 -1.1616
12222TIP3    H258158   6.042   6.133  15.131  0.2482  2.0365 -1.2153
12223TIP3   OH258159   3.968   0.305   4.383  0.5355 -0.2129  0.1085
12223TIP3    H158160   3.990   0.213   4.368 -1.7083 -1.4208  3.1814
12223TIP3    H258161   3.962   0.314   4.478  1.4496  3.3835 -0.0070
12224TIP3   OH258162   6.070   0.778  15.226  0.3190 -0.0435  0.5993
12224TIP3    H158163   6.032   0.766  15.313  1.2139 -0.3165  0.9699
12224TIP3    H258164   6.116   0.862  15.232  0.0046  0.1569  0.2417
12225TIP3   OH258165   3.475   4.041   3.826  0.3135 -0.4341 -0.0811
12225TIP3    H158166   3.456   4.123   3.782  0.4209 -0.7445 -0.7140
12225TIP3    H258167   3.501   4.067   3.915  0.7386  0.2391 -0.3906
12226TIP3   OH258168   2.005   2.867  15.730 -0.2856  0.1168  0.8727
12226TIP3    H158169   1.947   2.927  15.683  1.9347  0.1067 -2.2116
12226TIP3    H258170   2.033   2.916  15.807 -0.7913  1.9259 -0.0352
12227TIP3   OH258171   3.818   1.142   0.038  0.1786 -0.3754  0.2408
12227TIP3    H158172   3.858   1.104   0.116  2.9697  0.0884 -0.8478
12227TIP3    H258173   3.853   1.089  -0.035  0.8747  1.6524 -0.9704
12228TIP3   OH258174   4.540   2.152  16.047 -0.5962  0.2347 -0.0641
12228TIP3    H158175   4.607   2.084  16.055 -0.6272  0.0879 -0.9511
12228TIP3    H258176   4.469   2.123  16.105  0.2249  0.5577  1.1442
12229TIP3   OH258177   0.661   2.762   5.625 -0.4521 -0.2889 -0.4965
12229TIP3    H158178   0.678   2.767   5.719 -1.2646 -1.8709 -0.2438
12229TIP3    H258179   0.701   2.680   5.597  0.7980  0.7024 -1.7966
12230TIP3   OH258180   4.259   0.596  14.545 -1.1535 -0.2143  0.1060
12230TIP3    H158181   4.341   0.571  14.502  0.4219  0.5105  2.4693
12230TIP3    H258182   4.207   0.516  14.544  1.3370 -2.0529  2.2258
12231TIP3   OH258183   4.810   6.568  16.345 -0.0195  0.4572 -0.1005
12231TIP3    H158184   4.776   6.607  16.265  0.6514 -0.8072 -1.0475
12231TIP3    H258185   4.780   6.626  16.415 -0.2161  1.8564 -1.2971
12232TIP3   OH258186   5.186   6.417  15.250  0.0625 -0.2630  0.2672
12232TIP3    H158187   5.273   6.391  15.219 -0.0409  0.2395 -0.4708
12232TIP3    H258188   5.189   6.513  15.248  0.6505 -0.1070  3.4861
12233TIP3   OH258189   6.668   5.024   3.039  0.0420  0.2893 -0.2135
12233TIP3    H158190   6.633   5.050   3.124  0.8332 -1.0444  0.5605
12233TIP3    H258191   6.616   4.948   3.014  0.6085 -0.0703 -0.3238
12234TIP3   OH258192   4.878   5.626   1.357 -0.3972  0.5037  0.3545
12234TIP3    H158193   4.844   5.642   1.445 -0.8910  1.1802  0.0554
12234TIP3    H258194   4.856   5.706   1.308 -0.7530 -0.1415 -0.5634
12235TIP3   OH258195   3.357   4.631   3.403  0.3762 -0.9327 -0.0318
12235TIP3    H158196   3.275   4.645   3.451  1.3831  1.1336  1.2293
12235TIP3    H258197   3.403   4.565   3.454  1.5003  1.3523  2.1316
12236TIP3   OH258198   4.054   2.492  11.249  0.2317 -0.2320 -0.3698
12236TIP3    H158199   4.101   2.504  11.167  2.3137 -0.1210  0.7731
12236TIP3    H258200   3.963   2.475  11.223  1.0079 -1.1496 -2.7169
12237TIP3   OH258201   3.259   4.136  11.234  0.4157 -0.5619  0.0591
12237TIP3    H158202   3.237   4.045  11.215 -0.9301 -0.2111 -0.2204
12237TIP3    H258203   3.234   4.184  11.155 -0.6165  0.2738  0.8521
12238TIP3   OH258204   1.516   0.286  13.387 -0.2982 -0.3180 -0.5157
12238TIP3    H158205   1.428   0.249  13.390 -0.6616  0.3485 -2.1005
12238TIP3    H258206   1.573   0.211  13.371 -0.2021 -1.1819  3.1164
12239TIP3   OH258207   4.838   2.516  11.810 -0.0795  0.2408 -0.7756
12239TIP3    H158208   4.900   2.489  11.878  2.1664  1.7379 -2.0912
12239TIP3    H258209   4.752   2.492  11.845  0.8932  1.4257  2.8685
12240TIP3   OH258210   4.235   4.126  16.266  0.0798 -0.7016 -0.3575
12240TIP3    H158211   4.199   4.044  16.301  0.4831 -1.3545 -1.4359
12240TIP3    H258212   4.242   4.112  16.172 -0.9807  1.0244 -0.7414
12241TIP3   OH258213   3.709   1.005  15.247 -0.2318  0.3994  0.4373
12241TIP3    H158214   3.683   0.913  15.249 -3.7176  1.1488 -1.6253
12241TIP3    H258215   3.746   1.018  15.159 -1.8426  1.3393 -0.1473
12242TIP3   OH258216   0.029   4.235   1.014 -0.5473  0.0228  0.0525
12242TIP3    H158217   0.052   4.318   0.972 -0.4158 -0.1805 -0.2769
12242TIP3    H258218  -0.021   4.261   1.092  0.6232  0.4685  0.6796
12243TIP3   OH258219   0.321   4.622  15.190 -0.6614 -0.1874  0.2470
12243TIP3    H158220   0.280   4.554  15.136 -1.0733  1.3744 -1.5187
12243TIP3    H258221   0.404   4.641  15.146 -1.4172  1.7608 -0.4835
12244TIP3   OH258222   2.961   2.985   5.398  0.0810 -0.0034 -0.1314
12244TIP3    H158223   3.023   3.039   5.349  0.1798  0.6204  0.6627
12244TIP3    H258224   2.883   3.040   5.407  0.0232 -0.1541  0.3047
12245TIP3   OH258225   2.246   5.310   5.452  0.3910 -0.0682 -0.1226
12245TIP3    H158226   2.196   5.390   5.466 -2.3313 -1.9062  1.8088
12245TIP3    H258227   2.330   5.325   5.494  0.3282  2.0677 -0.6672
12246TIP3   OH258228   3.657   6.074   2.188  0.0900 -0.1008 -0.1083
12246TIP3    H158229   3.715   6.133   2.235  0.2528 -0.1875 -0.2008
12246TIP3    H258230   3.699   5.989   2.194 -0.3369 -0.2878  0.3560
12247TIP3   OH258231   1.059   2.339  14.431  0.5848 -0.2385  0.2985
12247TIP3    H158232   1.103   2.336  14.516  1.7606 -0.9922 -0.3192
12247TIP3    H258233   1.078   2.254  14.391 -0.0326  0.0734 -0.6911
12248TIP3   OH258234   0.351   2.062   4.334 -0.4813  0.4224 -0.3296
12248TIP3    H158235   0.399   2.140   4.358  0.1844  0.1933 -0.8882
12248TIP3    H258236   0.259   2.083   4.352 -0.2151  0.9887  0.3971
12249TIP3   OH258237   2.778   3.166  11.339  0.8445 -0.2383 -0.1766
12249TIP3    H158238   2.706   3.122  11.296  0.7658  0.6162 -0.9475
12249TIP3    H258239   2.760   3.259  11.327  0.7262  0.0625  1.8379
12250TIP3   OH258240   5.382   0.875  12.395 -0.1643  0.8361 -0.0236
12250TIP3    H158241   5.410   0.788  12.367  0.1474  1.1064 -0.5492
12250TIP3    H258242   5.365   0.923  12.314 -1.8156  0.7929  0.2612
12251TIP3   OH258243   5.536   5.388  11.294  0.0998  0.1402  0.4959
12251TIP3    H158244   5.574   5.468  11.258 -1.4114  0.5077 -0.3817
12251TIP3    H258245   5.464   5.418  11.348 -1.5697 -0.6423 -1.1879
12252TIP3   OH258246   5.642   6.564  12.271  0.4376  0.4429  0.0088
12252TIP3    H158247   5.583   6.575  12.347  0.8208 -0.0165  0.3771
12252TIP3    H258248   5.681   6.478  12.284  0.1621  0.1607 -0.9611
12253TIP3   OH258249   2.595   2.730   3.165  0.8460  0.3310  0.4416
12253TIP3    H158250   2.536   2.676   3.113  2.1448  0.0356 -0.7887
12253TIP3    H258251   2.594   2.815   3.121  2.3431 -0.0665 -0.4066
12254TIP3   OH258252   5.487   3.016  12.888  0.5246  0.1111 -1.2358
12254TIP3    H158253   5.518   2.944  12.943 -0.2159 -0.0721 -1.0429
12254TIP3    H258254   5.398   2.990  12.863  0.5597  0.5720 -1.8539
12255TIP3   OH258255   2.529   2.164  12.548  0.1862 -0.2667  0.4239
12255TIP3    H158256   2.526   2.071  12.526 -0.1804 -0.2467  0.3851
12255TIP3    H258257   2.440   2.196  12.532 -0.8831 -0.7907  4.2737
12256TIP3   OH258258   3.653   5.476   1.999 -0.2789  0.6038 -0.3319
12256TIP3    H158259   3.659   5.533   1.922  2.6762  1.1746  0.1946
12256TIP3    H258260   3.673   5.389   1.966 -1.7075  0.3560 -0.6103
12257TIP3   OH258261   0.114   2.500   6.719 -0.9462 -0.1281 -0.8797
12257TIP3    H158262   0.082   2.461   6.637 -1.1683  1.1795 -1.4473
12257TIP3    H258263   0.209   2.499   6.710 -0.9843  0.8588 -1.6015
12258TIP3   OH258264   4.986   0.705  15.822  0.0828 -0.3071 -0.0924
12258TIP3    H158265   4.954   0.756  15.896 -1.6073  0.1252 -1.0615
12258TIP3    H258266   4.998   0.616  15.857  0.6531  0.1868  1.0114
12259TIP3   OH258267   6.116   0.577   5.561 -0.3684 -0.5941 -0.2563
12259TIP3    H158268   6.052   0.529   5.614 -1.1222  0.6680  0.0253
12259TIP3    H258269   6.073   0.661   5.543  0.7680 -0.1597 -1.0186
12260TIP3   OH258270   2.940   4.581   1.426 -0.9245 -0.2677 -0.7231
12260TIP3    H158271   2.916   4.504   1.375  1.8921 -0.9595 -1.1968
12260TIP3    H258272   2.988   4.545   1.501  0.9949  1.0037 -1.2895
12261TIP3   OH258273   6.306   5.243   6.520  0.1028  0.3140 -0.2340
12261TIP3    H158274   6.239   5.209   6.461 -0.6204  0.6705  0.3569
12261TIP3    H258275   6.302   5.186   6.597  0.4487  0.3609 -0.1786
12262TIP3   OH258276   1.050   2.386  12.904 -0.3065 -0.1867  0.3957
12262TIP3    H158277   1.025   2.417  12.991  0.4407 -0.9519  0.8985
12262TIP3    H258278   1.000   2.305  12.892  1.4589 -1.4596  1.2014
12263TIP3   OH258279   1.761   3.586   4.000 -0.0820  0.4222  0.2263
12263TIP3    H158280   1.734   3.631   4.080  0.8554  0.8781  0.3032
12263TIP3    H258281   1.724   3.639   3.929  0.9594  1.3088  0.3183
12264TIP3   OH258282   5.837   5.100  16.025 -0.3044  0.2161 -0.3766
12264TIP3    H158283   5.894   5.148  16.085 -0.0910  2.2229 -2.0451
12264TIP3    H258284   5.891   5.086  15.947 -0.9175 -1.2954 -0.5613
12265TIP3   OH258285   5.293   2.921  14.650 -0.0909  0.0427  0.1767
12265TIP3    H158286   5.386   2.918  14.630 -0.3163  1.0952 -1.1327
12265TIP3    H258287   5.289   2.942  14.744  0.9575 -1.8700  0.7040
12266TIP3   OH258288   6.091   3.736   4.589  0.3625  0.5587  1.2786
12266TIP3    H158289   6.079   3.647   4.624  0.0510 -0.2236 -0.6788
12266TIP3    H258290   6.177   3.732   4.547  0.0744  1.0019  0.6509
12267TIP3   OH258291   0.459   2.090   3.228  0.0296  0.5109 -0.3357
12267TIP3    H158292   0.437   2.063   3.318 -2.4344 -1.0833 -1.3027
12267TIP3    H258293   0.517   2.022   3.196 -1.3450 -0.4960 -0.7997
12268TIP3   OH258294   1.151   3.082  16.907 -0.4650  0.1718 -0.2440
12268TIP3    H158295   1.243   3.062  16.890 -1.0520 -2.3080 -0.9908
12268TIP3    H258296   1.115   3.103  16.821 -0.5997  1.2058  0.0559
12269TIP3   OH258297   6.356   3.082   1.032 -0.1516 -0.1749  0.0335
12269TIP3    H158298   6.344   3.150   0.967  2.1747  0.4932  0.2299
12269TIP3    H258299   6.357   3.000   0.982 -0.3758  0.1554 -0.5162
12270TIP3   OH258300   0.467   6.426   2.044  1.0059 -0.4813  0.1298
12270TIP3    H158301   0.457   6.370   1.967  1.4610 -1.6611  0.8910
12270TIP3    H258302   0.511   6.504   2.012  0.8115 -0.7743 -0.8758
12271TIP3   OH258303   2.442   5.451   0.621  0.1992  0.8283  0.1962
12271TIP3    H158304   2.500   5.420   0.551  1.0355 -0.2340  1.2992
12271TIP3    H258305   2.500   5.501   0.679 -0.5810  2.1145 -0.0997
12272TIP3   OH258306   4.407   0.965  14.471 -0.6554 -0.3765  0.3207
12272TIP3    H158307   4.386   0.998  14.559  0.5516  0.5697  0.2797
12272TIP3    H258308   4.502   0.960  14.469 -0.4659  2.0507 -1.7391
12273TIP3   OH258309   6.026   3.346   1.000 -0.4957 -0.1043  0.2533
12273TIP3    H158310   6.010   3.431   1.041 -0.9788  0.4866 -1.1256
12273TIP3    H258311   5.938   3.314   0.977 -0.2726 -0.7070  0.2121
12274TIP3   OH258312   2.204   4.674   2.920  0.0575 -0.4482 -0.1185
12274TIP3    H158313   2.272   4.741   2.911 -1.1930  0.8982  0.1047
12274TIP3    H258314   2.194   4.638   2.832  0.2141  0.1938 -0.4026
12275TIP3   OH258315   5.779   2.240   3.744  1.0681  0.2616  0.4817
12275TIP3    H158316   5.710   2.257   3.680  0.6692  0.2762  0.9096
12275TIP3    H258317   5.793   2.145   3.739  0.8901  0.2331  0.5265
12276TIP3   OH258318   5.653   1.312  14.633  0.3604  0.2213 -0.6622
12276TIP3    H158319   5.672   1.405  14.623 -0.9752  0.6428  0.2771
12276TIP3    H258320   5.622   1.304  14.723  1.0724 -1.2655 -0.5170
12277TIP3   OH258321   1.898   0.678  16.553 -0.2999  0.0788  0.1958
12277TIP3    H158322   1.983   0.720  16.569 -0.4810 -0.0344  1.5983
12277TIP3    H258323   1.853   0.737  16.493  0.5571  0.4096 -0.1488
12278TIP3   OH258324   6.743   0.693   5.003  0.2353 -0.2375  0.5935
12278TIP3    H158325   6.746   0.693   5.098  1.1409  1.6874  0.6017
12278TIP3    H258326   6.758   0.602   4.979  0.6996 -0.6381  2.2682
12279TIP3   OH258327   3.074   2.666   4.983 -0.6372  0.2941  0.3365
12279TIP3    H158328   2.979   2.660   4.997 -0.8891  2.2234 -0.2755
12279TIP3    H258329   3.103   2.575   4.974 -2.2357 -0.4008  1.6747
12280TIP3   OH258330   4.315   2.213   6.362 -0.0222 -0.5095  0.3144
12280TIP3    H158331   4.391   2.265   6.338  0.4829 -1.0717  0.6713
12280TIP3    H258332   4.349   2.145   6.421 -0.7863 -0.7950  0.4463
12281TIP3   OH258333   2.477   6.278  11.879  0.0423 -0.1227 -0.3186
12281TIP3    H158334   2.478   6.363  11.923  2.8773 -0.9071  1.4260
12281TIP3    H258335   2.489   6.298  11.787 -0.1325  1.3777 -0.0356
12282TIP3   OH258336   1.206   4.671   5.977 -0.9928 -0.1813  0.2211
12282TIP3    H158337   1.243   4.615   6.045 -0.0648  0.4591  0.2725
12282TIP3    H258338   1.205   4.759   6.015  1.4060  0.5666 -1.1910
12283TIP3   OH258339   1.192   5.521   2.906  0.4948 -0.1295 -0.4398
12283TIP3    H158340   1.215   5.431   2.929  1.6327 -0.1982 -1.7584
12283TIP3    H258341   1.121   5.512   2.843 -1.2832  0.0156  1.4154
12284TIP3   OH258342   5.104   0.732   2.240 -0.0765  0.5449  0.0658
12284TIP3    H158343   5.088   0.752   2.148  1.1413  2.1176  0.1543
12284TIP3    H258344   5.045   0.791   2.288 -1.0276 -0.5724  0.3296
12285TIP3   OH258345   3.236   6.123  13.039 -0.2216  0.3576 -0.0686
12285TIP3    H158346   3.319   6.146  13.079  0.7223 -0.0370 -1.6814
12285TIP3    H258347   3.259   6.101  12.948 -1.5524 -3.0088  0.2724
12286TIP3   OH258348   2.770   2.873   3.611  0.3080 -0.2077 -0.2752
12286TIP3    H158349   2.853   2.847   3.570  0.7212  0.0499  0.3840
12286TIP3    H258350   2.796   2.914   3.693 -0.4917 -0.3357  0.0459
12287TIP3   OH258351   2.833   0.989  14.634  0.8334 -0.2254 -0.0411
12287TIP3    H158352   2.925   1.001  14.659  0.9298  1.3737 -0.9605
12287TIP3    H258353   2.784   1.012  14.712  1.2029  0.2574  0.0570
12288TIP3   OH258354   6.276   1.704   5.639  0.0713  0.2436  0.1063
12288TIP3    H158355   6.261   1.614   5.610 -3.5209  0.9380 -0.7428
12288TIP3    H258356   6.344   1.738   5.580 -0.0977 -1.2853 -1.0124
12289TIP3   OH258357   1.067   1.743  12.531 -0.0508 -0.0313  0.2229
12289TIP3    H158358   1.118   1.710  12.605 -0.6877  1.3859  1.3569
12289TIP3    H258359   0.978   1.713  12.548 -0.3599  1.0098  0.5030
12290TIP3   OH258360   5.808   4.043   1.741 -0.2116  0.2205 -0.0181
12290TIP3    H158361   5.736   4.057   1.679 -1.3813 -1.0719  0.9811
12290TIP3    H258362   5.883   4.021   1.686 -0.9203  0.2691 -1.0353
12291TIP3   OH258363   0.381   1.834   5.592 -0.2562 -0.2511 -0.0148
12291TIP3    H158364   0.349   1.892   5.660  0.7240  0.3146 -0.0141
12291TIP3    H258365   0.390   1.749   5.635 -1.2917 -0.3199  0.0937
12292TIP3   OH258366   3.111   0.519   2.975  0.4750 -0.6236  0.2938
12292TIP3    H158367   3.071   0.432   2.970 -0.4105 -0.1436 -1.7628
12292TIP3    H258368   3.130   0.542   2.884  0.8451  1.2876  0.8198
12293TIP3   OH258369   6.687   5.688  12.586  0.1450 -0.0837  0.3422
12293TIP3    H158370   6.603   5.680  12.631  0.7078 -1.6786  1.1661
12293TIP3    H258371   6.697   5.605  12.539  2.0629 -0.7040  1.7119
12294TIP3   OH258372   1.230   1.519  11.883 -0.1864  0.9462  0.1199
12294TIP3    H158373   1.199   1.446  11.830 -0.3776  0.5385  0.7940
12294TIP3    H258374   1.173   1.521  11.959  1.0566  0.5264  1.1078
12295TIP3   OH258375   4.347   0.925   2.818  0.0571  0.2029  0.5997
12295TIP3    H158376   4.296   0.912   2.738  1.8368 -0.2031 -0.5382
12295TIP3    H258377   4.292   0.980   2.873 -1.1181  0.7467 -1.0274
12296TIP3   OH258378   0.683   3.983  14.527  0.5319 -0.3101 -0.1253
12296TIP3    H158379   0.693   4.058  14.586 -2.8249  0.4934 -0.3744
12296TIP3    H258380   0.726   3.910  14.572  0.7754  0.9782  1.8197
12297TIP3   OH258381   5.470   0.861  16.351 -0.7195 -1.1701 -0.2406
12297TIP3    H158382   5.407   0.916  16.398  0.6345 -0.2363  0.5544
12297TIP3    H258383   5.496   0.794  16.414 -1.8668 -2.3788 -0.9987
12298TIP3   OH258384   1.023   0.106   3.276  0.1157 -0.1260  0.0855
12298TIP3    H158385   1.101   0.137   3.230  1.7163 -1.1805  1.9658
12298TIP3    H258386   0.964   0.077   3.206  0.8771  1.8093 -1.4338
12299TIP3   OH258387   3.365   6.678   5.290  0.1267  0.4507 -0.2369
12299TIP3    H158388   3.380   6.739   5.362  0.8631 -1.8094  1.6236
12299TIP3    H258389   3.402   6.595   5.320 -1.7115 -1.2158 -2.2471
12300TIP3   OH258390   0.300   4.406  14.993 -0.2694  0.0857  0.1357
12300TIP3    H158391   0.393   4.383  14.996 -0.2984  0.0157  1.4569
12300TIP3    H258392   0.279   4.410  14.900  0.4066 -2.5452 -0.2277
12301TIP3   OH258393   4.636   3.816   6.057  0.3552  0.4108  0.6997
12301TIP3    H158394   4.603   3.896   6.098 -0.6005  0.1740  0.4129
12301TIP3    H258395   4.683   3.847   5.980 -2.3288  0.5956 -0.9641
12302TIP3   OH258396   5.167   0.069  14.483  0.1484  0.8492 -0.5975
12302TIP3    H158397   5.171   0.088  14.577  0.2501  1.4092 -0.7128
12302TIP3    H258398   5.238   0.120  14.445 -0.3994  1.2727 -1.0792
12303TIP3   OH258399   1.977   2.282  12.621 -0.5336 -0.9475 -0.0581
12303TIP3    H158400   1.919   2.238  12.684 -1.6449  0.8573  0.2500
12303TIP3    H258401   1.923   2.296  12.544 -0.4193  0.4272  0.0896
12304TIP3   OH258402   5.395   5.517   0.980  0.6152  0.6671  0.0530
12304TIP3    H158403   5.311   5.477   1.004  0.2607  1.0271 -0.5444
12304TIP3    H258404   5.460   5.451   1.000  0.0306 -0.2820 -1.0459
12305TIP3   OH258405   1.031   3.873   5.558  0.3954  0.0438 -0.2351
12305TIP3    H158406   0.942   3.839   5.552  0.1534  0.6192 -0.0033
12305TIP3    H258407   1.024   3.965   5.532  0.4658  0.8021  2.1511
12306TIP3   OH258408   0.752   3.911  14.879  0.0186  0.4607  0.3951
12306TIP3    H158409   0.816   3.873  14.819  0.3307 -0.2027  1.1331
12306TIP3    H258410   0.672   3.859  14.865  0.2609 -0.0731  0.9555
12307TIP3   OH258411   3.291   1.735  15.414 -0.0952 -0.2272  0.7997
12307TIP3    H158412   3.287   1.724  15.319  1.8262  2.2503  0.3359
12307TIP3    H258413   3.200   1.722  15.443 -0.8340 -0.5213 -1.4364
12308TIP3   OH258414   3.412   0.562  12.647  0.2644  0.2474 -0.2192
12308TIP3    H158415   3.498   0.604  12.659  0.6027 -0.5135  0.0871
12308TIP3    H258416   3.421   0.511  12.566 -0.2324  0.9677 -0.7386
12309TIP3   OH258417   2.460   4.730  14.230  0.0731 -0.4564 -0.7526
12309TIP3    H158418   2.373   4.711  14.195 -0.8795  2.0122  0.0571
12309TIP3    H258419   2.517   4.736  14.153 -0.0728 -3.4150 -1.2226
12310TIP3   OH258420   5.924   3.364   4.553 -0.1335 -0.3790  0.0438
12310TIP3    H158421   5.961   3.375   4.466 -1.6182  0.8322 -0.4829
12310TIP3    H258422   5.881   3.279   4.550  0.0164 -0.4443 -0.3336
12311TIP3   OH258423   3.988   2.846  13.522 -0.4030 -0.1305 -0.4568
12311TIP3    H158424   4.015   2.894  13.600  0.0731 -0.2047 -0.5721
12311TIP3    H258425   3.948   2.766  13.554 -1.4485  0.4571 -0.2497
12312TIP3   OH258426   0.663   6.103  14.437 -0.4329 -0.0766 -0.9087
12312TIP3    H158427   0.750   6.069  14.458 -1.2074 -0.1603  3.0859
12312TIP3    H258428   0.677   6.161  14.363  2.8879 -0.6823 -0.9013
12313TIP3   OH258429   4.748   2.293   0.130  0.0210 -0.7505 -0.1278
12313TIP3    H158430   4.749   2.324   0.221 -1.8549 -0.4356 -0.1804
12313TIP3    H258431   4.767   2.371   0.078  0.1537 -0.7282 -0.0461
12314TIP3   OH258432   6.133   2.329   1.337 -0.1758  0.1871  0.3301
12314TIP3    H158433   6.204   2.348   1.276  1.0304  0.5863  1.7864
12314TIP3    H258434   6.149   2.239   1.365 -1.4066 -0.4070 -0.7826
12315TIP3   OH258435   1.150   0.473   3.116  1.3047 -0.1599  0.1194
12315TIP3    H158436   1.152   0.479   3.020 -1.4990 -0.6529 -0.0598
12315TIP3    H258437   1.119   0.559   3.144  3.7298  0.5763  0.7821
12316TIP3   OH258438   1.060   4.020   4.367 -0.2900 -0.4200 -0.6985
12316TIP3    H158439   1.019   3.956   4.308 -1.5909 -0.7850  0.5460
12316TIP3    H258440   1.132   3.973   4.407 -0.5504 -0.7587 -0.6225
12317TIP3   OH258441   5.249   2.626  13.766 -0.1568 -0.4730  0.0350
12317TIP3    H158442   5.291   2.708  13.740  0.0264 -0.3227  0.7803
12317TIP3    H258443   5.233   2.580  13.684  0.8982 -0.2527 -0.3139
12318TIP3   OH258444   2.686   5.375   0.950 -0.1132  0.3343 -0.5517
12318TIP3    H158445   2.758   5.427   0.986 -0.5418  2.0826 -2.0895
12318TIP3    H258446   2.696   5.289   0.990  1.1988  1.3163  1.3591
12319TIP3   OH258447   5.758   6.530   1.895  0.0922 -0.1239 -0.3967
12319TIP3    H158448   5.821   6.481   1.841 -0.0118  0.2331 -0.8434
12319TIP3    H258449   5.777   6.622   1.876  0.3571  0.0259  0.5213
12320TIP3   OH258450   1.871   2.711  17.065 -0.3190  0.5927  0.5745
12320TIP3    H158451   1.834   2.686  16.980  0.0493  0.5160  0.4326
12320TIP3    H258452   1.899   2.628  17.104  0.4486  0.7194  0.3227
12321TIP3   OH258453   2.804   3.428  11.074 -0.2375 -0.3714  0.4364
12321TIP3    H158454   2.731   3.407  11.131  0.2765 -0.8082  0.9501
12321TIP3    H258455   2.843   3.344  11.052 -0.1271 -0.1717 -0.1574
12322TIP3   OH258456   6.360   0.911   4.398 -0.5083 -0.1632 -0.3482
12322TIP3    H158457   6.365   1.004   4.377  0.4773  0.0782  0.8013
12322TIP3    H258458   6.381   0.866   4.317 -1.5281  0.5936 -1.0550
12323TIP3   OH258459   0.988   5.565  12.576  0.5772  0.3102  0.3007
12323TIP3    H158460   0.905   5.602  12.546  0.0656 -1.2385 -0.2640
12323TIP3    H258461   1.029   5.530  12.497  1.7357  0.9537  0.5926
12324TIP3   OH258462   4.295   6.620   0.365 -0.2929 -0.1886 -0.1112
12324TIP3    H158463   4.256   6.536   0.389 -0.1479 -0.1463  0.2772
12324TIP3    H258464   4.242   6.651   0.291 -2.0622  0.6633  1.4429
12325TIP3   OH258465   0.307   3.384  11.047  0.0319  0.7376  0.0329
12325TIP3    H158466   0.220   3.411  11.076 -0.2128  0.9956 -0.9037
12325TIP3    H258467   0.323   3.300  11.091 -0.8606  0.4970 -0.0901
12326TIP3   OH258468   6.478   1.907  13.373 -0.3477 -0.7404  0.7198
12326TIP3    H158469   6.395   1.940  13.407 -0.2968  0.9444 -0.6558
12326TIP3    H258470   6.505   1.972  13.308  0.6733 -2.6606 -0.8785
12327TIP3   OH258471   2.957   0.114  13.859  0.2055  0.3721  0.3434
12327TIP3    H158472   2.927   0.075  13.941  2.3632  0.3829  1.2022
12327TIP3    H258473   2.983   0.203  13.882 -0.0957  0.7188 -0.5803
12328TIP3   OH258474   6.484   0.655   3.930 -0.2584  0.2473 -0.6762
12328TIP3    H158475   6.405   0.602   3.931 -0.7023  0.8156 -2.3352
12328TIP3    H258476   6.454   0.744   3.911  0.7303  0.5526 -0.9145
12329TIP3   OH258477   6.648   5.259   2.901  0.2732  0.1280 -0.5785
12329TIP3    H158478   6.658   5.188   2.964 -0.4041  0.7742  0.2847
12329TIP3    H258479   6.581   5.228   2.840 -0.3168  0.1699  0.0344
12330TIP3   OH258480   4.824   5.638   5.213  0.5408 -0.3649  0.1780
12330TIP3    H158481   4.857   5.720   5.174 -0.0282  0.6492  1.7404
12330TIP3    H258482   4.810   5.581   5.138  0.9766  0.9698 -0.9751
12331TIP3   OH258483   0.860   3.958   0.369  0.7010  0.2272 -0.0150
12331TIP3    H158484   0.930   3.947   0.433  0.4051  0.2058  0.3044
12331TIP3    H258485   0.822   4.044   0.390  1.4948  0.8514 -1.0302
12332TIP3   OH258486   2.161   6.039   2.242 -0.5800 -0.4747 -0.3410
12332TIP3    H158487   2.205   6.082   2.168  1.3771  0.7387  1.3914
12332TIP3    H258488   2.080   6.089   2.254  0.3643  1.0854 -0.0564
12333TIP3   OH258489   0.160   4.435   3.133  0.2028 -0.1985 -0.2889
12333TIP3    H158490   0.247   4.406   3.161 -0.3496  0.2377  2.0593
12333TIP3    H258491   0.175   4.522   3.097  0.9049 -0.6746 -1.2088
12334TIP3   OH258492   6.105   4.404  16.360  0.4879  0.1833  0.2911
12334TIP3    H158493   6.199   4.401  16.375  0.2047 -0.5111  2.1852
12334TIP3    H258494   6.083   4.318  16.323  0.5655  0.3180 -0.0770
12335TIP3   OH258495   5.194   5.525  12.611  0.1978  0.8962 -0.4331
12335TIP3    H158496   5.232   5.555  12.529  0.9498  3.0143  0.6380
12335TIP3    H258497   5.269   5.495  12.663 -0.3741 -1.5222 -0.8614
12336TIP3   OH258498   2.449   0.343   5.302 -0.0022 -0.4399 -0.0470
12336TIP3    H158499   2.402   0.277   5.250  0.3381 -0.2430 -0.6065
12336TIP3    H258500   2.389   0.362   5.375 -0.7862 -0.2146 -0.7324
12337TIP3   OH258501   1.235   6.112  14.181  0.0002  0.0254  0.5101
12337TIP3    H158502   1.152   6.066  14.166 -0.3558  0.9669 -0.5697
12337TIP3    H258503   1.219   6.200  14.148  1.6945 -0.0027 -0.5076
12338TIP3   OH258504   0.370   0.742  16.415 -0.4226 -0.3227  0.3825
12338TIP3    H158505   0.312   0.794  16.471  0.9780  0.1011  1.5024
12338TIP3    H258506   0.423   0.691  16.476  1.9382  0.9956 -0.4130
12339TIP3   OH258507   3.709   5.552  11.449 -0.4239 -0.6524 -0.1774
12339TIP3    H158508   3.753   5.486  11.503  0.1085 -1.5952 -1.6748
12339TIP3    H258509   3.711   5.515  11.361  0.4694  1.6456 -1.2040
12340TIP3   OH258510   5.002   6.321  16.882  0.2656 -0.1310 -0.6112
12340TIP3    H158511   5.040   6.381  16.945 -0.7513  1.1593 -1.1812
12340TIP3    H258512   4.982   6.375  16.805 -1.2287 -1.0383 -0.9184
12341TIP3   OH258513   6.610   0.340  16.649 -0.1387  0.4940  0.5402
12341TIP3    H158514   6.545   0.409  16.638  0.9562  1.5113  0.2066
12341TIP3    H258515   6.636   0.346  16.741 -1.2550 -0.6210  0.9532
12342TIP3   OH258516   5.712   5.116   3.990 -0.4150 -0.2086 -0.3280
12342TIP3    H158517   5.686   5.108   3.898 -2.6066 -0.6230  0.2855
12342TIP3    H258518   5.746   5.029   4.013 -1.9385 -0.7907 -0.1750
12343TIP3   OH258519   0.434   6.786   5.859 -0.2206 -0.5744 -0.1370
12343TIP3    H158520   0.425   6.706   5.912  0.3280 -1.0133 -0.6892
12343TIP3    H258521   0.480   6.757   5.780  0.6920  0.4319  0.0003
12344TIP3   OH258522   2.405   1.864   1.091  0.0074 -0.4695  0.5886
12344TIP3    H158523   2.412   1.881   0.997  0.9972 -0.5743  0.6316
12344TIP3    H258524   2.311   1.871   1.110  0.0269  2.0749  0.0734
12345TIP3   OH258525   3.543   5.065   3.610  0.1438  0.5532 -0.3639
12345TIP3    H158526   3.632   5.101   3.608 -0.4395  2.1749  0.7809
12345TIP3    H258527   3.533   5.021   3.526  1.1247  2.6310 -1.6443
12346TIP3   OH258528   4.322   4.957  15.275  0.3794  0.1443  0.0442
12346TIP3    H158529   4.335   4.971  15.368 -1.3100  4.1684 -0.1332
12346TIP3    H258530   4.231   4.925  15.268 -0.1251  1.5533 -0.2300
12347TIP3   OH258531   0.289   2.495  11.753 -0.3996  0.6053  0.5440
12347TIP3    H158532   0.336   2.565  11.799  1.3995 -0.8172  0.9856
12347TIP3    H258533   0.229   2.541  11.694 -1.0903  2.5100  2.5689
12348TIP3   OH258534   5.265   1.801  14.001 -0.3733 -0.1323  0.2676
12348TIP3    H158535   5.333   1.761  14.055 -0.0544 -1.3838 -0.9807
12348TIP3    H258536   5.187   1.749  14.020  0.0747 -1.5430 -1.4675
12349TIP3   OH258537   6.592   1.697  12.863  0.1273  0.2670  0.1928
12349TIP3    H158538   6.576   1.767  12.926  0.3262  0.7471 -0.2874
12349TIP3    H258539   6.555   1.619  12.904 -0.7739  0.7925  0.4026
12350TIP3   OH258540   4.099   2.931  14.879 -0.6759  0.3162 -0.5647
12350TIP3    H158541   4.075   2.848  14.922  0.4069  0.6008  0.6264
12350TIP3    H258542   4.026   2.948  14.819 -1.1863 -1.2115 -0.4300
12351TIP3   OH258543   4.964   6.731   2.418  0.0664  0.5389  0.1917
12351TIP3    H158544   5.003   6.738   2.505  0.4614 -1.7439  0.2548
12351TIP3    H258545   4.998   6.649   2.383 -1.4048  0.5796 -1.4650
12352TIP3   OH258546   3.009   0.360  13.921 -0.2886  0.3227  0.4016
12352TIP3    H158547   2.977   0.408  13.844  1.0525 -1.4679 -1.3903
12352TIP3    H258548   3.063   0.423  13.968 -0.0210  1.1019 -0.8995
12353TIP3   OH258549   2.253   2.643  12.506  0.1124  0.3179  0.1036
12353TIP3    H158550   2.216   2.730  12.516  0.4495  0.5898 -0.9127
12353TIP3    H258551   2.252   2.627  12.411 -1.0261 -1.2535  0.3465
12354TIP3   OH258552   2.259   4.058   0.288 -0.1264  0.0575  0.3570
12354TIP3    H158553   2.273   4.127   0.353 -3.1181  1.0464  0.1039
12354TIP3    H258554   2.321   4.078   0.218  0.0648  1.6478  0.9361
12355TIP3   OH258555   5.974   4.714  12.376 -0.5333  0.8985  0.0216
12355TIP3    H158556   5.934   4.791  12.415 -1.7523 -0.0665  0.7465
12355TIP3    H258557   5.999   4.659  12.450  1.9223  1.3252 -0.4229
12356TIP3   OH258558   6.341   5.381   1.041 -0.1717  0.0032  0.4435
12356TIP3    H158559   6.378   5.309   1.093  0.3333  0.0198  0.1160
12356TIP3    H258560   6.398   5.386   0.964  1.1186  2.1690  1.4613
12357TIP3   OH258561   1.464   1.273   2.517 -0.1024  0.6473  0.0041
12357TIP3    H158562   1.498   1.342   2.574  0.9504  1.9910 -2.1177
12357TIP3    H258563   1.369   1.278   2.529  0.0866  0.9417  1.5438
12358TIP3   OH258564   6.705   4.743   3.164 -0.3480 -0.4428 -0.3727
12358TIP3    H158565   6.771   4.698   3.216  0.2302 -0.6255 -1.2533
12358TIP3    H258566   6.622   4.722   3.207  0.1195 -0.5801  0.4720
12359TIP3   OH258567   3.026   1.090   1.430 -0.4405 -0.1590  0.1619
12359TIP3    H158568   3.000   1.166   1.378 -1.1597 -0.3271  0.2636
12359TIP3    H258569   3.119   1.078   1.409 -0.8542 -0.6172 -1.5903
12360TIP3   OH258570   4.101   1.813  10.471 -0.0311  0.3882 -0.2305
12360TIP3    H158571   4.087   1.719  10.464 -1.6816  0.6820 -1.3652
12360TIP3    H258572   4.120   1.841  10.381  0.1272  1.1897  0.0429
12361TIP3   OH258573   3.997   5.509   4.136  0.2617  0.1726  0.0694
12361TIP3    H158574   4.042   5.507   4.220  1.4786  1.3461 -0.5200
12361TIP3    H258575   4.037   5.439   4.085  0.0839 -0.0147  0.1844
12362TIP3   OH258576   0.744   2.885   1.883 -0.1321 -0.5756 -0.0636
12362TIP3    H158577   0.670   2.902   1.824  1.2693  0.5390 -1.5954
12362TIP3    H258578   0.724   2.935   1.961 -0.1173  1.3484 -1.2331
12363TIP3   OH258579   4.601   6.766   5.508  0.0476 -0.3072 -0.3164
12363TIP3    H158580   4.681   6.739   5.554 -0.3298  0.7451  0.9864
12363TIP3    H258581   4.530   6.734   5.562 -0.4066  1.9698  0.5260
12364TIP3   OH258582   4.657   6.562  11.889 -0.3698 -0.3839  0.4871
12364TIP3    H158583   4.587   6.512  11.847  0.3619 -0.9588 -0.0892
12364TIP3    H258584   4.714   6.495  11.928 -1.5406  0.1414  3.3360
12365TIP3   OH258585   3.387   2.432  16.525 -0.3319 -1.0863 -0.1767
12365TIP3    H158586   3.420   2.396  16.607  0.3636  1.2060  0.6101
12365TIP3    H258587   3.455   2.410  16.461  1.0384  0.4201  0.6918
12366TIP3   OH258588   6.025   6.135  13.724 -0.8083 -0.2582  0.0744
12366TIP3    H158589   5.947   6.131  13.779  1.0487 -0.0293  2.9069
12366TIP3    H258590   6.062   6.047  13.728 -0.2444 -0.0402 -0.2046
12367TIP3   OH258591   2.197   6.360   3.084 -0.9139 -0.5506  0.2104
12367TIP3    H158592   2.161   6.326   3.166 -0.4563  1.0106  1.0984
12367TIP3    H258593   2.172   6.452   3.083  1.3147  0.1076 -0.1205
12368TIP3   OH258594   4.364   3.948  11.395 -0.2413 -0.6422  0.8886
12368TIP3    H158595   4.344   3.857  11.376  1.5296 -1.1051  1.1159
12368TIP3    H258596   4.281   3.986  11.423 -0.9443 -2.2379  1.0308
12369TIP3   OH258597   3.298   2.314  12.183 -0.0691 -0.4353 -0.0774
12369TIP3    H158598   3.385   2.328  12.220 -0.8123  1.2962  1.1711
12369TIP3    H258599   3.267   2.402  12.162 -1.1662 -1.1053 -1.3484
12370TIP3   OH258600   0.094   2.663   2.367  0.0728  0.2302 -0.4518
12370TIP3    H158601   0.117   2.756   2.366  0.1046  0.2654  1.3055
12370TIP3    H258602   0.141   2.627   2.442 -0.7947 -0.9779 -0.4606
12371TIP3   OH258603   0.241   3.609   0.497 -0.1061 -0.2387  0.3964
12371TIP3    H158604   0.149   3.604   0.522  0.0586  0.4719  1.2023
12371TIP3    H258605   0.265   3.700   0.512  0.5681 -0.2772 -0.4024
12372TIP3   OH258606   6.032   3.648   0.075 -0.0964 -0.1225 -0.4502
12372TIP3    H158607   5.942   3.674   0.056 -0.3151 -0.4664  0.1027
12372TIP3    H258608   6.073   3.639  -0.011 -0.2783  1.1041 -0.6890
12373TIP3   OH258609   1.277   4.284   3.440 -0.3214 -0.0688 -0.1450
12373TIP3    H158610   1.257   4.374   3.466 -1.0555 -0.5410  1.0234
12373TIP3    H258611   1.365   4.267   3.473 -0.6117 -0.1208  0.6318
12374TIP3   OH258612   1.313   5.474  17.118 -0.7037  0.4308  0.5005
12374TIP3    H158613   1.294   5.562  17.085 -0.7190  0.5533  0.8282
12374TIP3    H258614   1.402   5.480  17.152 -0.5443  0.1994  0.1227
12375TIP3   OH258615   1.008   5.150   6.016  0.6051 -0.1736  0.1688
12375TIP3    H158616   1.085   5.200   6.045 -0.0473 -0.1721  1.9837
12375TIP3    H258617   0.949   5.217   5.980  0.8862  0.0025  0.0275
12376TIP3   OH258618   5.414   5.359  12.539  0.2605 -0.6166 -0.4844
12376TIP3    H158619   5.376   5.289  12.486  0.1223 -0.0786 -1.1080
12376TIP3    H258620   5.405   5.438  12.485 -0.6607  0.1078  0.6803
12377TIP3   OH258621   2.607   6.286  16.358 -0.1657  0.1796  0.3081
12377TIP3    H158622   2.569   6.257  16.441 -1.0821 -0.3842 -0.3032
12377TIP3    H258623   2.543   6.346  16.321  0.9467  1.6931  0.7339
12378TIP3   OH258624   6.709   5.436   1.043 -0.0546  0.1170  0.2761
12378TIP3    H158625   6.725   5.430   1.137 -0.9467 -1.7256  0.3451
12378TIP3    H258626   6.791   5.409   1.003  0.1339  0.3134  0.5266
12379TIP3   OH258627   1.078   3.611  14.430  0.2840 -0.1462  0.2647
12379TIP3    H158628   1.129   3.616  14.350 -0.2263  0.9510 -0.0148
12379TIP3    H258629   1.069   3.702  14.459 -1.2049 -0.3233  0.4743
12380TIP3   OH258630   6.516   5.856  15.949  0.6413  0.2019 -0.3340
12380TIP3    H158631   6.456   5.929  15.961  0.2386 -0.1265 -0.3383
12380TIP3    H258632   6.461   5.778  15.953  1.0363 -0.0937 -0.5401
12381TIP3   OH258633   4.078   3.499  10.977  0.2761  0.1586 -0.2581
12381TIP3    H158634   4.115   3.516  11.063  1.2415 -0.8531 -0.4518
12381TIP3    H258635   4.133   3.550  10.917 -0.7520  1.3226 -0.2339
12382TIP3   OH258636   3.735   5.926  14.184 -0.0712 -0.3241 -0.5035
12382TIP3    H158637   3.805   5.949  14.245 -0.6101 -1.5844  0.6366
12382TIP3    H258638   3.773   5.939  14.097  0.9935  0.6856  0.0832
12383TIP3   OH258639   6.546   4.030   3.705 -0.2682 -0.5379  0.1877
12383TIP3    H158640   6.525   3.964   3.772 -0.8835 -0.6520 -0.1088
12383TIP3    H258641   6.463   4.047   3.661 -0.0910  0.3638  0.1815
12384TIP3   OH258642   5.923   4.119  14.748 -0.3747  0.0065 -0.6103
12384TIP3    H158643   5.865   4.104  14.823 -2.0461 -0.0826 -1.8593
12384TIP3    H258644   5.982   4.044  14.748  0.4309  0.5905  1.2682
12385TIP3   OH258645   2.222   2.424   6.830  0.5802  0.2448 -0.1999
12385TIP3    H158646   2.255   2.335   6.824 -0.2493 -0.1221  0.4641
12385TIP3    H258647   2.292   2.478   6.793  1.5390 -0.5731  0.3726
12386TIP3   OH258648   2.077   2.985   3.186  0.0644  0.0035 -0.4009
12386TIP3    H158649   2.163   2.945   3.174 -0.5071 -0.8249 -2.0996
12386TIP3    H258650   2.016   2.911   3.182 -0.7212  0.5387  1.1303
12387TIP3   OH258651   0.723   6.498  15.923  0.0880 -0.0167 -0.1676
12387TIP3    H158652   0.749   6.466  16.009 -0.6850  0.3667  0.2189
12387TIP3    H258653   0.770   6.581  15.913 -0.1181  0.1300  0.0562
12388TIP3   OH258654   2.781   5.034  11.947 -0.5414  0.4650  0.5155
12388TIP3    H158655   2.771   4.954  11.998 -1.9851  1.4715  1.9565
12388TIP3    H258656   2.781   5.104  12.013  3.2162  1.5910 -0.4577
12389TIP3   OH258657   1.170   0.093  12.273  0.8091  0.3639 -0.0409
12389TIP3    H158658   1.235   0.070  12.206  0.8283  0.3140 -0.0050
12389TIP3    H258659   1.206   0.059  12.354  0.9286  0.6863  0.0428
12390TIP3   OH258660   6.792   4.708  17.034  0.0852 -0.0289 -0.7131
12390TIP3    H158661   6.757   4.787  16.993 -1.6479  0.5953  1.7830
12390TIP3    H258662   6.762   4.636  16.978 -1.7223  0.8167 -0.9012
12391TIP3   OH258663   0.421   0.499   2.002 -0.2498  0.6746 -0.5566
12391TIP3    H158664   0.436   0.453   1.920  0.6974 -0.3951  0.1918
12391TIP3    H258665   0.348   0.558   1.983 -0.0347  0.4700 -2.1592
12392TIP3   OH258666   2.008   6.728   3.249  0.2696  0.0242  0.2370
12392TIP3    H158667   1.931   6.722   3.305 -0.0260  2.9961  0.3307
12392TIP3    H258668   2.083   6.714   3.307 -0.1348 -0.3337  0.6679
12393TIP3   OH258669   2.003   1.157  10.426 -0.8472 -0.3242 -0.4239
12393TIP3    H158670   1.956   1.131  10.347 -0.3163 -0.6239 -0.6436
12393TIP3    H258671   1.998   1.079  10.483 -0.8396 -0.2639 -0.3404
12394TIP3   OH258672   4.422   5.134   0.479  0.5242  0.3279 -0.0847
12394TIP3    H158673   4.439   5.143   0.385  1.6144  0.6718  0.1229
12394TIP3    H258674   4.338   5.177   0.493  0.2456  0.0670 -0.9410
12395TIP3   OH258675   2.605   4.618  12.700  0.8434  0.7430 -0.3416
12395TIP3    H158676   2.614   4.673  12.623 -1.2950  1.4157 -0.1849
12395TIP3    H258677   2.540   4.664  12.754  2.0435  0.1338  1.7212
12396TIP3   OH258678   1.337   6.568  17.072  0.1337 -0.0488 -0.4146
12396TIP3    H158679   1.274   6.615  17.127 -0.9048 -1.8771  0.0646
12396TIP3    H258680   1.422   6.586  17.112 -0.3090  0.8389  0.1551
12397TIP3   OH258681   5.349   3.099   5.612 -0.2055 -0.3496  0.4926
12397TIP3    H158682   5.261   3.137   5.618  0.1749  0.8839 -1.0700
12397TIP3    H258683   5.378   3.090   5.703 -0.7744  2.1091  0.9732
12398TIP3   OH258684   1.864   3.465   2.041  0.6048  0.4986  0.3032
12398TIP3    H158685   1.804   3.435   2.109  1.1795 -0.4256  0.4147
12398TIP3    H258686   1.846   3.559   2.033 -0.1445  0.4293  1.0398
12399TIP3   OH258687   1.769   0.474   1.555 -0.3191 -0.0547 -0.3561
12399TIP3    H158688   1.738   0.564   1.568  0.2899  0.2251 -0.7829
12399TIP3    H258689   1.691   0.420   1.568 -0.6518  0.5176  0.0903
12400TIP3   OH258690   4.432   5.607   5.567  0.4575 -0.0351 -0.1508
12400TIP3    H158691   4.409   5.696   5.539 -0.1901 -0.6329 -1.6603
12400TIP3    H258692   4.378   5.592   5.644 -1.8509 -0.1987 -1.6966
12401TIP3   OH258693   4.745   5.842  12.576 -0.4463  0.0994  0.8139
12401TIP3    H158694   4.701   5.793  12.507 -1.8769  2.0069  0.2953
12401TIP3    H258695   4.831   5.801  12.583 -1.2876 -1.9713 -0.0824
12402TIP3   OH258696   6.313   2.002  12.036 -0.2133  0.1461 -0.2538
12402TIP3    H158697   6.317   1.909  12.057  0.4867  0.4854  1.2529
12402TIP3    H258698   6.312   2.046  12.122 -1.3705  1.5029 -0.9170
12403TIP3   OH258699   5.453   3.609   4.867  0.0531 -0.6984 -0.6390
12403TIP3    H158700   5.428   3.675   4.803  2.0230  2.0629  1.2325
12403TIP3    H258701   5.544   3.628   4.888 -0.5988 -1.0480  3.3398
12404TIP3   OH258702   1.259   2.190  15.071  0.1347 -0.2041 -0.0951
12404TIP3    H158703   1.226   2.263  15.124 -1.0788 -0.0123 -1.0700
12404TIP3    H258704   1.180   2.149  15.036  0.8716 -1.0185 -0.8261
12405TIP3   OH258705   6.136   3.610   2.567  0.0929  0.4462 -0.0957
12405TIP3    H158706   6.119   3.552   2.641 -1.3633  0.1416 -0.6285
12405TIP3    H258707   6.222   3.648   2.585 -0.8384  1.5305  2.4982
12406TIP3   OH258708   0.677   5.977  17.174 -0.1362  0.3730 -0.5366
12406TIP3    H158709   0.597   5.967  17.121 -0.1605  2.3196 -0.9407
12406TIP3    H258710   0.646   6.008  17.258  0.1980  1.5335 -0.8255
12407TIP3   OH258711   6.274   2.727   1.610  0.5797  0.5561 -0.2889
12407TIP3    H158712   6.276   2.813   1.569 -2.6931  0.1379 -1.5882
12407TIP3    H258713   6.222   2.673   1.551  0.1674 -1.5756  1.8582
12408TIP3   OH258714   5.415   5.244   3.276  0.2009 -0.3222  1.1985
12408TIP3    H158715   5.465   5.295   3.212 -0.6055  0.4607  1.1858
12408TIP3    H258716   5.334   5.293   3.289  0.7743  0.1292  3.6153
12409TIP3   OH258717   6.819   0.971   0.708 -0.0818 -0.7541  0.1979
12409TIP3    H158718   6.797   0.893   0.759  1.2404 -0.2925  1.5225
12409TIP3    H258719   6.789   0.950   0.619 -0.4352 -2.4568  0.6820
12410TIP3   OH258720   2.114   0.949  14.581  0.4321  0.5675  0.2348
12410TIP3    H158721   2.042   0.916  14.527  1.5665  1.2475 -1.7985
12410TIP3    H258722   2.109   0.897  14.662 -1.1659 -0.7088 -0.6193
12411TIP3   OH258723   2.497   6.242  15.114 -0.2726  0.3755  0.2916
12411TIP3    H158724   2.405   6.220  15.099  0.4347 -1.4821 -2.0864
12411TIP3    H258725   2.525   6.183  15.184 -0.8860  1.0888  1.1674
12412TIP3   OH258726   2.216   2.658  10.863 -0.5374  0.4207  0.1272
12412TIP3    H158727   2.195   2.568  10.886 -1.6915  0.0045 -2.2547
12412TIP3    H258728   2.146   2.685  10.804  0.2318  2.6166  0.1108
12413TIP3   OH258729   2.749   3.394  12.803 -0.0423  0.1621 -0.0549
12413TIP3    H158730   2.822   3.430  12.853 -0.6297 -0.8609  1.6149
12413TIP3    H258731   2.679   3.460  12.811  0.3654  0.7190 -0.8912
12414TIP3   OH258732   5.645   0.180   6.767 -0.1497 -0.0413 -0.1081
12414TIP3    H158733   5.701   0.112   6.729 -0.3914 -1.2903  1.6395
12414TIP3    H258734   5.707   0.242   6.807  0.0550 -0.9515  1.0471
12415TIP3   OH258735   4.703   5.674   3.700 -0.1652  0.6637  0.4318
12415TIP3    H158736   4.704   5.640   3.611  0.3813 -1.0120  1.0322
12415TIP3    H258737   4.706   5.769   3.690  0.7138  0.4901 -1.3265
12416TIP3   OH258738   5.174   5.841  14.105  0.2622  0.1809 -0.6248
12416TIP3    H158739   5.121   5.834  14.026  1.5519 -1.7347 -1.3940
12416TIP3    H258740   5.117   5.810  14.175 -0.3866  0.3988 -1.0482
12417TIP3   OH258741   1.080   5.476   2.647 -0.3966  0.1485  0.2883
12417TIP3    H158742   1.043   5.563   2.636  0.3967  0.7625  2.1424
12417TIP3    H258743   1.167   5.482   2.608  0.8120  1.1171  2.9258
12418TIP3   OH258744   1.752   0.417   2.581 -0.1697 -0.6097 -0.0919
12418TIP3    H158745   1.741   0.441   2.673  0.8147 -1.0748  0.1651
12418TIP3    H258746   1.834   0.367   2.579  1.8518  2.4287 -1.7412
12419TIP3   OH258747   5.299   1.066  16.442 -0.2103 -0.1667 -1.1019
12419TIP3    H158748   5.234   1.032  16.382 -0.5246 -1.0665 -0.2725
12419TIP3    H258749   5.286   1.161  16.440 -3.3376 -0.4038  0.9337
12420TIP3   OH258750   3.366   5.005   0.090 -0.0191  0.1933  0.4627
12420TIP3    H158751   3.274   5.024   0.071 -0.5953 -1.9149  0.8130
12420TIP3    H258752   3.415   5.061   0.030 -1.4797  2.0292  0.8790
12421TIP3   OH258753   2.400   4.743   5.536 -0.5856 -0.1016 -0.0537
12421TIP3    H158754   2.414   4.755   5.630  1.2593  0.4047 -0.3501
12421TIP3    H258755   2.457   4.808   5.495  0.3195 -1.7521 -1.5549
12422TIP3   OH258756   3.476   6.026   5.762  0.5130 -0.1647 -0.1206
12422TIP3    H158757   3.539   6.045   5.692 -0.9690  0.4243 -1.3455
12422TIP3    H258758   3.526   6.040   5.843  1.6154  1.5702 -1.0367
12423TIP3   OH258759   1.982   0.442  11.616  0.1143 -0.0671  0.7048
12423TIP3    H158760   1.948   0.531  11.628 -0.2580  0.0466 -0.8910
12423TIP3    H258761   2.033   0.447  11.535  1.5562 -0.9215  1.5348
12424TIP3   OH258762   5.170   4.547   0.807  0.5359  0.5163 -0.1896
12424TIP3    H158763   5.095   4.507   0.764 -0.2959  0.5867  1.1423
12424TIP3    H258764   5.242   4.486   0.792  0.0267  0.0511 -0.7901
12425TIP3   OH258765   4.632   5.269   5.276 -0.0772  0.0345  0.2155
12425TIP3    H158766   4.574   5.263   5.200  0.6010  0.2750 -0.3324
12425TIP3    H258767   4.588   5.331   5.335 -1.0749 -0.8657  0.4615
12426TIP3   OH258768   6.058   0.656   3.527 -0.3204 -0.1915 -0.4671
12426TIP3    H158769   6.131   0.597   3.544  0.2739  0.7278  0.2998
12426TIP3    H258770   5.983   0.598   3.512  0.0743 -1.1492  1.0285
12427TIP3   OH258771   0.632   3.796  13.518  0.6492  0.1096  0.1297
12427TIP3    H158772   0.610   3.844  13.438  2.0598 -0.3617 -0.5646
12427TIP3    H258773   0.675   3.861  13.573 -0.1349  0.3801  0.4431
12428TIP3   OH258774   2.506   0.254  10.896 -0.0607 -0.5979 -0.2648
12428TIP3    H158775   2.466   0.341  10.885  0.1020 -0.5315 -0.3349
12428TIP3    H258776   2.475   0.204  10.821  0.5456 -0.3343 -0.7070
12429TIP3   OH258777   2.346   2.111  16.661  0.8990 -0.1628 -0.0579
12429TIP3    H158778   2.349   2.097  16.567  0.7616 -1.5848  0.1336
12429TIP3    H258779   2.253   2.127  16.680  1.0347  0.9366 -0.2557
12430TIP3   OH258780   6.442   0.598   2.227  0.3127  0.2581 -0.1331
12430TIP3    H158781   6.437   0.507   2.254  2.5278  0.4889  1.3284
12430TIP3    H258782   6.437   0.648   2.309  2.4555  1.2418 -0.5264
12431TIP3   OH258783   6.127   2.186  14.813  0.2784 -0.7412 -0.4811
12431TIP3    H158784   6.054   2.246  14.799  0.1373 -0.9149 -0.4844
12431TIP3    H258785   6.144   2.192  14.907 -0.7239 -1.8339 -0.2055
12432TIP3   OH258786   2.061   5.841  14.880 -0.3209 -0.2329 -0.0201
12432TIP3    H158787   2.103   5.762  14.847  1.3985 -0.2791  2.0978
12432TIP3    H258788   2.117   5.913  14.850 -1.9603  0.2909 -2.0735
12433TIP3   OH258789   5.136   4.375   4.295 -0.6640 -0.2457  0.0151
12433TIP3    H158790   5.090   4.433   4.356 -0.5200  0.8754 -0.9234
12433TIP3    H258791   5.166   4.303   4.350 -0.2583  0.8933  1.3515
12434TIP3   OH258792   2.023   5.799   4.377 -0.2517 -0.0485  0.1305
12434TIP3    H158793   2.084   5.872   4.387  1.3596 -1.2991 -0.2855
12434TIP3    H258794   1.941   5.840   4.348 -0.4660  1.9648  3.2068
12435TIP3   OH258795   0.047   4.773  16.672  0.6327  0.4943  0.1090
12435TIP3    H158796   0.117   4.741  16.728 -0.1384  0.4529  1.0640
12435TIP3    H258797  -0.008   4.696  16.656  1.8607  0.0153 -2.3285
12436TIP3   OH258798   5.977   0.580   2.044 -0.5170 -0.0503 -0.1801
12436TIP3    H158799   5.994   0.527   2.122  1.5045 -0.6781 -0.9762
12436TIP3    H258800   6.056   0.634   2.035 -1.9475  2.1543 -0.1746
12437TIP3   OH258801   3.171   3.066   0.848 -0.1794 -0.1564  0.4162
12437TIP3    H158802   3.177   2.976   0.878 -0.0796 -0.2883  0.0090
12437TIP3    H258803   3.220   3.117   0.912  0.7256 -0.5338  0.0313
12438TIP3   OH258804   2.825   6.465  11.479 -0.0697  0.2674 -0.2127
12438TIP3    H158805   2.809   6.490  11.388 -0.2000 -2.1990 -0.9396
12438TIP3    H258806   2.906   6.414  11.477 -1.1484 -1.5927  0.6435
12439TIP3   OH258807   1.410   2.993  16.251  0.1252  0.0150 -0.0838
12439TIP3    H158808   1.376   3.077  16.282  1.9135  0.6920  0.1462
12439TIP3    H258809   1.424   3.007  16.157  1.4175  0.3361  0.1498
12440TIP3   OH258810   0.005   4.710  11.932  0.4668  0.7082 -0.8070
12440TIP3    H158811   0.078   4.720  11.994  0.6010  0.6056 -0.9452
12440TIP3    H258812   0.024   4.627  11.887 -0.1753  0.2562 -0.2681
12441TIP3   OH258813   1.813   0.494   4.505  0.0950  0.0591  0.0991
12441TIP3    H158814   1.872   0.564   4.532 -1.6331  1.2589  0.9578
12441TIP3    H258815   1.857   0.452   4.431  1.8935  1.0182  0.5803
12442TIP3   OH258816   3.032   6.077  14.009 -0.1722 -0.0493 -0.1958
12442TIP3    H158817   3.109   6.102  13.958 -0.0134  2.7488  1.2756
12442TIP3    H258818   3.064   6.007  14.066  0.4514 -1.0085 -1.6462
12443TIP3   OH258819   3.287   1.716  12.735  0.3974  0.0429  0.1208
12443TIP3    H158820   3.340   1.789  12.701 -0.8827  1.6680  1.4341
12443TIP3    H258821   3.213   1.710  12.675 -0.3959  1.0346  0.9554
12444TIP3   OH258822   6.111   0.496   5.852  0.3983 -0.5931  1.0212
12444TIP3    H158823   6.174   0.426   5.867  1.8679  0.4971  0.2724
12444TIP3    H258824   6.027   0.461   5.882  1.1192 -2.5735  0.8472
12445TIP3   OH258825   0.269   3.512   4.530  0.5610 -0.2043  0.1073
12445TIP3    H158826   0.287   3.445   4.597  0.9491  2.1318  2.4939
12445TIP3    H258827   0.198   3.564   4.567 -0.8058 -0.1560 -2.4034
12446TIP3   OH258828   6.202   4.471  17.073  0.5554  0.2457 -0.0837
12446TIP3    H158829   6.167   4.395  17.120  3.0151 -0.1901  1.2147
12446TIP3    H258830   6.136   4.539  17.085 -1.0225 -1.2444  0.0060
12447TIP3   OH258831   5.284   3.598   2.479 -0.2635 -0.3175 -0.3806
12447TIP3    H158832   5.253   3.544   2.407 -1.4887  0.2145 -0.2817
12447TIP3    H258833   5.240   3.682   2.467 -0.2871 -0.1305  0.8319
12448TIP3   OH258834   5.838   6.402  16.980  0.0547 -0.5197 -0.0258
12448TIP3    H158835   5.792   6.483  17.004 -0.3046 -0.9481  0.7511
12448TIP3    H258836   5.800   6.378  16.895  0.8342  0.6234 -0.7303
12449TIP3   OH258837   3.259   6.007  13.527  0.2291 -0.4097 -0.3792
12449TIP3    H158838   3.179   6.037  13.571  1.6421  3.0649  0.1264
12449TIP3    H258839   3.329   6.028  13.589  1.8581  0.0723 -2.2956
12450TIP3   OH258840   2.505   5.154  17.065  0.5983 -0.0358 -0.0398
12450TIP3    H158841   2.467   5.067  17.076  1.6182 -0.3378  1.2998
12450TIP3    H258842   2.593   5.138  17.030  0.2617  0.5530 -1.2185
12451TIP3   OH258843   1.514   1.026  16.198 -0.4652 -0.0486 -0.2466
12451TIP3    H158844   1.482   0.942  16.232  0.6028 -0.1860  0.4611
12451TIP3    H258845   1.451   1.050  16.130 -0.8762 -1.3383 -0.3422
12452TIP3   OH258846   0.673   1.281  11.695  0.1735  0.2130  0.4004
12452TIP3    H158847   0.699   1.248  11.781 -0.4205 -0.0906  0.4718
12452TIP3    H258848   0.661   1.202  11.642  0.1024  0.3775  0.1697
12453TIP3   OH258849   3.768   3.743   1.771 -0.1615  0.0963 -0.2844
12453TIP3    H158850   3.849   3.701   1.801 -1.4375 -1.9904  0.4087
12453TIP3    H258851   3.770   3.830   1.811  1.1888 -0.3334  0.6651
12454TIP3   OH258852   5.406   2.322   6.037  0.2797 -0.1518 -0.0923
12454TIP3    H158853   5.321   2.299   6.074  0.5230  0.5789  0.9772
12454TIP3    H258854   5.469   2.291   6.100  0.8063 -0.4771 -0.7668
12455TIP3   OH258855   2.466   3.868  10.707 -0.1747 -0.6466  0.1710
12455TIP3    H158856   2.526   3.933  10.671  0.4780 -1.6632 -0.6451
12455TIP3    H258857   2.455   3.804  10.636 -1.4624 -0.9871  0.6516
12456TIP3   OH258858   6.408   4.431  10.645 -0.4012  0.2566 -0.0021
12456TIP3    H158859   6.347   4.370  10.606 -2.1696  1.4312  0.7748
12456TIP3    H258860   6.395   4.513  10.596  2.2562 -0.0136 -1.3536
12457TIP3   OH258861   1.740   3.207  10.497 -0.1010 -0.4926  0.0462
12457TIP3    H158862   1.685   3.270  10.543 -0.6290 -0.3368 -0.7696
12457TIP3    H258863   1.735   3.233  10.405 -0.2941 -1.6896 -0.3028
12458TIP3   OH258864   0.640   0.406   6.117 -0.2616 -0.2856  0.3052
12458TIP3    H158865   0.625   0.315   6.092 -1.2532 -0.3493  1.0377
12458TIP3    H258866   0.659   0.402   6.211  2.8060 -0.0073 -0.1924
12459TIP3   OH258867   5.632   1.478  14.176 -0.0772 -0.0681 -0.9008
12459TIP3    H158868   5.707   1.447  14.126 -0.9787 -1.1776 -1.6334
12459TIP3    H258869   5.556   1.446  14.127 -1.0252 -1.3437  1.2423
12460TIP3   OH258870   4.456   2.596   0.218  0.1776 -0.3291  0.3077
12460TIP3    H158871   4.423   2.532   0.155  0.4425 -1.8229  1.6083
12460TIP3    H258872   4.431   2.681   0.182  0.0485 -1.1369 -1.6294
12461TIP3   OH258873   3.894   3.546  12.416  0.0305 -0.0301  0.2939
12461TIP3    H158874   3.943   3.628  12.411 -0.3626  0.2374  0.7181
12461TIP3    H258875   3.821   3.565  12.476  0.3118 -0.8771  0.9271
12462TIP3   OH258876   1.447   1.167  13.903 -0.0961  0.6826 -0.1075
12462TIP3    H158877   1.390   1.105  13.949 -0.9814  1.4655 -0.1311
12462TIP3    H258878   1.536   1.136  13.923 -0.4181  1.1083  2.3473
12463TIP3   OH258879   0.310   5.106   1.024  0.2563 -0.6763 -0.2052
12463TIP3    H158880   0.227   5.138   0.987 -0.7164 -0.6578  1.8701
12463TIP3    H258881   0.359   5.185   1.046 -0.7288 -0.5575  1.8180
12464TIP3   OH258882   6.623   1.425   3.051  0.3577  0.2452 -0.0728
12464TIP3    H158883   6.567   1.355   3.086  1.4129  0.6832  2.7668
12464TIP3    H258884   6.708   1.382   3.037  0.0450  0.1628 -1.9391
12465TIP3   OH258885   4.650   6.406  17.213  0.7287  0.2392  0.2514
12465TIP3    H158886   4.567   6.447  17.189  1.0886  1.0426  0.3265
12465TIP3    H258887   4.701   6.408  17.132  1.5089  1.8691  0.7278
12466TIP3   OH258888   5.442   1.793  13.491 -0.2073 -0.6725  0.5051
12466TIP3    H158889   5.520   1.741  13.472 -0.3415 -1.2976  1.5754
12466TIP3    H258890   5.399   1.746  13.563 -0.1030  1.1358  1.8256
12467TIP3   OH258891   5.543   3.984   0.121  0.3209 -0.0042 -0.2439
12467TIP3    H158892   5.593   4.053   0.165  1.1246  1.5842 -3.3624
12467TIP3    H258893   5.452   4.003   0.144  0.6709  1.0463  0.3450
12468TIP3   OH258894   0.056   2.638  13.609 -0.5082  0.0759  0.0959
12468TIP3    H158895   0.142   2.660  13.572 -0.4358 -2.7223 -1.6528
12468TIP3    H258896  -0.006   2.690  13.559 -0.1801 -1.6845 -2.2689
12469TIP3   OH258897   6.274   1.405  17.262 -0.6782  0.5743  0.7704
12469TIP3    H158898   6.350   1.353  17.289  0.6321  2.3564  0.7585
12469TIP3    H258899   6.241   1.361  17.184  0.6764  0.0188  0.4752
12470TIP3   OH258900   6.068   2.451  17.269 -0.0402 -0.1649  0.5516
12470TIP3    H158901   6.096   2.360  17.274 -0.5239 -0.4443 -1.1211
12470TIP3    H258902   6.103   2.482  17.185  0.0321  1.1733  1.0453
12471TIP3   OH258903   2.379   4.665   4.498  0.4855 -0.1294 -0.3949
12471TIP3    H158904   2.433   4.727   4.449 -0.1111  0.2233 -0.6237
12471TIP3    H258905   2.291   4.677   4.462 -0.0194  0.3110  0.9181
12472TIP3   OH258906   0.800   4.745  13.119  0.0607  0.3126 -0.0382
12472TIP3    H158907   0.746   4.667  13.112 -1.1155  1.1917 -1.3058
12472TIP3    H258908   0.805   4.779  13.030  2.3673  0.5214  0.1054
12473TIP3   OH258909   2.959   5.788   5.067 -0.1501  0.0659  0.6319
12473TIP3    H158910   3.040   5.829   5.039 -1.4490  3.9373  1.8909
12473TIP3    H258911   2.955   5.804   5.162 -0.6915 -3.4318  1.3524
12474TIP3   OH258912   2.492   0.394  12.893 -0.3966 -0.8792  0.4415
12474TIP3    H158913   2.525   0.420  12.807  0.9559 -1.3959  0.7904
12474TIP3    H258914   2.450   0.310  12.878 -1.8154 -0.1304 -0.0408
12475TIP3   OH258915   3.522   0.013   5.825 -0.5553  0.2268  0.1101
12475TIP3    H158916   3.486  -0.045   5.893  0.6650 -0.8778 -0.1318
12475TIP3    H258917   3.580   0.073   5.873  1.5336 -1.5471 -0.0328
12476TIP3   OH258918   1.989   0.844   5.298  0.0521  0.0091  0.0977
12476TIP3    H158919   2.056   0.910   5.314  0.2241 -0.5912  2.0690
12476TIP3    H258920   1.972   0.850   5.204  0.9029  2.0341  0.0178
12477TIP3   OH258921   4.613   2.783   4.014 -0.6417  0.2868  0.4185
12477TIP3    H158922   4.619   2.848   3.945  1.1381  2.3457  2.3583
12477TIP3    H258923   4.552   2.820   4.078 -1.7222 -1.2474  0.3415
12478TIP3   OH258924   3.501   3.173  12.116 -0.1787  0.5863  0.3874
12478TIP3    H158925   3.424   3.122  12.142  0.4732 -0.9359 -0.5500
12478TIP3    H258926   3.571   3.108  12.107  0.4470  1.4802 -1.8363
12479TIP3   OH258927   1.336   2.683   0.496 -0.2173 -0.1670 -0.1589
12479TIP3    H158928   1.396   2.631   0.442 -0.4395  0.0797 -0.6474
12479TIP3    H258929   1.260   2.626   0.510  0.2633 -0.6165  0.7597
12480TIP3   OH258930   5.984   0.437  12.947  0.0731  0.2372 -0.2047
12480TIP3    H158931   5.924   0.378  12.993 -0.0101 -0.2005 -0.8581
12480TIP3    H258932   5.990   0.514  13.003 -0.9333  0.1976 -0.0205
12481TIP3   OH258933   5.663   2.769  10.794  0.4062  0.1711  0.0399
12481TIP3    H158934   5.596   2.702  10.780  0.9112 -0.2474 -0.4202
12481TIP3    H258935   5.689   2.795  10.706  0.2299  0.9623  0.2185
12482TIP3   OH258936   0.854   2.054  14.360  0.4305 -0.3656 -0.3795
12482TIP3    H158937   0.931   2.025  14.408  0.0506 -2.6228 -1.0021
12482TIP3    H258938   0.887   2.078  14.274  0.5190 -0.6866 -0.4347
12483TIP3   OH258939   4.780   3.566   0.099  0.1113 -0.2898  0.5322
12483TIP3    H158940   4.810   3.652   0.128  0.2532 -0.0712 -0.2354
12483TIP3    H258941   4.860   3.516   0.083  0.2869  0.7840 -3.0075
12484TIP3   OH258942   0.860   6.680   6.484  0.3923  0.0262  0.2081
12484TIP3    H158943   0.949   6.710   6.504  0.5565 -0.0638 -0.3748
12484TIP3    H258944   0.821   6.752   6.435  0.6634 -0.5424 -0.8762
12485TIP3   OH258945   5.537   3.343  12.714 -0.0244 -0.0441  0.0176
12485TIP3    H158946   5.622   3.378  12.688  0.1066 -0.9531 -0.8516
12485TIP3    H258947   5.559   3.265  12.766 -0.3196  0.1600  0.4475
12486TIP3   OH258948   3.808   4.325  13.616  0.5018 -0.0465  0.0437
12486TIP3    H158949   3.825   4.232  13.632  0.3626  0.1280  1.2827
12486TIP3    H258950   3.723   4.342  13.657  0.5505  0.6414 -0.1245
12487TIP3   OH258951   2.629   3.975   1.508  0.1129 -0.3101 -0.3104
12487TIP3    H158952   2.703   3.914   1.506 -0.6308 -1.2158 -0.5364
12487TIP3    H258953   2.552   3.920   1.493 -0.7035  0.4739  0.8651
12488TIP3   OH258954   5.613   1.747   5.172 -0.3007  0.5386  0.9826
12488TIP3    H158955   5.700   1.708   5.167 -0.1367  0.8785  1.1725
12488TIP3    H258956   5.618   1.826   5.118 -0.8305 -0.0541  0.0365
12489TIP3   OH258957   2.844   0.035  11.329 -0.0133  0.3318  0.1593
12489TIP3    H158958   2.778  -0.030  11.304 -1.2797  2.1661 -1.6531
12489TIP3    H258959   2.923  -0.015  11.345 -1.4303 -1.8183  0.8633
12490TIP3   OH258960   0.446   6.202   2.853 -0.2397 -0.0108 -0.7828
12490TIP3    H158961   0.415   6.262   2.921  1.5132 -0.3162  0.3413
12490TIP3    H258962   0.375   6.137   2.845 -0.1670 -0.4302  1.3523
12491TIP3   OH258963   0.397   0.717   5.552 -0.5326 -0.1752 -0.2021
12491TIP3    H158964   0.312   0.685   5.580  0.0403 -1.9012 -0.2617
12491TIP3    H258965   0.455   0.698   5.625 -0.1275  0.6641 -0.2950
12492TIP3   OH258966   0.549   0.018  10.797 -0.8273 -0.6617 -0.4496
12492TIP3    H158967   0.471   0.035  10.743  1.1361  1.2204 -2.9695
12492TIP3    H258968   0.552  -0.077  10.805 -1.8302 -0.9933 -2.8603
12493TIP3   OH258969   6.735   1.550  14.959  0.4787 -0.7721  0.2806
12493TIP3    H158970   6.744   1.610  14.885  0.4403 -2.1527 -0.8968
12493TIP3    H258971   6.680   1.597  15.021  1.0901  0.7068 -0.2552
12494TIP3   OH258972   2.288   4.833   1.843 -0.0763 -0.1427  0.3140
12494TIP3    H158973   2.212   4.802   1.892 -0.5035  1.0860  0.4562
12494TIP3    H258974   2.356   4.767   1.861  0.1155  0.6988  3.3929
12495TIP3   OH258975   3.271   5.192   0.829  0.3727  0.0079  0.5705
12495TIP3    H158976   3.208   5.186   0.757 -0.3615  1.6982  1.0143
12495TIP3    H258977   3.218   5.219   0.904  0.8532 -2.9999  2.1604
12496TIP3   OH258978   3.761   3.803  11.576 -0.0961 -0.1392  0.2475
12496TIP3    H158979   3.842   3.811  11.627 -0.5895 -0.3953  1.0794
12496TIP3    H258980   3.704   3.871  11.611 -1.2311 -1.7085  1.5582
12497TIP3   OH258981   4.613   5.695  15.312  0.1904  0.1154 -0.4496
12497TIP3    H158982   4.666   5.647  15.248  0.7704 -0.9995  0.8097
12497TIP3    H258983   4.577   5.627  15.369 -0.9523  1.0195 -0.0521
12498TIP3   OH258984   1.320   3.099  11.837 -0.2591 -0.5615 -0.2757
12498TIP3    H158985   1.379   3.129  11.906 -0.6338 -1.3963  0.4429
12498TIP3    H258986   1.273   3.026  11.877 -0.8899 -0.7029 -1.2423
12499TIP3   OH258987   1.984   1.103   4.138  0.3600  0.2404  0.1924
12499TIP3    H158988   1.971   1.014   4.170  0.1062  0.6469  1.2798
12499TIP3    H258989   1.986   1.095   4.043  1.4183 -1.0605  0.3010
12500TIP3   OH258990   6.097   4.684   6.545  0.1308 -0.4052 -0.3452
12500TIP3    H158991   6.100   4.773   6.580 -0.2683 -0.7767  0.6423
12500TIP3    H258992   6.180   4.645   6.572  1.2674  0.3027 -2.5732
12501TIP3   OH258993   3.374   6.175  14.686 -0.1409  0.8915  0.0944
12501TIP3    H158994   3.380   6.124  14.605  0.7860 -1.4318  1.4954
12501TIP3    H258995   3.379   6.109  14.756  0.4552  2.8850  2.0749
12502TIP3   OH258996   2.121   4.428   0.923  0.2246 -0.4907  0.3371
12502TIP3    H158997   2.190   4.424   0.857  1.1914  0.9451  1.2067
12502TIP3    H258998   2.164   4.462   1.002 -1.2053 -0.7541  1.2783
12503TIP3   OH258999   4.178   0.156   1.811 -0.7395  0.4603  0.0424
12503TIP3    H159000   4.140   0.147   1.724  1.1526  1.3606 -0.9518
12503TIP3    H259001   4.273   0.157   1.796 -0.3753  1.9710  1.9375
12504TIP3   OH259002   0.998   1.277  16.014  0.2327 -0.0588 -0.2134
12504TIP3    H159003   1.025   1.288  16.105 -0.7829 -0.7790  0.1936
12504TIP3    H259004   1.022   1.359  15.971  0.3298  0.4489  0.8004
12505TIP3   OH259005   4.395   1.643  11.055  0.5150  0.0397  0.6347
12505TIP3    H159006   4.394   1.577  11.125  0.1794  1.0633  1.6224
12505TIP3    H259007   4.396   1.727  11.101 -0.3413  0.7575 -0.5900
12506TIP3   OH259008   1.963   0.988  12.578  0.6686 -0.1772  0.5660
12506TIP3    H159009   1.901   1.048  12.536  2.0666 -1.3328 -3.5759
12506TIP3    H259010   1.909   0.913  12.604 -0.5082  1.2647  2.5841
12507TIP3   OH259011   0.874   2.846  13.150 -0.3356 -0.2415 -0.4534
12507TIP3    H159012   0.929   2.818  13.078 -2.3236 -2.8534 -1.1156
12507TIP3    H259013   0.785   2.847  13.114 -1.0393  1.5872  1.1344
12508TIP3   OH259014   4.901   2.582   3.510 -0.0743  0.0211 -0.9886
12508TIP3    H159015   4.924   2.608   3.599 -1.3271  2.1395 -1.2229
12508TIP3    H259016   4.850   2.656   3.476 -2.0776 -1.9198 -2.4806
12509TIP3   OH259017   4.605   6.537   1.053  0.3925  0.1552 -0.2598
12509TIP3    H159018   4.587   6.446   1.075 -0.6331  0.6694  1.1159
12509TIP3    H259019   4.522   6.571   1.019  0.0697  1.1927  1.4637
12510TIP3   OH259020   6.198   1.342   1.402  0.2084  0.5464  0.3413
12510TIP3    H159021   6.145   1.270   1.368  1.0790 -0.7510  1.5806
12510TIP3    H259022   6.282   1.334   1.356 -0.4187  2.2149 -1.1713
12511TIP3   OH259023   0.042   2.894  10.705 -0.0094  0.0549 -0.2969
12511TIP3    H159024   0.020   2.971  10.653 -0.6669 -1.2747 -2.0749
12511TIP3    H259025  -0.010   2.904  10.785  0.7832  1.9800  0.0401
12512TIP3   OH259026   1.254   6.172  12.940 -0.6522 -0.0098 -0.5699
12512TIP3    H159027   1.280   6.127  13.020 -0.5314 -0.5626 -0.9167
12512TIP3    H259028   1.167   6.208  12.960  0.1412  1.4740  0.4391
12513TIP3   OH259029   3.257   0.276  14.088 -0.4918 -0.0101  0.5681
12513TIP3    H159030   3.192   0.314  14.147 -0.9565  0.4476 -0.2167
12513TIP3    H259031   3.331   0.336  14.090 -0.4855 -0.0244  0.7264
12514TIP3   OH259032   1.296   6.635  15.794  0.2834  0.2625 -0.1991
12514TIP3    H159033   1.260   6.557  15.837  3.0479 -1.3768 -0.6399
12514TIP3    H259034   1.319   6.693  15.867 -0.3294  0.0035  0.2145
12515TIP3   OH259035   1.771   6.450   2.457 -0.5851 -0.0266  0.4645
12515TIP3    H159036   1.848   6.448   2.514  0.7352  1.7044 -1.0900
12515TIP3    H259037   1.726   6.368   2.474  1.1999 -0.7715  2.0023
12516TIP3   OH259038   1.134   1.638   1.900  0.2831  0.7386  0.1392
12516TIP3    H159039   1.214   1.586   1.897 -0.2320 -0.2228  1.8487
12516TIP3    H259040   1.064   1.576   1.880 -0.2433  0.9913  1.1474
12517TIP3   OH259041   4.779   4.748  16.446 -0.3311  0.5017  0.5401
12517TIP3    H159042   4.804   4.738  16.354 -1.3548 -0.8612  0.3774
12517TIP3    H259043   4.841   4.692  16.494 -2.4852 -2.4585  0.1844
12518TIP3   OH259044   4.462   0.872   0.336  0.0307  0.4856  0.2896
12518TIP3    H159045   4.471   0.966   0.328 -1.6020  0.6875  0.4793
12518TIP3    H259046   4.528   0.847   0.402  1.6011  1.2154 -0.9373
12519TIP3   OH259047   5.576   2.245  14.946 -0.7175  0.2856  0.1842
12519TIP3    H159048   5.597   2.299  14.870 -1.7703  0.7533  0.2150
12519TIP3    H259049   5.578   2.155  14.913  0.4493  0.3654 -0.0037
12520TIP3   OH259050   5.446   6.626  15.322  0.5630 -0.6566 -0.0221
12520TIP3    H159051   5.484   6.714  15.322 -2.2561  0.6598  0.4951
12520TIP3    H259052   5.441   6.601  15.230  1.1325 -0.1686 -0.1851
12521TIP3   OH259053   4.856   1.721   1.489 -0.6045  0.4707  0.3384
12521TIP3    H159054   4.870   1.684   1.402 -0.3054  0.4751  0.3819
12521TIP3    H259055   4.764   1.704   1.508  0.0595 -2.6109  1.4026
12522TIP3   OH259056   5.591   6.818   5.761 -0.1171  0.4774 -0.1028
12522TIP3    H159057   5.496   6.826   5.771  0.0184 -0.4675  3.0326
12522TIP3    H259058   5.626   6.894   5.807  0.6194 -1.3992  2.6458
12523TIP3   OH259059   1.995   1.611  14.916 -1.0089 -0.0143 -0.2188
12523TIP3    H159060   2.084   1.577  14.915  0.1797  2.8026 -0.8605
12523TIP3    H259061   2.005   1.704  14.935 -3.6850  0.7382 -1.8915
12524TIP3   OH259062   0.812   4.464   1.460 -0.4236  0.2787 -0.1374
12524TIP3    H159063   0.878   4.488   1.525  1.1268  1.6743 -2.1037
12524TIP3    H259064   0.779   4.548   1.427  0.3852 -0.2937 -2.6125
12525TIP3   OH259065   3.526   0.902  13.607  0.2392  0.0893  0.1208
12525TIP3    H159066   3.504   0.862  13.523 -0.4018  0.5350  0.0715
12525TIP3    H259067   3.485   0.988  13.605  2.0819  1.0178 -0.0034
12526TIP3   OH259068   4.741   4.691   0.360  0.4907 -0.5058  0.4949
12526TIP3    H159069   4.684   4.617   0.337 -2.6684  1.3884  1.6208
12526TIP3    H259070   4.793   4.658   0.434 -2.0165 -1.2060  2.0712
12527TIP3   OH259071   2.501   4.914   2.162  0.0164  0.0837 -0.4351
12527TIP3    H159072   2.557   4.898   2.239  0.5349  0.8379 -0.6482
12527TIP3    H259073   2.515   4.837   2.106  1.9532  0.8831 -1.1347
12528TIP3   OH259074   0.049   6.444  13.725  0.4403 -0.6295 -0.3685
12528TIP3    H159075   0.091   6.470  13.643 -1.8915  0.3082 -1.3342
12528TIP3    H259076   0.062   6.520  13.782 -0.8963  0.1487 -1.0625
12529TIP3   OH259077   1.848   5.134   3.890 -0.6076  0.0401 -0.5522
12529TIP3    H159078   1.848   5.072   3.817 -0.5049 -1.2320  0.4944
12529TIP3    H259079   1.917   5.197   3.867  0.0542 -0.8691 -1.1281
12530TIP3   OH259080   0.424   4.414  16.495 -0.3610  0.4130 -0.5369
12530TIP3    H159081   0.361   4.347  16.524  0.7553 -0.6388 -0.4657
12530TIP3    H259082   0.465   4.444  16.576 -1.0146  1.3574 -0.5493
12531TIP3   OH259083   6.286   4.847   4.370  0.2825  0.0054 -0.2430
12531TIP3    H159084   6.238   4.778   4.414 -0.3248  0.6839  0.1771
12531TIP3    H259085   6.332   4.803   4.299 -0.9995 -0.6540 -0.6907
12532TIP3   OH259086   2.702   0.677   5.439 -0.5355  0.1820 -0.1559
12532TIP3    H159087   2.772   0.613   5.450 -0.8421 -0.2698 -0.8003
12532TIP3    H259088   2.623   0.631   5.468 -0.9365 -0.1319 -1.6669
12533TIP3   OH259089   5.206   5.064  15.922  0.7422 -0.4385 -0.0772
12533TIP3    H159090   5.251   5.120  15.984  0.1535 -0.2849  0.2150
12533TIP3    H259091   5.119   5.102  15.914  1.0349 -0.0158 -1.5588
12534TIP3   OH259092   0.735   0.369  15.445 -0.4249 -0.0751  0.2881
12534TIP3    H159093   0.772   0.380  15.533  0.0815 -2.2341  0.4070
12534TIP3    H259094   0.699   0.454  15.423  0.0178  0.6904  2.3311
12535TIP3   OH259095   1.164   6.550   2.851  0.1068  0.0103  0.5146
12535TIP3    H159096   1.246   6.502   2.861 -0.0824 -0.7590 -1.1604
12535TIP3    H259097   1.180   6.611   2.779 -0.5243  0.4942  0.7676
12536TIP3   OH259098   0.708   2.269  16.795  0.3248 -0.2765  0.1718
12536TIP3    H159099   0.682   2.233  16.880 -2.4070 -1.6190 -1.1417
12536TIP3    H259100   0.755   2.349  16.817  0.0403 -0.7764  2.9528
12537TIP3   OH259101   0.290   4.898   4.259  0.1299 -0.1586 -0.1775
12537TIP3    H159102   0.207   4.903   4.306 -0.2095 -1.3491 -0.6106
12537TIP3    H259103   0.354   4.877   4.326 -0.1567 -0.6739 -0.0612
12538TIP3   OH259104   0.342   3.875   4.434 -0.3941  0.5774  0.3043
12538TIP3    H159105   0.274   3.939   4.454 -0.6961 -0.3607  2.5956
12538TIP3    H259106   0.340   3.866   4.339 -0.6354  3.5958 -0.0681
12539TIP3   OH259107   5.634   3.753   2.860  0.5028  0.0228  0.3326
12539TIP3    H159108   5.716   3.721   2.898  0.2486 -1.5569 -0.3655
12539TIP3    H259109   5.576   3.763   2.935  0.3497 -1.9933  0.5419
12540TIP3   OH259110   6.196   3.198  17.058  0.0519 -0.0432  0.0749
12540TIP3    H159111   6.187   3.261  16.986 -1.1090  1.9024  1.7838
12540TIP3    H259112   6.284   3.214  17.093 -0.2100  0.6025  0.4535
12541TIP3   OH259113   6.366   0.495   5.604  0.3138 -0.6190 -0.3413
12541TIP3    H159114   6.271   0.494   5.599  0.2684 -1.7972  0.3961
12541TIP3    H259115   6.392   0.569   5.549 -1.0519  0.2102  0.0770
12542TIP3   OH259116   2.080   0.693   5.972  0.3241 -0.5672 -0.2087
12542TIP3    H159117   2.081   0.614   6.025  0.4819 -1.0129 -0.8708
12542TIP3    H259118   2.148   0.749   6.011 -0.7056 -0.1836  1.0970
12543TIP3   OH259119   1.263   3.001   2.539  0.2845 -0.6723  0.2925
12543TIP3    H159120   1.282   2.968   2.452  1.0661 -1.5537  0.7803
12543TIP3    H259121   1.320   2.950   2.597  0.4417  0.5099  1.2204
12544TIP3   OH259122   6.061   5.374   3.312  0.1805  0.1518  0.1244
12544TIP3    H159123   6.082   5.445   3.252 -0.5409  0.7558  0.5570
12544TIP3    H259124   6.053   5.416   3.398 -1.0780 -0.2904  0.2537
12545TIP3   OH259125   3.074   6.206   5.984  0.5360 -0.3114  0.3555
12545TIP3    H159126   3.166   6.182   5.994  0.3946 -0.0746  2.7955
12545TIP3    H259127   3.035   6.133   5.935  1.9010 -0.6879 -0.1911
12546TIP3   OH259128   5.480   5.915   0.163 -0.2573 -0.2238  0.0138
12546TIP3    H159129   5.525   5.914   0.247  0.3892  0.0967 -0.3215
12546TIP3    H259130   5.444   5.827   0.154 -0.2792 -0.2795  0.5948
12547TIP3   OH259131   1.452   1.725  11.375  0.0616 -0.1328 -0.2309
12547TIP3    H159132   1.527   1.683  11.418 -0.1259 -0.3320 -0.0980
12547TIP3    H259133   1.412   1.655  11.323  0.0192 -0.0047 -0.3709
12548TIP3   OH259134   5.203   3.116  15.591  0.2096  0.1134 -0.0328
12548TIP3    H159135   5.143   3.159  15.531 -0.4818 -0.0542  0.5149
12548TIP3    H259136   5.245   3.187  15.639 -0.2019  0.2123  0.1866
12549TIP3   OH259137   6.295   4.494  13.783 -0.2352 -0.3722  0.1314
12549TIP3    H159138   6.390   4.483  13.780 -0.0944  0.7392  0.3356
12549TIP3    H259139   6.280   4.587  13.767 -1.3265 -0.6297 -0.4560
12550TIP3   OH259140   3.840   6.161  16.299 -0.5253  0.4985  0.0476
12550TIP3    H159141   3.781   6.089  16.276 -0.6791  0.5087  0.3987
12550TIP3    H259142   3.922   6.141  16.253 -1.0800  0.9601 -1.1690
12551TIP3   OH259143   4.940   3.106   5.196 -0.7776  0.7238  0.6714
12551TIP3    H159144   4.934   3.153   5.112 -0.1839  1.5633  1.0904
12551TIP3    H259145   5.010   3.043   5.183 -1.7810 -0.2914  0.0022
12552TIP3   OH259146   5.946   1.112   0.329 -0.1756 -0.0445  0.0628
12552TIP3    H159147   6.037   1.098   0.353 -0.3693  0.0787  0.8955
12552TIP3    H259148   5.950   1.164   0.248  0.4868  1.4025  0.9948
12553TIP3   OH259149   2.803   5.889  17.182 -0.0117 -0.2473  0.3224
12553TIP3    H159150   2.884   5.909  17.134 -1.0797 -0.1644 -1.5379
12553TIP3    H259151   2.778   5.972  17.222 -0.7774  0.5793 -1.6989
12554TIP3   OH259152   3.783   6.119  13.291  0.7580  0.4757 -0.5571
12554TIP3    H159153   3.710   6.093  13.347  3.0381 -1.8916  1.5740
12554TIP3    H259154   3.775   6.214  13.285 -2.0108  0.3785  0.2532
12555TIP3   OH259155   3.383   4.517   4.589  0.4429 -0.1212  0.0117
12555TIP3    H159156   3.297   4.494   4.624  0.8317 -0.0830  1.0183
12555TIP3    H259157   3.442   4.452   4.626  0.8737 -0.0590 -0.5572
12556TIP3   OH259158   3.421   1.617   4.605  0.0618  0.6245  0.4239
12556TIP3    H159159   3.418   1.654   4.693  1.9419  1.0342  0.3669
12556TIP3    H259160   3.423   1.693   4.547 -1.9179  0.3574 -0.0461
12557TIP3   OH259161   2.197   4.712   5.379 -0.1760  0.3230 -0.2371
12557TIP3    H159162   2.184   4.621   5.352 -1.5046  0.2848  0.4453
12557TIP3    H259163   2.283   4.712   5.420  0.4069 -0.3334 -1.3804
12558TIP3   OH259164   4.346   5.425   1.686  0.6326  0.0579  0.4312
12558TIP3    H159165   4.419   5.486   1.677 -1.4192  2.6380  0.1686
12558TIP3    H259166   4.331   5.418   1.780  1.5220 -0.9240  0.5155
12559TIP3   OH259167   6.775   0.130   7.154  0.0601 -0.0399 -0.0006
12559TIP3    H159168   6.716   0.082   7.097  0.7882 -0.3923 -0.4624
12559TIP3    H259169   6.725   0.207   7.182 -0.2985  0.1331 -1.1063
12560TIP3   OH259170   5.588   3.231  15.938 -0.3031  0.0674  0.6383
12560TIP3    H159171   5.682   3.233  15.920 -1.0006  1.0202 -3.9367
12560TIP3    H259172   5.564   3.138  15.930  0.0204 -0.0065  0.5276
12561TIP3   OH259173   3.482   0.533  16.168 -0.1299  0.0564  0.7257
12561TIP3    H159174   3.421   0.461  16.152  0.0163 -0.0554  0.6631
12561TIP3    H259175   3.549   0.494  16.225  0.3374 -0.0603  0.1111
12562TIP3   OH259176   3.313   5.965   2.673 -0.2296  0.1483 -0.5532
12562TIP3    H159177   3.237   5.908   2.665 -1.2320  1.3688 -0.1658
12562TIP3    H259178   3.295   6.037   2.612  0.1102  0.9595  0.2774
12563TIP3   OH259179   2.509   5.598   3.858  0.2158 -0.4327  0.5222
12563TIP3    H159180   2.566   5.634   3.791 -3.0565 -1.0646 -2.9309
12563TIP3    H259181   2.502   5.505   3.837 -1.1427 -0.5870  1.4998
12564TIP3   OH259182   3.596   2.964   2.469  0.0374  0.1549 -0.6128
12564TIP3    H159183   3.553   2.960   2.554  0.3070  2.0323 -0.3592
12564TIP3    H259184   3.529   2.996   2.409  0.3572  0.6200 -0.7299
12565TIP3   OH259185   4.790   3.584   3.470 -0.7030  0.1093 -0.2950
12565TIP3    H159186   4.754   3.665   3.434 -1.0593 -0.4444 -1.2146
12565TIP3    H259187   4.879   3.578   3.434  0.4809  1.5798  2.1359
12566TIP3   OH259188   3.491   4.957   6.517  0.0048 -0.1329 -0.7190
12566TIP3    H159189   3.434   4.892   6.558  1.2287 -0.1448  1.1098
12566TIP3    H259190   3.579   4.935   6.549  0.6129  1.7027 -0.9899
12567TIP3   OH259191   2.097   5.560   3.938  0.2154  0.6450  0.6139
12567TIP3    H159192   2.002   5.554   3.946  0.1801  1.6205  1.0688
12567TIP3    H259193   2.126   5.586   4.025  0.7089  2.3347 -0.0290
12568TIP3   OH259194   3.054   1.496  16.929 -0.1055  0.4089 -0.2681
12568TIP3    H159195   3.071   1.514  16.837 -1.2169 -1.7456 -0.9624
12568TIP3    H259196   3.067   1.580  16.973 -1.2978  1.9426 -2.6394
12569TIP3   OH259197   0.768   4.362   2.288  0.2955  0.2063 -0.1654
12569TIP3    H159198   0.854   4.335   2.319 -0.3476 -1.0932  0.5416
12569TIP3    H259199   0.709   4.341   2.360 -0.5271  1.7936 -0.3361
12570TIP3   OH259200   3.744   3.124   6.104  0.2507 -0.2194  0.4910
12570TIP3    H159201   3.832   3.159   6.092  0.8484 -1.3455  1.4810
12570TIP3    H259202   3.689   3.201   6.118  0.8253  0.5998 -1.4006
12571TIP3   OH259203   3.639   4.054  11.266  0.4823  0.3753  0.1852
12571TIP3    H159204   3.572   4.115  11.236  0.1293 -0.2331 -0.2794
12571TIP3    H259205   3.699   4.046  11.192  0.2703 -0.1944  0.0682
12572TIP3   OH259206   3.025   4.464   5.220 -0.6495 -0.0624  0.3678
12572TIP3    H159207   3.010   4.493   5.130 -0.0476 -0.5269  0.1084
12572TIP3    H259208   2.967   4.518   5.273  1.7857  3.0177  0.1399
12573TIP3   OH259209   1.494   3.327  15.920 -0.5008 -0.7371  0.0745
12573TIP3    H159210   1.470   3.417  15.943  1.3278 -0.1975  0.0529
12573TIP3    H259211   1.447   3.309  15.838  0.0018  0.6314 -0.5357
12574TIP3   OH259212   3.886   0.556   5.669  0.1268  0.6109  0.0149
12574TIP3    H159213   3.795   0.579   5.683 -0.1092  1.3545 -2.2790
12574TIP3    H259214   3.935   0.621   5.720 -0.5720 -0.6888  2.4466
12575TIP3   OH259215   0.561   3.312   0.569 -0.4533 -0.1237  0.5378
12575TIP3    H159216   0.492   3.274   0.514 -0.6863  0.8474  0.1474
12575TIP3    H259217   0.519   3.385   0.614  0.3406  0.5573  0.2095
12576TIP3   OH259218   2.155   0.777   4.790  0.1736  0.5681  0.3617
12576TIP3    H159219   2.206   0.850   4.825 -0.5130  2.3626 -2.0944
12576TIP3    H259220   2.219   0.718   4.752  0.5873  1.7419 -0.8231
12577TIP3   OH259221   6.260   2.973  13.271 -0.0403 -0.5846  0.1715
12577TIP3    H159222   6.225   3.034  13.206 -0.8724 -0.6056  0.5876
12577TIP3    H259223   6.338   2.936  13.230  2.1974  2.8127  0.9166
12578TIP3   OH259224   0.904   1.089  14.540 -0.6209  0.4171  0.8114
12578TIP3    H159225   0.825   1.048  14.504 -0.1895 -1.1057  1.5104
12578TIP3    H259226   0.937   1.025  14.603  2.0533  0.2966 -0.5978
12579TIP3   OH259227   1.522   6.109   3.481  0.5975  0.4095 -0.0471
12579TIP3    H159228   1.504   6.038   3.542 -2.3599  0.7369 -0.4156
12579TIP3    H259229   1.513   6.189   3.533 -1.6720  0.6793 -0.7844
12580TIP3   OH259230   1.147   6.799   1.419 -0.0574  0.8949  0.7496
12580TIP3    H159231   1.185   6.723   1.462  1.6926  0.4659 -1.4157
12580TIP3    H259232   1.221   6.848   1.384 -1.3142  1.0580 -1.9729
12581TIP3   OH259233   5.981   6.146  12.351  0.0660 -0.0998 -0.1742
12581TIP3    H159234   5.972   6.220  12.290  0.9237  0.9048  0.8767
12581TIP3    H259235   6.066   6.107  12.329 -0.0728 -0.3429 -0.2760
12582TIP3   OH259236   1.094   0.901  12.090 -0.0393  0.0875  0.4661
12582TIP3    H159237   1.184   0.914  12.121 -0.2828  1.2523  0.7334
12582TIP3    H259238   1.079   0.974  12.029 -0.3460 -0.8686 -0.6291
12583TIP3   OH259239   5.375   6.258   2.993 -0.2617  0.1201  0.7869
12583TIP3    H159240   5.303   6.314   2.964  0.8659  2.0451  1.5199
12583TIP3    H259241   5.413   6.304   3.067  0.5666 -1.7992  1.6255
12584TIP3   OH259242   4.172   0.452  16.410  0.1986  0.1735 -0.1276
12584TIP3    H159243   4.235   0.495  16.353  0.2913 -0.7642 -0.7495
12584TIP3    H259244   4.179   0.359  16.389  1.3685 -0.4431  2.4989
12585TIP3   OH259245   0.044   6.603  14.603  1.0291 -0.3380  0.2838
12585TIP3    H159246  -0.050   6.623  14.608  0.9588 -0.8924  1.5925
12585TIP3    H259247   0.075   6.651  14.527  0.2305  2.0965  1.4051
12586TIP3   OH259248   6.496   5.845  14.288  0.6126 -0.6136  0.1367
12586TIP3    H159249   6.496   5.756  14.323 -0.3390  0.2197  2.4225
12586TIP3    H259250   6.407   5.877  14.302  1.3734  1.2920  1.0777
12587TIP3   OH259251   3.667   1.406   5.036  0.2451 -0.2418  0.6552
12587TIP3    H159252   3.590   1.361   5.071  0.5877 -1.1867  0.2162
12587TIP3    H259253   3.718   1.337   4.994 -0.0815  0.7933 -1.6072
12588TIP3   OH259254   3.592   0.258   0.267  0.0464 -0.0712  0.4726
12588TIP3    H159255   3.526   0.300   0.322 -0.1806  1.2153 -0.7203
12588TIP3    H259256   3.630   0.330   0.216  0.2474 -1.2085 -1.0365
12589TIP3   OH259257   0.655   1.263   6.383 -0.3033 -0.0471  0.3144
12589TIP3    H159258   0.740   1.299   6.406 -0.1161 -0.8549  0.9566
12589TIP3    H259259   0.635   1.203   6.455 -2.9829  2.6215  2.0523
12590TIP3   OH259260   4.277   3.316  14.523 -0.5190  0.2384 -0.0357
12590TIP3    H159261   4.195   3.270  14.539 -0.2134  0.1480  1.3488
12590TIP3    H259262   4.339   3.278  14.586  0.2755  1.1271 -0.2574
12591TIP3   OH259263   2.199   1.138  12.437  0.2407 -0.2979  0.5944
12591TIP3    H159264   2.169   1.053  12.469 -2.1023 -0.1385 -0.9088
12591TIP3    H259265   2.139   1.201  12.478  0.7773  0.4465  0.2634
12592TIP3   OH259266   6.232   5.889   0.513  0.3643 -0.4068 -0.0839
12592TIP3    H159267   6.260   5.912   0.602  1.0400  0.2676 -0.4585
12592TIP3    H259268   6.195   5.970   0.478 -0.3674 -0.8016 -0.2546
12593TIP3   OH259269   4.026   3.965   3.849 -0.4110 -0.0051 -0.2843
12593TIP3    H159270   4.047   4.040   3.905  2.0222 -0.7898 -0.0135
12593TIP3    H259271   4.057   3.991   3.762 -0.8351 -0.1801 -0.4901
12594TIP3   OH259272   4.219   2.408  12.663 -0.1075 -0.2364  0.3883
12594TIP3    H159273   4.207   2.449  12.748 -1.0508  0.4234 -0.0500
12594TIP3    H259274   4.291   2.346  12.676  0.5570  0.7222  1.3436
12595TIP3   OH259275   6.814   2.625   0.032 -0.2685 -0.0216 -0.0924
12595TIP3    H159276   6.831   2.718   0.017  0.7121 -0.2141 -0.2973
12595TIP3    H259277   6.876   2.600   0.100  0.9412 -0.9619 -1.4525
12596TIP3   OH259278   2.548   2.633   5.080 -0.0979  0.2379 -0.8814
12596TIP3    H159279   2.521   2.617   5.170 -0.5326 -1.7174 -1.3123
12596TIP3    H259280   2.478   2.686   5.043 -0.4413  0.1381 -0.3786
12597TIP3   OH259281   2.652   1.321  15.076 -0.4762 -0.1029 -0.2002
12597TIP3    H159282   2.658   1.328  14.981 -2.8017  0.3303 -0.3703
12597TIP3    H259283   2.667   1.229  15.095  3.0140  0.2402 -0.6188
12598TIP3   OH259284   0.280   2.371   3.475  0.6724 -0.2577  0.7410
12598TIP3    H159285   0.240   2.345   3.392  0.5986  1.2407  0.2804
12598TIP3    H259286   0.286   2.290   3.525  0.1346 -1.0802 -0.4806
12599TIP3   OH259287   4.501   2.254   5.128 -0.1390  0.2463  0.3167
12599TIP3    H159288   4.453   2.180   5.090 -0.3790  0.5737 -0.0265
12599TIP3    H259289   4.544   2.218   5.206  0.1135 -0.3582 -0.1037
12600TIP3   OH259290   1.513   5.598  14.514  0.6364 -0.1347 -0.3213
12600TIP3    H159291   1.514   5.626  14.423 -0.1652  0.7519 -0.0837
12600TIP3    H259292   1.569   5.660  14.559 -0.1964  0.3911  0.0223
12601TIP3   OH259293   3.208   0.609   4.987 -0.2167 -0.2618  0.4128
12601TIP3    H159294   3.216   0.534   4.929  0.6357 -0.0468  0.2232
12601TIP3    H259295   3.126   0.596   5.034 -0.7627 -0.6020 -0.6077
12602TIP3   OH259296   3.578   6.438   3.760  0.1507 -0.4922  0.3610
12602TIP3    H159297   3.595   6.453   3.666  1.3797 -3.0189  0.1090
12602TIP3    H259298   3.483   6.432   3.766  0.0810 -0.8727 -0.8511
12603TIP3   OH259299   2.475   3.115   3.237  0.1989 -0.6059  0.3015
12603TIP3    H159300   2.566   3.083   3.240  0.0281 -1.0489  0.9945
12603TIP3    H259301   2.483   3.208   3.215  0.7399 -0.9712 -1.1404
12604TIP3   OH259302   0.048   0.305   5.246 -0.5947 -0.4531 -0.1372
12604TIP3    H159303   0.142   0.292   5.239 -0.4271  0.9902 -0.9143
12604TIP3    H259304   0.037   0.355   5.328 -0.3112  2.1737 -1.5928
12605TIP3   OH259305   2.670   6.293  16.939  0.3353  0.0137 -0.1018
12605TIP3    H159306   2.755   6.257  16.916 -0.0652  0.2014 -2.0951
12605TIP3    H259307   2.613   6.267  16.867 -1.3055 -0.0913  1.1759
12606TIP3   OH259308   5.614   3.807  16.507 -0.6301 -0.7216 -0.1631
12606TIP3    H159309   5.592   3.900  16.503  1.4433 -0.0404  1.9701
12606TIP3    H259310   5.575   3.777  16.589  2.8292 -0.3506  1.8286
12607TIP3   OH259311   0.010   2.347  12.604  0.0964 -0.6194  0.1251
12607TIP3    H159312   0.065   2.321  12.678 -1.0491 -0.4514  1.0644
12607TIP3    H259313   0.007   2.442  12.609  0.0615 -0.6021 -0.1889
12608TIP3   OH259314   3.505   1.920  16.835  0.1257  0.9131  0.0554
12608TIP3    H159315   3.497   1.971  16.754 -0.9262  1.6566  0.5991
12608TIP3    H259316   3.534   1.984  16.901 -1.1801  0.8311  0.7421
12609TIP3   OH259317   3.220   2.906  11.467 -0.2461  0.9095 -0.6466
12609TIP3    H159318   3.136   2.875  11.433 -0.8664  0.8865  0.8444
12609TIP3    H259319   3.208   3.000  11.477  0.6199  1.2306 -2.3402
12610TIP3   OH259320   5.021   2.236  11.352 -0.0166  0.1626  0.1811
12610TIP3    H159321   5.078   2.250  11.277 -0.6011 -0.0172 -0.2995
12610TIP3    H259322   5.031   2.316  11.405  0.6923  0.1215  0.1161
12611TIP3   OH259323   0.330   3.188   2.503  0.2476  0.0173 -0.2371
12611TIP3    H159324   0.378   3.118   2.547  1.4714  0.4289 -0.8609
12611TIP3    H259325   0.336   3.262   2.562  1.0024  0.2675 -0.6086
12612TIP3   OH259326   4.927   3.573  10.513  0.3244 -0.7760 -0.1245
12612TIP3    H159327   4.958   3.493  10.471 -0.5852 -1.3203  0.2053
12612TIP3    H259328   4.982   3.642  10.478 -0.1900 -1.2523 -1.9762
12613TIP3   OH259329   6.638   4.252  12.212  1.0089  0.2535  0.1808
12613TIP3    H159330   6.621   4.262  12.305  0.1188 -1.0877  0.1978
12613TIP3    H259331   6.572   4.307  12.169  0.6307 -0.0697  0.3396
12614TIP3   OH259332   6.351   6.772  16.627 -0.5132  0.8028  0.3469
12614TIP3    H159333   6.432   6.808  16.662 -0.1324  0.3366 -0.0313
12614TIP3    H259334   6.281   6.828  16.662  0.1403  2.9754 -1.5487
12615TIP3   OH259335   5.048   1.488   3.074  0.0321  0.4205  0.6792
12615TIP3    H159336   5.101   1.430   3.129 -1.9240  0.5760  2.8760
12615TIP3    H259337   5.045   1.571   3.123  1.2616  1.8768 -1.5233
12616TIP3   OH259338   3.274   1.365  15.591 -0.3619  0.1224  0.1373
12616TIP3    H159339   3.242   1.427  15.656  0.8671 -0.8908  1.7774
12616TIP3    H259340   3.297   1.287  15.641  0.3856 -0.7999 -1.5561
12617TIP3   OH259341   5.887   2.784   3.041  0.1009 -0.0564  0.3193
12617TIP3    H159342   5.848   2.769   2.954  0.9794 -0.9639  0.0639
12617TIP3    H259343   5.976   2.814   3.022  0.3927 -0.5499  0.9069
12618TIP3   OH259344   2.465   3.709  11.429  0.1228 -0.0080  0.2293
12618TIP3    H159345   2.394   3.772  11.420  0.3464  0.4792  1.6146
12618TIP3    H259346   2.470   3.691  11.523  1.9382  0.0877  0.1966
12619TIP3   OH259347   6.648   0.396   4.777  0.5094 -0.2510  0.1611
12619TIP3    H159348   6.601   0.346   4.843 -1.5489  0.8365 -0.3958
12619TIP3    H259349   6.700   0.459   4.826 -1.9603  1.4113  0.8666
12620TIP3   OH259350   3.326   1.976  15.559 -0.6654  0.5663 -0.1625
12620TIP3    H159351   3.328   1.894  15.508 -1.0266  0.7615 -0.4985
12620TIP3    H259352   3.232   1.994  15.570 -0.6283 -0.1122  1.6150
12621TIP3   OH259353   0.157   5.389  11.557  0.5869  0.2545  0.6656
12621TIP3    H159354   0.075   5.378  11.509  1.3707  0.6153 -0.8077
12621TIP3    H259355   0.142   5.344  11.640 -1.9709  2.4321  1.5224
12622TIP3   OH259356   3.222   2.442   6.014 -0.2430  0.6116 -0.2971
12622TIP3    H159357   3.246   2.416   6.103 -0.4973  0.0734 -0.3799
12622TIP3    H259358   3.236   2.537   6.012  1.2179  0.4247 -0.1491
12623TIP3   OH259359   6.089   6.310  12.136  0.3973  0.3486  0.1956
12623TIP3    H159360   6.144   6.328  12.212  2.5094 -1.1574 -0.8785
12623TIP3    H259361   6.061   6.397  12.106  0.1052  1.0053  2.2272
12624TIP3   OH259362   2.280   3.255  15.250 -0.3354  0.3039 -0.3968
12624TIP3    H159363   2.233   3.333  15.280 -1.3271 -0.4061 -0.0773
12624TIP3    H259364   2.213   3.188  15.242  0.5625 -0.6306 -0.2984
12625TIP3   OH259365   5.589   5.881  16.770 -0.8067  0.2992 -1.1569
12625TIP3    H159366   5.565   5.818  16.839 -3.4598 -0.0014 -2.2393
12625TIP3    H259367   5.682   5.899  16.786 -1.3018  0.3375  2.5351
12626TIP3   OH259368   1.010   5.361  12.346 -0.2597 -0.4381  0.1399
12626TIP3    H159369   1.070   5.389  12.277 -0.7908  1.0905  0.2741
12626TIP3    H259370   1.044   5.275  12.373  1.5062  0.1121 -0.2048
12627TIP3   OH259371   1.599   4.037   2.976  0.5339 -0.1396 -0.1658
12627TIP3    H159372   1.627   3.958   2.929  0.6951 -0.5624  0.6293
12627TIP3    H259373   1.556   4.004   3.055 -0.4263  0.5443 -0.3866
12628TIP3   OH259374   1.270   1.445  15.946 -0.7391  0.7141  0.6393
12628TIP3    H159375   1.287   1.512  16.013  0.5302  0.0434  1.0212
12628TIP3    H259376   1.287   1.490  15.863  1.3144  0.6069  0.9293
12629TIP3   OH259377   3.776   1.330  14.090 -0.3019  0.2863  0.0725
12629TIP3    H159378   3.767   1.246  14.135 -0.9977 -0.5445 -1.5226
12629TIP3    H259379   3.843   1.315  14.023 -1.1821  0.6692 -0.9217
12630TIP3   OH259380   2.325   6.604  13.731 -0.0271  0.2103  0.6108
12630TIP3    H159381   2.322   6.511  13.707 -1.5816  0.1578  0.8900
12630TIP3    H259382   2.301   6.605  13.823  1.1424  0.8121  0.9244
12631TIP3   OH259383   0.754   1.874   0.313 -0.6738 -0.1294  0.2786
12631TIP3    H159384   0.777   1.819   0.387 -0.8984 -2.7252 -1.4617
12631TIP3    H259385   0.827   1.935   0.304 -0.8396  0.5583  2.8084
12632TIP3   OH259386   2.427   0.899   4.441  0.6278  0.1467  0.4739
12632TIP3    H159387   2.420   0.850   4.523  0.6519 -0.7076 -0.0300
12632TIP3    H259388   2.478   0.843   4.383 -2.4197 -0.9369 -1.3627
12633TIP3   OH259389   1.010   1.796  15.545  0.3131 -0.2366 -0.1585
12633TIP3    H159390   0.994   1.778  15.638  0.8125  0.8714  0.1629
12633TIP3    H259391   0.975   1.720  15.499  0.1358 -0.8389  0.9456
12634TIP3   OH259392   5.515   4.513  12.516 -0.0071  0.4952 -0.4986
12634TIP3    H159393   5.570   4.498  12.440 -0.5244 -0.5698 -0.6737
12634TIP3    H259394   5.430   4.474  12.493 -0.2644  0.4444  0.4891
12635TIP3   OH259395   5.819   3.144  15.031  0.3183  0.0067  0.2668
12635TIP3    H159396   5.824   3.192  15.114 -0.5137  1.3710 -0.4241
12635TIP3    H259397   5.804   3.212  14.965  0.0515 -1.1325 -0.8912
12636TIP3   OH259398   0.884   5.492  13.902  0.0289  0.4272 -1.1596
12636TIP3    H159399   0.790   5.484  13.889 -1.1241  2.6365  3.6341
12636TIP3    H259400   0.914   5.403  13.920 -1.4718 -0.0570 -0.9821
12637TIP3   OH259401   2.233   2.037  14.541  0.0696  0.0328 -0.4558
12637TIP3    H159402   2.232   2.130  14.564  1.2568 -0.4274  1.7179
12637TIP3    H259403   2.315   2.025  14.493 -0.7517  0.3195 -2.0117
12638TIP3   OH259404   1.052   3.303  11.182  0.2669 -0.5381  0.1538
12638TIP3    H159405   0.976   3.287  11.126  0.4308 -0.8445  0.0178
12638TIP3    H259406   1.115   3.347  11.125 -0.5101  1.4359  0.7436
12639TIP3   OH259407   1.129   4.280  11.515 -0.1333  0.7277 -0.0468
12639TIP3    H159408   1.046   4.242  11.546 -1.3798  0.7214 -3.0309
12639TIP3    H259409   1.176   4.205  11.478  1.1711  0.7816  1.4052
12640TIP3   OH259410   3.819   1.021  12.705 -0.2964  0.0060  0.2478
12640TIP3    H159411   3.800   1.056  12.792  1.0834 -0.2554  0.6796
12640TIP3    H259412   3.893   1.073  12.674 -1.4917  0.8599 -1.2654
12641TIP3   OH259413   2.108   1.658  12.302  0.4339 -0.2912  0.2047
12641TIP3    H159414   2.176   1.725  12.292  1.1375 -0.9201  0.6066
12641TIP3    H259415   2.155   1.582  12.336 -0.4049 -0.8891  0.0560
12642TIP3   OH259416   3.042   0.772  12.260 -0.3774 -0.4528 -0.6016
12642TIP3    H159417   2.985   0.768  12.337  1.1863 -2.3159  0.5616
12642TIP3    H259418   3.131   0.763  12.296  0.5023  0.1389 -2.5221
12643TIP3   OH259419   0.438   4.425   5.357  0.1951  0.2799 -0.5565
12643TIP3    H159420   0.533   4.420   5.357  0.2427  0.2545 -2.4524
12643TIP3    H259421   0.418   4.518   5.365  0.4902  0.5533 -2.5126
12644TIP3   OH259422   0.289   2.718  15.559  0.9298  0.4319  0.1551
12644TIP3    H159423   0.258   2.777  15.627 -1.5826 -1.6640  1.0087
12644TIP3    H259424   0.214   2.706  15.501  2.0866 -0.1638 -1.2897
12645TIP3   OH259425   1.933   6.117   2.898 -0.3521 -0.7248  0.2323
12645TIP3    H159426   1.985   6.145   2.823  0.1216 -1.9917  0.0647
12645TIP3    H259427   1.843   6.141   2.876 -0.2200 -1.0949 -0.7420
12646TIP3   OH259428   5.089   2.602   0.961 -0.0372  0.8161  0.2806
12646TIP3    H159429   5.052   2.613   1.048  0.0150 -1.0840  0.5813
12646TIP3    H259430   5.016   2.571   0.907 -0.1985  2.4668 -0.5190
12647TIP3   OH259431   1.171   5.798  15.214  0.0789 -0.1015 -0.2726
12647TIP3    H159432   1.162   5.873  15.272 -1.0011  0.2784 -0.9057
12647TIP3    H259433   1.081   5.773  15.192  0.4474 -0.4107 -1.5482
12648TIP3   OH259434   5.882   1.058  15.647  0.4455 -1.0140  0.0524
12648TIP3    H159435   5.977   1.044  15.653  0.4920 -0.8702 -0.3440
12648TIP3    H259436   5.845   0.981  15.689  0.7459 -0.7072  0.8914
12649TIP3   OH259437   3.427   3.292  15.338  0.0591 -0.0161 -0.0818
12649TIP3    H159438   3.419   3.372  15.390 -0.2603  0.2625 -0.5608
12649TIP3    H259439   3.343   3.283  15.293  0.4405 -0.0845 -0.7975
12650TIP3   OH259440   5.886   3.111  12.616  0.4512 -0.4263  0.1271
12650TIP3    H159441   5.962   3.161  12.587 -1.3087  2.2247 -0.2882
12650TIP3    H259442   5.838   3.090  12.536 -0.0969 -0.5998  0.4912
12651TIP3   OH259443   2.660   2.036   2.908  0.4594 -0.1701 -0.1541
12651TIP3    H159444   2.686   2.062   2.997  1.1240  2.2775 -1.0072
12651TIP3    H259445   2.566   2.020   2.914  0.8359 -2.3603  1.4446
12652TIP3   OH259446   0.184   1.226  16.121 -0.4441 -0.0337  0.1484
12652TIP3    H159447   0.143   1.252  16.204  0.4233 -1.2012  0.9809
12652TIP3    H259448   0.253   1.292  16.107 -1.1074  0.6263 -0.0800
12653TIP3   OH259449   6.578   3.491  11.285  0.8959  0.4856  0.0917
12653TIP3    H159450   6.582   3.538  11.202 -1.5937 -0.0361 -0.4097
12653TIP3    H259451   6.629   3.412  11.271 -1.1998 -0.6595 -1.7865
12654TIP3   OH259452   5.750   1.494  16.615  0.6823 -0.1035  0.1632
12654TIP3    H159453   5.744   1.401  16.591  2.3249 -0.3987  0.7642
12654TIP3    H259454   5.738   1.494  16.710  0.3303  0.3474  0.1203
12655TIP3   OH259455   0.265   0.899  15.626  0.3911  0.3703  0.2770
12655TIP3    H159456   0.189   0.852  15.591  0.7028  0.3471 -0.3811
12655TIP3    H259457   0.238   0.991  15.627 -0.3637  0.1691  1.9351
12656TIP3   OH259458   1.889   4.854   1.230  0.2733 -0.2308  0.4160
12656TIP3    H159459   1.914   4.849   1.322  1.7384  0.4684  0.0886
12656TIP3    H259460   1.943   4.926   1.195 -1.2913  0.4573 -0.6611
12657TIP3   OH259461   4.564   1.263   6.329  0.1501 -0.3398 -0.0946
12657TIP3    H159462   4.491   1.212   6.293  1.2918 -1.2081 -1.2900
12657TIP3    H259463   4.576   1.227   6.418 -0.9001 -0.1297  0.1495
12658TIP3   OH259464   4.461   3.034  13.086  0.0137 -0.5783  0.2334
12658TIP3    H159465   4.534   3.068  13.139  0.0054 -0.2448  0.0354
12658TIP3    H259466   4.421   2.967  13.141 -0.4365  0.2516  0.9463
12659TIP3   OH259467   4.421   0.092  16.980  0.0022  0.7458  0.2676
12659TIP3    H159468   4.490   0.157  16.994  0.1892  0.5410  0.2933
12659TIP3    H259469   4.359   0.136  16.922  0.1997  0.8981  0.1688
12660TIP3   OH259470   6.254   4.112  12.888  0.0151  0.1954 -0.2776
12660TIP3    H159471   6.183   4.118  12.952 -0.6817  0.0494 -1.0225
12660TIP3    H259472   6.311   4.043  12.922  0.2818  0.9080  0.7779
12661TIP3   OH259473   1.342   5.184   5.658 -0.5982 -0.5040  0.5901
12661TIP3    H159474   1.324   5.225   5.743  0.5350  0.1806  0.5119
12661TIP3    H259475   1.290   5.104   5.659 -1.3432 -0.0327  1.5391
12662TIP3   OH259476   5.129   1.059  14.730 -0.4845 -0.2506  0.1345
12662TIP3    H159477   5.095   1.096  14.649  1.4534 -0.7101 -0.9692
12662TIP3    H259478   5.104   1.122  14.798 -1.4127  0.5835 -0.9396
12663TIP3   OH259479   0.320   3.256   5.725 -1.0654 -0.2203 -0.3714
12663TIP3    H159480   0.290   3.189   5.664  0.9100 -1.7085  0.1698
12663TIP3    H259481   0.344   3.330   5.669  1.2672 -1.7639 -1.5674
12664TIP3   OH259482   6.133   1.648   3.254  0.4790  0.3035 -0.1422
12664TIP3    H159483   6.052   1.661   3.303 -0.2078  0.3175 -1.2495
12664TIP3    H259484   6.139   1.725   3.198  1.0539  0.0996 -0.3668
12665TIP3   OH259485   4.978   6.812  12.580 -0.7416 -0.1191 -0.4818
12665TIP3    H159486   4.931   6.789  12.660  1.0119 -0.4051  0.5243
12665TIP3    H259487   4.914   6.799  12.510 -2.5501  0.8674  0.9157
12666TIP3   OH259488   1.504   2.775   5.578  0.2355 -0.0446  0.1592
12666TIP3    H159489   1.595   2.767   5.608  0.4987 -0.1478 -0.6438
12666TIP3    H259490   1.460   2.698   5.615  0.4511  0.0455  0.6149
12667TIP3   OH259491   2.910   4.487  14.714 -0.9989 -0.3308  0.1243
12667TIP3    H159492   2.897   4.564  14.770 -0.6725  0.4509 -0.8382
12667TIP3    H259493   2.909   4.522  14.625 -0.1332 -1.3448 -0.3028
12668TIP3   OH259494   4.644   3.035   0.337  0.0654  0.4988  0.0892
12668TIP3    H159495   4.732   2.998   0.345 -0.4165 -0.2931  2.3573
12668TIP3    H259496   4.586   2.960   0.347 -0.9072  0.9983 -1.5071
12669TIP3   OH259497   6.618   3.588  16.706  0.1413 -0.2438  0.2630
12669TIP3    H159498   6.527   3.594  16.677  0.0029  1.5002  0.9072
12669TIP3    H259499   6.640   3.677  16.734  1.3587 -1.0714  2.1610
12670TIP3   OH259500   1.970   2.303  11.339 -0.5871 -0.0128  0.0471
12670TIP3    H159501   2.008   2.385  11.371  1.5959 -1.1426  0.5851
12670TIP3    H259502   1.879   2.324  11.318 -0.2868  2.3411  0.8855
12671TIP3   OH259503   6.487   0.072  12.915  0.2434 -0.3148  0.1495
12671TIP3    H159504   6.400   0.111  12.925  0.3279  0.5291 -1.9691
12671TIP3    H259505   6.471  -0.022  12.922 -0.9279 -0.1968 -0.6449
12672TIP3   OH259506   5.062   1.650   3.338 -0.1254  0.1708  0.2878
12672TIP3    H159507   5.130   1.706   3.375 -0.1295  0.3142  0.0827
12672TIP3    H259508   5.084   1.562   3.367 -0.3022  0.3213  0.8836
12673TIP3   OH259509   1.425   2.651  15.754 -0.3787 -0.3631  0.1695
12673TIP3    H159510   1.432   2.567  15.709 -0.7243 -1.8493  2.6810
12673TIP3    H259511   1.515   2.671  15.782 -0.3779 -0.1679  0.0291
12674TIP3   OH259512   3.207   6.404  13.192  0.4336 -0.1230 -0.1435
12674TIP3    H159513   3.118   6.381  13.165  0.0467  0.7462  0.3715
12674TIP3    H259514   3.217   6.495  13.165  0.2559  0.5850  2.0255
12675TIP3   OH259515   4.216   1.224  14.915 -0.3048  0.7329 -0.0889
12675TIP3    H159516   4.277   1.297  14.916  0.7085 -0.0699 -0.9581
12675TIP3    H259517   4.132   1.262  14.941 -0.0100  2.4124 -1.4254
12676TIP3   OH259518   3.772   5.528   0.302 -0.0962 -0.0504  0.2508
12676TIP3    H159519   3.796   5.595   0.237 -2.3532  0.5900  0.0050
12676TIP3    H259520   3.681   5.548   0.324 -0.0083 -1.5009  2.1219
12677TIP3   OH259521   4.369   6.670   3.388  0.2440 -0.9869 -0.4890
12677TIP3    H159522   4.462   6.682   3.405 -0.2483  1.2682  1.0471
12677TIP3    H259523   4.355   6.711   3.302  0.4441  0.1206 -0.0166
12678TIP3   OH259524   0.497   2.041   5.872  0.4770 -0.1837  0.5983
12678TIP3    H159525   0.566   2.050   5.808 -0.4256 -0.1081 -0.3867
12678TIP3    H259526   0.525   1.967   5.927  0.5948 -1.1867 -0.7634
12679TIP3   OH259527   1.911   2.468  14.925  0.1646 -0.1008  0.1117
12679TIP3    H159528   2.005   2.473  14.940  0.1668  0.7592 -0.1378
12679TIP3    H259529   1.896   2.524  14.849 -0.5223 -0.4170  0.0062
12680TIP3   OH259530   3.720   1.960  13.766 -0.1940 -0.0050 -0.1176
12680TIP3    H159531   3.724   1.943  13.672 -0.9335  2.7637 -0.7331
12680TIP3    H259532   3.727   1.874  13.806  0.0377 -1.2787 -2.7008
12681TIP3   OH259533   0.239   3.516  14.966 -0.1407 -0.0895 -0.0272
12681TIP3    H159534   0.319   3.531  15.015  0.5206 -0.2986 -1.0193
12681TIP3    H259535   0.243   3.425  14.938 -1.0685 -0.3121  0.5110
12682TIP3   OH259536   0.374   6.059   6.186 -0.2650  0.1129  0.0758
12682TIP3    H159537   0.465   6.035   6.169  0.6136  2.4656  1.0226
12682TIP3    H259538   0.355   6.021   6.272  0.1700  0.4248  0.3151
12683TIP3   OH259539   1.922   3.525   1.116 -0.0014  0.4259  0.1581
12683TIP3    H159540   1.894   3.443   1.075 -0.4545  0.2269  0.8599
12683TIP3    H259541   1.854   3.545   1.180  0.0173  1.4470 -0.1287
12684TIP3   OH259542   3.212   6.617   2.777  0.3377  0.2426 -0.1336
12684TIP3    H159543   3.227   6.600   2.870  1.2713  1.1887 -0.0811
12684TIP3    H259544   3.159   6.544   2.747 -0.4047  0.1642  1.2540
12685TIP3   OH259545   6.305   1.218   4.362 -0.4766  0.8982 -0.4356
12685TIP3    H159546   6.302   1.310   4.335  2.9713  0.8496 -1.4961
12685TIP3    H259547   6.290   1.168   4.282  0.6863  0.6222 -0.5025
12686TIP3   OH259548   5.591   2.382   3.219 -0.8661 -0.4161 -0.3142
12686TIP3    H159549   5.519   2.408   3.162 -0.1456 -0.1603 -1.1371
12686TIP3    H259550   5.659   2.447   3.202 -0.3170 -0.8537  0.1857
12687TIP3   OH259551   4.813   3.266  14.953 -0.2473  0.3227  0.3848
12687TIP3    H159552   4.752   3.338  14.969 -1.0449 -0.3130  0.2793
12687TIP3    H259553   4.880   3.304  14.896 -1.4052  0.6309 -0.8283
12688TIP3   OH259554   1.121   0.455   0.374  0.0709 -0.2764 -0.5071
12688TIP3    H159555   1.109   0.373   0.327  1.0192 -1.6031  1.3915
12688TIP3    H259556   1.035   0.476   0.409  0.2358 -1.8478  1.0050
12689TIP3   OH259557   3.033   5.459   5.082 -0.1302 -0.3938 -0.0503
12689TIP3    H159558   3.093   5.503   5.022  0.1752 -0.6090  0.0974
12689TIP3    H259559   2.954   5.513   5.081  0.4044  0.4128  0.4845
12690TIP3   OH259560   0.190   5.020  11.493  0.3315 -0.0232 -0.3008
12690TIP3    H159561   0.155   5.106  11.520  1.3032  0.3327 -0.1134
12690TIP3    H259562   0.285   5.033  11.491  0.5962 -1.4673  1.0471
12691TIP3   OH259563   5.578   0.741  17.163  0.2115  0.6668  0.2323
12691TIP3    H159564   5.596   0.832  17.140 -0.9953  0.7106 -0.6537
12691TIP3    H259565   5.536   0.705  17.086  1.4161 -0.9031  0.2652
12692TIP3   OH259566   0.077   0.289   2.733 -0.3030  0.0041 -0.7609
12692TIP3    H159567   0.148   0.248   2.781 -0.5398 -0.0340 -0.4410
12692TIP3    H259568   0.095   0.268   2.641  0.3253  0.3494 -0.7211
12693TIP3   OH259569   1.795   6.787  11.537  0.0975 -0.1194 -0.0731
12693TIP3    H159570   1.797   6.870  11.584  1.6982  0.9187 -1.8298
12693TIP3    H259571   1.871   6.739  11.570  1.2742  0.6463 -1.5536
12694TIP3   OH259572   4.978   6.508  16.674  0.2300  0.8713  0.0781
12694TIP3    H159573   4.912   6.570  16.707 -1.1218  0.3307 -1.4857
12694TIP3    H259574   4.927   6.432  16.646  1.7597 -0.5331  0.9239
12695TIP3   OH259575   2.585   3.519   4.359 -0.6329 -0.4880  0.5155
12695TIP3    H159576   2.675   3.492   4.341 -0.7439 -0.9513  0.6568
12695TIP3    H259577   2.538   3.502   4.277 -0.2686  1.2120 -0.0843
12696TIP3   OH259578   5.228   3.230   2.052 -0.6174  0.4643  0.2745
12696TIP3    H159579   5.222   3.138   2.077 -0.7101  0.3208 -0.2514
12696TIP3    H259580   5.310   3.236   2.003 -1.0742  0.4530 -0.5111
12697TIP3   OH259581   1.331   2.152  13.960 -0.5309  0.1597  0.0444
12697TIP3    H159582   1.424   2.129  13.963 -1.0080 -1.9368  0.2631
12697TIP3    H259583   1.291   2.083  13.907 -2.1579  0.2022  1.1344
12698TIP3   OH259584   4.042   1.106   1.753 -0.5544 -0.1103 -0.0060
12698TIP3    H159585   4.029   1.149   1.669  0.4437  1.2537  0.4859
12698TIP3    H259586   4.133   1.125   1.776  0.1787 -3.0766 -0.0169
12699TIP3   OH259587   3.359   5.902  11.718 -0.6962  0.2928  0.1153
12699TIP3    H159588   3.323   5.937  11.800 -0.7163  1.1016 -0.2310
12699TIP3    H259589   3.282   5.884  11.664 -0.6167  1.6657 -0.4825
12700TIP3   OH259590   2.544   3.732  16.927  0.1546 -0.4927  0.8435
12700TIP3    H159591   2.510   3.649  16.962  0.2838 -0.0350  2.0944
12700TIP3    H259592   2.471   3.793  16.935 -0.5322 -0.8581 -1.6933
12701TIP3   OH259593   6.522   3.542  15.646  0.0187 -0.1619 -0.3729
12701TIP3    H159594   6.577   3.591  15.586  1.7814 -1.2855  0.2223
12701TIP3    H259595   6.511   3.456  15.605 -0.8452 -0.1373 -0.2223
12702TIP3   OH259596   0.788   5.828  14.799  0.0790 -0.0582 -0.4138
12702TIP3    H159597   0.796   5.756  14.736  0.3027  0.7112 -1.2804
12702TIP3    H259598   0.712   5.878  14.769 -0.0675  0.0753  0.1770
12703TIP3   OH259599   1.632   4.745   0.583  0.3539 -0.2777 -0.5569
12703TIP3    H159600   1.572   4.690   0.532  1.4783 -0.2481 -1.9860
12703TIP3    H259601   1.615   4.721   0.674  0.5472 -2.7483 -1.0975
12704TIP3   OH259602   0.656   3.228  13.983  0.4351 -0.2084  0.5150
12704TIP3    H159603   0.591   3.235  13.912  1.7182 -0.1159 -0.6943
12704TIP3    H259604   0.738   3.208  13.938  2.0211  3.1169  1.5854
12705TIP3   OH259605   5.991   0.292   4.970  0.0155 -0.8365 -0.2077
12705TIP3    H159606   5.933   0.365   4.946  1.0088  0.4470  1.0966
12705TIP3    H259607   5.953   0.255   5.049  1.0573  0.1978  0.8242
12706TIP3   OH259608   0.655   1.397  12.786 -0.3332  0.5475  0.0425
12706TIP3    H159609   0.698   1.471  12.742 -0.5441 -0.1834 -1.4766
12706TIP3    H259610   0.574   1.384  12.736 -1.2204  0.4671  1.4624
12707TIP3   OH259611   6.106   0.194   3.124 -0.5462 -0.0169 -0.0965
12707TIP3    H159612   6.065   0.219   3.041 -0.2393  0.7259 -0.0323
12707TIP3    H259613   6.061   0.113   3.150 -1.7341  0.5879 -0.1951
12708TIP3   OH259614   6.459   2.464   0.555 -0.7654 -0.1736 -0.1020
12708TIP3    H159615   6.411   2.526   0.610  1.3094  0.6056  0.9451
12708TIP3    H259616   6.547   2.499   0.551  0.3443 -2.7249 -0.0229
12709TIP3   OH259617   1.805   4.508  13.276  0.0650  0.1929  0.1873
12709TIP3    H159618   1.798   4.466  13.190  0.8898  1.5184 -0.5645
12709TIP3    H259619   1.743   4.580  13.272  0.5003  0.5878  0.4925
12710TIP3   OH259620   3.886   4.990   6.269 -0.1105  0.5129  0.9546
12710TIP3    H159621   3.945   4.975   6.343  2.3942  0.7899 -0.8340
12710TIP3    H259622   3.920   5.070   6.228 -0.1512 -0.6553 -1.5650
12711TIP3   OH259623   5.466   1.168  13.615 -0.4245  0.0991 -0.1524
12711TIP3    H159624   5.450   1.262  13.605  1.6232  0.3782 -1.5035
12711TIP3    H259625   5.416   1.127  13.546  1.0200  0.5310 -1.5149
12712TIP3   OH259626   6.453   0.539   2.726  0.2579  0.4043  0.3916
12712TIP3    H159627   6.473   0.590   2.804  0.4523  0.1445  0.5119
12712TIP3    H259628   6.357   0.536   2.723  0.2518  0.2970  0.6924
12713TIP3   OH259629   0.154   0.961  12.939  0.4041  0.2061 -0.3460
12713TIP3    H159630   0.068   0.997  12.917  0.6261  0.3775 -0.9354
12713TIP3    H259631   0.139   0.866  12.946  0.4663  0.0413 -1.9961
12714TIP3   OH259632   4.672   6.090   5.560  0.3858  0.0605  0.3632
12714TIP3    H159633   4.653   6.080   5.653 -1.3503 -0.9507 -0.0588
12714TIP3    H259634   4.727   6.014   5.539 -0.8953 -0.8681  0.1893
12715TIP3   OH259635   2.592   0.286   1.112 -0.6072  0.0600 -0.3918
12715TIP3    H159636   2.530   0.221   1.078 -1.3806  1.2399 -1.3351
12715TIP3    H259637   2.643   0.312   1.036  1.3524 -1.1556  0.4434
12716TIP3   OH259638   4.512   1.259   3.337  0.3788  0.0906 -0.2353
12716TIP3    H159639   4.490   1.187   3.396  0.6364 -1.1459 -1.5600
12716TIP3    H259640   4.442   1.258   3.271 -0.2579  1.8510  0.3639
12717TIP3   OH259641   5.325   5.052  13.138 -0.1022 -0.0384  0.6312
12717TIP3    H159642   5.407   5.100  13.125 -0.1720 -0.4501 -1.7155
12717TIP3    H259643   5.287   5.047  13.050 -2.1304 -0.7790  1.5175
12718TIP3   OH259644   4.794   1.046   4.914 -0.0376  0.2503 -0.0257
12718TIP3    H159645   4.854   1.118   4.932  0.4409 -0.0790 -0.2817
12718TIP3    H259646   4.707   1.083   4.928  0.2570 -0.0142  3.1063
12719TIP3   OH259647   3.907   6.302  13.863 -0.1147 -0.3021  0.3710
12719TIP3    H159648   3.874   6.384  13.900  0.3658 -0.7053  1.7689
12719TIP3    H259649   3.946   6.327  13.779  2.5478  1.4411  1.9575
12720TIP3   OH259650   2.245   2.580   6.155 -0.2166  0.1429 -0.3714
12720TIP3    H159651   2.256   2.485   6.160 -1.8734 -0.0209  1.1556
12720TIP3    H259652   2.264   2.611   6.244 -1.6395  0.9879 -0.3261
12721TIP3   OH259653   3.231   5.632  14.143 -0.1185  0.4951  0.4252
12721TIP3    H159654   3.140   5.607  14.161 -0.1323  1.2011  1.4383
12721TIP3    H259655   3.261   5.569  14.077 -0.2063 -2.0909  2.6633
12722TIP3   OH259656   3.498   1.896   2.610  0.8937  0.1109  0.0026
12722TIP3    H159657   3.461   1.979   2.641 -0.4903  0.1143 -1.5526
12722TIP3    H259658   3.529   1.916   2.521  0.8002 -0.9659 -0.2811
12723TIP3   OH259659   1.599   2.002  13.841 -0.3444  0.2369 -0.5511
12723TIP3    H159660   1.526   1.949  13.811 -0.4548 -0.7442  1.3047
12723TIP3    H259661   1.658   1.941  13.884 -0.2295  1.4950  1.2152
12724TIP3   OH259662   0.408   3.030  16.706 -0.1753 -0.2709 -0.0728
12724TIP3    H159663   0.443   3.024  16.617 -1.2418 -0.7822 -0.4705
12724TIP3    H259664   0.477   2.992  16.761 -0.1745 -1.4386 -0.8623
12725TIP3   OH259665   3.072   0.351   3.284  0.0753  0.0354 -0.4956
12725TIP3    H159666   3.142   0.325   3.224  0.1091 -0.6132 -0.1808
12725TIP3    H259667   3.006   0.283   3.273  0.1746 -0.2030  0.3544
12726TIP3   OH259668   1.024   4.168   3.665  0.0954  0.0733  1.4480
12726TIP3    H159669   1.051   4.256   3.640 -0.6701  0.1647  0.8942
12726TIP3    H259670   1.088   4.140   3.730  1.2790  0.4131  0.4640
12727TIP3   OH259671   2.189   2.928  12.450  0.3829 -0.3508  0.3801
12727TIP3    H159672   2.179   3.018  12.417  0.4072 -0.1237  0.9775
12727TIP3    H259673   2.177   2.936  12.544  1.8012 -0.7553  0.6146
12728TIP3   OH259674   0.561   5.690   2.142  0.1537 -0.6314  0.6811
12728TIP3    H159675   0.528   5.613   2.190  0.0177  1.2185  3.8197
12728TIP3    H259676   0.497   5.758   2.161  0.2992  0.3442 -2.0069
12729TIP3   OH259677   1.723   1.607   4.748  0.4301 -0.3182  0.2442
12729TIP3    H159678   1.753   1.600   4.839 -0.6041 -0.5359  0.5830
12729TIP3    H259679   1.649   1.547   4.743 -1.1595  1.5555 -0.0333
12730TIP3   OH259680   1.075   4.587   4.479  0.0734  0.1616 -0.3450
12730TIP3    H159681   1.054   4.542   4.397 -0.4281 -0.6478  0.2128
12730TIP3    H259682   0.991   4.625   4.507 -0.1024 -0.8309  0.5391
12731TIP3   OH259683   0.915   0.635  15.304 -0.3162  0.3371 -0.0314
12731TIP3    H159684   0.844   0.684  15.346  1.2905  1.1301  1.9476
12731TIP3    H259685   0.951   0.696  15.239 -0.1727  0.6877  0.3746
12732TIP3   OH259686   0.842   3.979  13.937  0.1730  0.3469 -0.5824
12732TIP3    H159687   0.847   3.899  13.990  1.9635  0.5484 -0.3970
12732TIP3    H259688   0.812   3.949  13.852 -0.5492 -0.3100 -0.1144
12733TIP3   OH259689   3.540   5.110  16.111  0.4265  0.1873 -0.4075
12733TIP3    H159690   3.502   5.036  16.064 -0.1175  1.3289 -1.8338
12733TIP3    H259691   3.632   5.113  16.082 -0.3571  2.0529 -3.0706
12734TIP3   OH259692   3.731   5.862   1.488 -0.0618 -0.1168 -0.4190
12734TIP3    H159693   3.686   5.813   1.420  1.7761 -0.3487 -1.5555
12734TIP3    H259694   3.771   5.795   1.544 -0.2391  0.0822 -0.0500
12735TIP3   OH259695   1.885   5.823   3.028 -0.5436 -0.3555  0.2420
12735TIP3    H159696   1.925   5.909   3.023  0.6786 -0.9590 -1.4183
12735TIP3    H259697   1.801   5.837   3.070  0.1620  1.4305  1.1388
12736TIP3   OH259698   6.299   3.585  15.829  0.1030  0.5199 -0.0923
12736TIP3    H159699   6.293   3.520  15.900 -0.4435  2.0827  1.3694
12736TIP3    H259700   6.354   3.543  15.763  0.8001 -0.9423  1.3255
12737TIP3   OH259701   4.294   2.326  10.391  0.4599 -0.3664  0.1401
12737TIP3    H159702   4.277   2.262  10.460 -2.0671  0.9342  0.8404
12737TIP3    H259703   4.286   2.411  10.434  2.2396  0.4804 -1.0841
12738TIP3   OH259704   6.669   2.590   0.414 -0.0245  0.1263 -0.0778
12738TIP3    H159705   6.748   2.618   0.367 -0.5115  1.3590 -0.1963
12738TIP3    H259706   6.598   2.640   0.374 -0.8635 -0.8886  0.1017
12739TIP3   OH259707   2.893   4.577  14.216 -0.6045  0.0923  0.3968
12739TIP3    H159708   2.892   4.627  14.134  2.6728 -0.8037 -0.3360
12739TIP3    H259709   2.808   4.534  14.219 -0.7764  0.0129 -2.6584
12740TIP3   OH259710   1.274   5.587   0.230  0.0287  0.0584 -0.0907
12740TIP3    H159711   1.237   5.644   0.298  0.3078  0.8707 -0.6152
12740TIP3    H259712   1.242   5.624   0.148 -0.6417 -1.1570 -0.4023
12741TIP3   OH259713   1.755   4.825   3.115  0.3347 -0.0130  1.0199
12741TIP3    H159714   1.755   4.737   3.152  0.6505 -0.4432  0.0390
12741TIP3    H259715   1.680   4.825   3.055 -0.8521  1.0313  2.4411
12742TIP3   OH259716   3.690   2.844  11.141  0.2637  0.1244  0.4782
12742TIP3    H159717   3.728   2.928  11.164  0.6160  0.4701 -1.2100
12742TIP3    H259718   3.636   2.862  11.064  0.8691 -1.2951 -0.3254
12743TIP3   OH259719   6.049   1.307  11.996 -0.2801  0.0577 -0.0815
12743TIP3    H159720   6.003   1.286  11.915  1.3424 -0.0160 -1.0316
12743TIP3    H259721   6.090   1.392  11.979 -0.1010  0.1533  0.7495
12744TIP3   OH259722   3.341   5.173   0.345 -0.0277  0.6203 -0.0145
12744TIP3    H159723   3.367   5.097   0.397 -0.5249  1.5505  1.6921
12744TIP3    H259724   3.317   5.138   0.260  1.0797 -0.9533  0.2861
12745TIP3   OH259725   2.564   5.756   3.170  0.6047 -0.4257  0.1722
12745TIP3    H159726   2.530   5.841   3.142 -0.5887 -0.8438  0.2963
12745TIP3    H259727   2.618   5.727   3.097 -0.3202 -0.2908 -0.5930
12746TIP3   OH259728   0.781   1.407  16.562 -0.6767  0.1275 -0.1022
12746TIP3    H159729   0.833   1.356  16.501 -1.5271  0.4880 -1.1570
12746TIP3    H259730   0.690   1.383  16.543 -0.9516 -0.2507  1.4798
12747TIP3   OH259731   4.821   4.711  15.094  0.3570  0.1543  0.0382
12747TIP3    H159732   4.759   4.759  15.040  1.6148  1.8127 -0.0025
12747TIP3    H259733   4.830   4.764  15.173  2.2569  0.3554 -0.2694
12748TIP3   OH259734   6.731   3.735   2.538  0.2653  0.1141 -0.0863
12748TIP3    H159735   6.740   3.641   2.555  0.9410  0.0173 -0.9505
12748TIP3    H259736   6.682   3.768   2.614  0.0662 -0.9203  0.2530
12749TIP3   OH259737   4.712   1.071   5.335  0.0422 -0.9372  0.3341
12749TIP3    H159738   4.688   1.160   5.362 -0.3568 -1.3715  1.4343
12749TIP3    H259739   4.652   1.051   5.263 -0.7574 -0.8121  0.9526
12750TIP3   OH259740   0.782   3.677  13.007 -0.0199 -0.0680  0.1993
12750TIP3    H159741   0.787   3.696  12.914  2.3420 -2.0948 -0.1870
12750TIP3    H259742   0.849   3.732  13.047 -1.1876  0.9770  0.8031
12751TIP3   OH259743   3.315   1.424  14.623  0.2374 -0.2605 -0.1476
12751TIP3    H159744   3.385   1.411  14.560 -0.6839 -0.7266 -1.1006
12751TIP3    H259745   3.240   1.451  14.570 -0.1837  0.7227  0.9026
12752TIP3   OH259746   3.153   0.180  15.804 -0.3025  0.5439  0.3094
12752TIP3    H159747   3.180   0.253  15.749 -0.3358 -0.1147 -0.6103
12752TIP3    H259748   3.216   0.110  15.784 -1.5855 -0.4295 -0.5592
12753TIP3   OH259749   0.537   0.354   4.653  0.1627  0.1959  0.3159
12753TIP3    H159750   0.587   0.429   4.622  1.1195 -0.3678  0.4669
12753TIP3    H259751   0.467   0.392   4.707  2.0490  0.9026  2.4068
12754TIP3   OH259752   1.593   2.146  15.544 -0.1071  1.0684 -0.7016
12754TIP3    H159753   1.627   2.191  15.467 -1.4138  0.0265 -1.9514
12754TIP3    H259754   1.513   2.103  15.513 -0.4928  0.3495  1.1641
12755TIP3   OH259755   2.603   6.405  12.519  0.7080 -0.3767  0.1151
12755TIP3    H159756   2.643   6.456  12.448  0.9077 -1.2940 -0.4545
12755TIP3    H259757   2.676   6.385  12.578  0.3375  1.3880  1.2367
12756TIP3   OH259758   2.899   6.166  12.202  0.3456 -0.2967 -0.1506
12756TIP3    H159759   2.835   6.187  12.134  0.6098 -0.4829 -0.4633
12756TIP3    H259760   2.981   6.202  12.169  0.3500  0.1809  0.3755
12757TIP3   OH259761   2.792   4.202  12.838 -0.2673 -1.2605 -0.6423
12757TIP3    H159762   2.875   4.250  12.828 -0.8271 -0.2371 -0.5110
12757TIP3    H259763   2.727   4.259  12.798 -1.0214 -1.7334 -0.1102
12758TIP3   OH259764   3.223   2.959   3.433  0.0537  0.1326  0.4057
12758TIP3    H159765   3.226   3.004   3.517 -0.1388  1.2205 -0.1569
12758TIP3    H259766   3.157   2.891   3.444  0.4960 -0.1546  1.3333
12759TIP3   OH259767   6.589   0.065  16.668 -0.1486  0.0290  0.8359
12759TIP3    H159768   6.648   0.019  16.609 -1.5822 -0.0885 -0.5884
12759TIP3    H259769   6.591   0.156  16.638 -0.5577  0.0530  0.8768
12760TIP3   OH259770   4.401   5.136   4.445  0.4550  0.0579  0.2602
12760TIP3    H159771   4.410   5.041   4.440  1.1320  0.0709  0.9112
12760TIP3    H259772   4.434   5.168   4.361 -0.2220 -0.3051 -0.1460
12761TIP3   OH259773   4.295   5.982  14.703 -0.1245 -0.0903 -0.1529
12761TIP3    H159774   4.252   5.961  14.620 -0.4385  1.3447 -0.3932
12761TIP3    H259775   4.231   5.956  14.770 -0.3803 -0.1477 -0.4149
12762TIP3   OH259776   0.906   4.879   1.131  0.0804  0.2064 -0.6141
12762TIP3    H159777   0.898   4.817   1.203  2.4876  2.1451  1.5168
12762TIP3    H259778   0.833   4.940   1.143 -0.1280 -0.0766 -0.4534
12763TIP3   OH259779   3.040   1.998  11.950  0.0148  0.4287  0.3483
12763TIP3    H159780   3.028   2.049  12.030  1.3098  1.1539  0.0973
12763TIP3    H259781   3.078   2.059  11.887 -0.2510 -0.3384 -0.5824
12764TIP3   OH259782   3.188   3.783  14.213 -0.4767  0.1410 -0.3563
12764TIP3    H159783   3.222   3.819  14.296  0.3977  0.9690 -1.0507
12764TIP3    H259784   3.258   3.800  14.150 -1.0654 -0.6487 -1.2296
12765TIP3   OH259785   5.859   6.251   0.888  0.2023  0.2135 -0.0653
12765TIP3    H159786   5.864   6.192   0.963 -1.6970  1.5574  1.2257
12765TIP3    H259787   5.918   6.323   0.909 -0.3085  0.5759  0.1751
12766TIP3   OH259788   3.961   6.669   4.468 -0.7983 -0.3693 -0.4880
12766TIP3    H159789   3.987   6.728   4.397  0.3827 -1.7700 -1.2664
12766TIP3    H259790   4.032   6.673   4.531  1.1568 -3.5324 -2.2081
12767TIP3   OH259791   0.752   1.057   4.268 -0.3329 -0.3496  0.1569
12767TIP3    H159792   0.829   1.007   4.293 -1.8270 -2.9790 -0.0996
12767TIP3    H259793   0.774   1.148   4.288  3.7163 -0.5988 -2.1596
12768TIP3   OH259794   5.358   0.783   1.075  0.2159 -0.1178 -0.6782
12768TIP3    H159795   5.322   0.851   1.132  2.2483  0.0418  0.5376
12768TIP3    H259796   5.452   0.785   1.094  0.6360 -1.6279 -2.4170
12769TIP3   OH259797   1.366   3.071  17.183  0.4279 -0.4184 -0.3438
12769TIP3    H159798   1.332   3.089  17.270 -2.2923  0.2647 -1.4192
12769TIP3    H259799   1.304   3.007  17.147 -0.1791  1.3783 -2.7050
12770TIP3   OH259800   0.305   2.539   5.051  0.3661  0.2354  0.0043
12770TIP3    H159801   0.252   2.614   5.079  0.9368  0.4099  0.6308
12770TIP3    H259802   0.272   2.466   5.105 -0.8149 -0.2003 -1.2360
12771TIP3   OH259803   4.098   0.241   0.442  0.9662 -0.0381 -0.4679
12771TIP3    H159804   4.091   0.155   0.483 -0.2815  1.0670  1.8220
12771TIP3    H259805   4.038   0.297   0.492  1.8738  2.2193 -1.7446
12772TIP3   OH259806   0.597   0.280  12.110 -0.0343  0.8825 -0.1721
12772TIP3    H159807   0.508   0.250  12.128  0.2818 -0.1123 -0.2164
12772TIP3    H259808   0.585   0.357  12.054 -0.9348  2.1835  1.6719
12773TIP3   OH259809   5.981   3.315   2.239 -0.1128 -0.2026  0.4868
12773TIP3    H159810   6.032   3.244   2.280  0.5893  0.6393  1.1257
12773TIP3    H259811   5.951   3.368   2.313 -1.1026 -0.1377  0.0464
12774TIP3   OH259812   0.282   4.149   4.155  0.0572 -0.9297  0.8312
12774TIP3    H159813   0.270   4.113   4.243  0.9015 -0.5565  1.1125
12774TIP3    H259814   0.330   4.230   4.169  0.4425 -1.0042  0.0031
12775TIP3   OH259815   0.142   5.582  16.058  0.0057 -0.6182  0.5831
12775TIP3    H159816   0.093   5.664  16.063  0.1278 -0.5533  0.7029
12775TIP3    H259817   0.234   5.608  16.063  0.0334 -0.7908  1.0145
12776TIP3   OH259818   3.117   3.793  17.020 -0.1457  0.6378  0.1284
12776TIP3    H159819   3.109   3.826  17.109  0.0171 -0.2584  0.4753
12776TIP3    H259820   3.207   3.761  17.013  0.2244  1.7804 -0.7390
12777TIP3   OH259821   1.745   2.082  13.410  0.6581  0.4832 -0.8313
12777TIP3    H159822   1.700   2.153  13.455  2.8682  1.9986 -0.8181
12777TIP3    H259823   1.719   2.092  13.318  1.2298  1.6063 -0.8958
12778TIP3   OH259824   3.441   0.399  16.579  0.6651 -0.1571 -0.1943
12778TIP3    H159825   3.380   0.459  16.536 -0.9818 -0.9872  0.8643
12778TIP3    H259826   3.499   0.369  16.509 -0.6270  0.0974 -1.4178
12779TIP3   OH259827   0.131   3.711   5.086  0.1842  0.0301 -0.3535
12779TIP3    H159828   0.101   3.680   5.171 -1.2105  0.9364 -0.4923
12779TIP3    H259829   0.209   3.658   5.067 -1.4369 -2.6034 -0.0869
12780TIP3   OH259830   5.053   6.342   3.664 -0.0051  0.1008  0.7428
12780TIP3    H159831   5.109   6.418   3.646 -2.2294  1.5917 -0.3736
12780TIP3    H259832   5.012   6.362   3.748  0.4886 -0.5826  1.1527
12781TIP3   OH259833   6.026   6.003  16.346 -0.1255 -0.1295  0.6419
12781TIP3    H159834   6.058   5.991  16.256 -1.3396 -1.6755  0.3703
12781TIP3    H259835   6.105   6.009  16.399  0.6343 -1.2504 -0.3044
12782TIP3   OH259836   4.983   1.929  15.008 -0.1460  0.1772 -0.1030
12782TIP3    H159837   4.972   2.002  14.948 -0.4803  2.7717  2.8652
12782TIP3    H259838   4.894   1.897  15.024 -0.4405  1.5383  1.2459
12783TIP3   OH259839   5.998   5.512  14.241 -0.5005 -0.1107  0.4177
12783TIP3    H159840   6.022   5.473  14.325  1.9621  0.2501 -0.0332
12783TIP3    H259841   5.994   5.606  14.259  0.2645 -0.0112  0.1167
12784TIP3   OH259842   6.073   2.205   1.858  0.5451  0.3014  0.2701
12784TIP3    H159843   6.119   2.143   1.913  1.5875  0.9871  0.2051
12784TIP3    H259844   6.086   2.290   1.901 -0.2444  0.5776 -0.0140
12785TIP3   OH259845   1.270   6.820   4.783  0.0318  0.4458 -0.1133
12785TIP3    H159846   1.223   6.896   4.748  0.9674  1.4034  0.6079
12785TIP3    H259847   1.336   6.859   4.841  0.8147 -0.9120 -0.0656
12786TIP3   OH259848   1.671   2.623   1.776 -0.6403 -0.8471  0.6438
12786TIP3    H159849   1.764   2.645   1.772 -0.5895 -0.8923  1.3312
12786TIP3    H259850   1.646   2.602   1.686 -0.0447 -0.5999  0.4194
12787TIP3   OH259851   0.695   5.224   0.045 -1.1890 -0.1413  0.1728
12787TIP3    H159852   0.622   5.165   0.025 -1.5288 -0.1607  1.3409
12787TIP3    H259853   0.686   5.296  -0.017 -2.0165 -0.3060  0.0910
12788TIP3   OH259854   4.213   0.375   5.787 -0.3947  0.2745 -0.0041
12788TIP3    H159855   4.252   0.463   5.791  1.1344 -0.4096  0.9862
12788TIP3    H259856   4.259   0.325   5.855  0.5156 -1.9568 -2.1051
12789TIP3   OH259857   0.023   5.162  12.492 -0.4252  0.9185 -0.3610
12789TIP3    H159858  -0.038   5.173  12.419  0.9645  0.1709 -1.7011
12789TIP3    H259859   0.012   5.070  12.518 -0.1562  0.8922 -0.3426
12790TIP3   OH259860   2.691   5.262  13.791  0.2481  0.3031 -0.6034
12790TIP3    H159861   2.662   5.349  13.763 -1.3170 -0.5283 -1.6845
12790TIP3    H259862   2.732   5.224  13.713 -1.6718 -0.9941 -1.0407
12791TIP3   OH259863   6.392   1.440  12.418  0.5152  0.1949  0.4136
12791TIP3    H159864   6.345   1.419  12.499 -0.4860  0.4449 -0.0888
12791TIP3    H259865   6.381   1.535  12.409 -0.0158  0.0579 -0.4066
12792TIP3   OH259866   1.132   1.476  13.969  0.3632  0.3963 -0.4654
12792TIP3    H159867   1.167   1.515  14.049  1.5808 -2.8058  0.7183
12792TIP3    H259868   1.207   1.469  13.910  0.0959  0.1729 -0.7843
12793TIP3   OH259869   3.292   5.975  15.159 -0.1603  0.2192 -0.0846
12793TIP3    H159870   3.256   5.987  15.247  2.1036  1.4753  0.7537
12793TIP3    H259871   3.313   5.882  15.154 -0.7243  0.0527  0.5080
12794TIP3   OH259872   6.744   1.058   1.031 -0.3228  0.2762  0.0608
12794TIP3    H159873   6.813   1.054   0.965 -0.9965  1.0474 -0.7160
12794TIP3    H259874   6.673   1.006   0.994 -0.1431 -0.5543  0.8781
12795TIP3   OH259875   5.948   5.910  15.003 -0.0540 -0.2585 -0.0413
12795TIP3    H159876   5.899   5.954  14.934  2.3817  0.1038 -1.6341
12795TIP3    H259877   5.952   5.973  15.075 -1.5367 -0.1637 -0.0150
12796TIP3   OH259878   6.567   1.600   4.439  0.1411  0.0731  0.0695
12796TIP3    H159879   6.521   1.520   4.463  0.5215 -0.3394 -0.5352
12796TIP3    H259880   6.614   1.626   4.518  0.4183 -0.5904  0.1338
12797TIP3   OH259881   1.204   1.312   0.490  0.2511 -0.2916 -0.0892
12797TIP3    H159882   1.204   1.366   0.410  0.9115  0.1938  0.2312
12797TIP3    H259883   1.272   1.352   0.545  1.9190 -2.3937 -0.4951
12798TIP3   OH259884   1.798   6.682  13.347  0.7684 -0.6261  0.2117
12798TIP3    H159885   1.849   6.620  13.399  0.5246 -0.7472  0.3070
12798TIP3    H259886   1.728   6.630  13.309  0.6983 -0.4544  0.1042
12799TIP3   OH259887   6.684   3.076   1.096  0.1855 -0.3550  0.2370
12799TIP3    H159888   6.621   3.122   1.152  0.8479  0.3022  0.4606
12799TIP3    H259889   6.727   3.145   1.046  0.8852 -0.7712  0.2500
12800TIP3   OH259890   0.327   6.279  15.925  0.3614 -0.2745 -0.2205
12800TIP3    H159891   0.325   6.332  16.005 -1.0811 -1.6495  0.7367
12800TIP3    H259892   0.417   6.249  15.918  0.8465  1.0443  0.0548
12801TIP3   OH259893   5.058   6.595   1.180 -0.4629 -0.3898 -0.0563
12801TIP3    H159894   5.118   6.553   1.241 -1.5131  0.2491  1.4849
12801TIP3    H259895   4.979   6.612   1.231 -1.9415 -1.0846 -1.9762
12802TIP3   OH259896   2.130   5.439  14.358  0.8163  0.7979 -0.1367
12802TIP3    H159897   2.109   5.349  14.385  3.2349  0.0181 -0.6458
12802TIP3    H259898   2.207   5.462  14.409 -0.0857  2.8596  0.3965
12803TIP3   OH259899   1.200   0.619   5.608  0.5955  0.4250 -0.6653
12803TIP3    H159900   1.271   0.597   5.547 -0.2128 -1.4889 -0.9828
12803TIP3    H259901   1.197   0.545   5.669  0.4890  1.6556  0.9154
12804TIP3   OH259902   4.112   0.076   2.761 -0.3310  0.2378  0.3967
12804TIP3    H159903   4.049   0.004   2.755 -0.0646  0.0330  0.0050
12804TIP3    H259904   4.194   0.039   2.728 -0.1433  0.6670  0.3741
12805TIP3   OH259905   4.107   6.108  16.776  0.5930  0.2763  0.0989
12805TIP3    H159906   4.097   6.043  16.846  0.6023  0.5370  0.3450
12805TIP3    H259907   4.187   6.081  16.730  0.6793  0.1989  0.2931
12806TIP3   OH259908   4.115   0.438  12.516 -0.4398  0.0916  0.5536
12806TIP3    H159909   4.124   0.522  12.471  0.5004  0.0876  0.7184
12806TIP3    H259910   4.155   0.375  12.456  0.2503 -0.0067  1.1136
12807TIP3   OH259911   1.803   3.911  12.311 -0.1785  0.6780  0.9289
12807TIP3    H159912   1.831   3.852  12.241 -0.4020  0.6261  0.8817
12807TIP3    H259913   1.710   3.928  12.293  0.0185  1.4757  0.6347
12808TIP3   OH259914   6.396   1.758   4.685  0.3455 -0.1075  0.3862
12808TIP3    H159915   6.465   1.824   4.693 -1.4754  1.9258  0.4668
12808TIP3    H259916   6.407   1.702   4.762  2.6809 -0.6911 -0.3036
12809TIP3   OH259917   2.089   2.399  12.116  0.0647  0.4004 -0.0550
12809TIP3    H159918   2.046   2.327  12.163  1.6220  0.7230  1.9910
12809TIP3    H259919   2.022   2.432  12.056 -1.1737 -1.7454  0.0498
12810TIP3   OH259920   5.476   0.545   0.575 -0.4926 -0.5579 -0.8560
12810TIP3    H159921   5.399   0.586   0.535  0.1097 -2.2600 -4.0612
12810TIP3    H259922   5.549   0.568   0.517  1.1404 -0.4890  1.1125
12811TIP3   OH259923   0.890   5.456   5.841 -0.0223 -0.4511  0.1194
12811TIP3    H159924   0.961   5.490   5.895  1.7311 -1.2650 -1.5814
12811TIP3    H259925   0.861   5.531   5.789  0.5373 -0.4218 -0.1570
12812TIP3   OH259926   1.300   6.607   4.477  0.8205  0.3604  0.0451
12812TIP3    H159927   1.315   6.558   4.395  1.2107 -0.6625  0.7032
12812TIP3    H259928   1.221   6.658   4.460  1.3724  0.8182 -1.2654
12813TIP3   OH259929   3.199   0.277   5.625  0.5383  0.1237 -0.5092
12813TIP3    H159930   3.254   0.330   5.567 -0.2978  1.4297 -0.1558
12813TIP3    H259931   3.180   0.334   5.699  0.7764 -1.1882  0.5910
12814TIP3   OH259932   6.403   6.239   4.383 -0.4642 -0.2929 -0.5374
12814TIP3    H159933   6.428   6.248   4.291 -0.1626 -0.4458 -0.4710
12814TIP3    H259934   6.465   6.294   4.431 -1.9011  1.4728 -0.5893
12815TIP3   OH259935   5.319   2.919  13.997 -0.1915  0.8465 -0.0866
12815TIP3    H159936   5.327   2.905  13.903  0.4549 -0.0448  0.0827
12815TIP3    H259937   5.386   2.984  14.018  0.5483  0.1086 -0.0704
12816TIP3   OH259938   4.062   6.122  14.839  0.1053  0.5055  0.6770
12816TIP3    H159939   4.087   6.032  14.857 -1.5247 -0.0444  0.3308
12816TIP3    H259940   4.038   6.157  14.925  1.0433  0.7410  0.8618
12817TIP3   OH259941   4.153   5.197  15.931 -0.5383  0.3893 -0.2785
12817TIP3    H159942   4.142   5.103  15.940 -2.8663  0.6410  0.2301
12817TIP3    H259943   4.077   5.225  15.880 -0.8980  2.2022  1.1400
12818TIP3   OH259944   0.712   3.131  12.501 -0.3385 -0.5316 -0.0550
12818TIP3    H159945   0.676   3.218  12.484  1.2471  0.2628  0.4491
12818TIP3    H259946   0.674   3.105  12.584  0.7027  0.5847  0.8026
12819TIP3   OH259947   4.282   5.030   5.581  0.0948  0.1292 -0.1561
12819TIP3    H159948   4.294   5.082   5.661 -0.2993 -2.5054  1.7537
12819TIP3    H259949   4.363   5.041   5.532  0.5939  1.3398  0.8867
12820TIP3   OH259950   0.610   2.623  12.618 -0.5157  0.3212 -0.1409
12820TIP3    H159951   0.624   2.553  12.683  1.1423  2.2363  1.7320
12820TIP3    H259952   0.597   2.577  12.536  1.9310 -2.2188  0.7203
12821TIP3   OH259953   2.860   3.953   3.374  0.4588  0.1690 -0.3619
12821TIP3    H159954   2.952   3.951   3.399  0.3761  2.2208  0.3520
12821TIP3    H259955   2.812   3.954   3.457 -0.0469  1.9225 -0.6181
12822TIP3   OH259956   2.854   2.600   3.130 -0.3028  0.0717 -0.1796
12822TIP3    H159957   2.770   2.638   3.104 -0.0411  0.2966 -0.7066
12822TIP3    H259958   2.899   2.671   3.177 -0.4300 -0.0704  0.1626
12823TIP3   OH259959   3.514   3.771  15.187 -0.0434 -0.6187  0.0730
12823TIP3    H159960   3.438   3.727  15.150  0.7494 -1.9780 -0.0120
12823TIP3    H259961   3.584   3.755  15.124  0.6485 -0.5848  0.8129
12824TIP3   OH259962   1.915   4.548  12.964 -0.8100  0.5978  0.1245
12824TIP3    H159963   1.885   4.632  12.929  1.0987  0.6918 -1.4434
12824TIP3    H259964   1.923   4.492  12.886 -2.3526 -1.1797  1.1702
12825TIP3   OH259965   0.293   5.099  14.752  0.2835  0.1092  0.5547
12825TIP3    H159966   0.334   5.073  14.670 -0.2218 -0.8311  0.5818
12825TIP3    H259967   0.242   5.023  14.779 -0.2143  0.6879  1.3253
12826TIP3   OH259968   1.284   1.652   1.068 -0.1686  0.4969 -0.4854
12826TIP3    H159969   1.350   1.642   1.137 -0.0920 -0.6317 -0.6987
12826TIP3    H259970   1.324   1.709   1.003  0.0248  1.0051  0.0673
12827TIP3   OH259971   5.905   2.101   2.188  0.0277  0.4695  0.6231
12827TIP3    H159972   5.953   2.183   2.174  1.9263 -0.8963 -1.6137
12827TIP3    H259973   5.885   2.069   2.100  0.1326 -1.9043  1.3799
12828TIP3   OH259974   3.648   6.325  13.582  0.1628  0.4763 -0.1848
12828TIP3    H159975   3.697   6.341  13.502  1.3309 -0.6639  0.2681
12828TIP3    H259976   3.607   6.240  13.569 -1.9008  1.4509 -0.6089
12829TIP3   OH259977   3.149   4.238  12.611 -0.2956 -0.0439 -0.4736
12829TIP3    H159978   3.227   4.210  12.565  0.3469 -1.7710  1.5306
12829TIP3    H259979   3.091   4.162  12.609 -0.4296 -0.0263  1.0894
12830TIP3   OH259980   6.164   2.209  11.074 -0.6900  0.2523 -0.2908
12830TIP3    H159981   6.259   2.210  11.060 -0.4410 -0.9193  1.0500
12830TIP3    H259982   6.126   2.213  10.986  0.5861  0.8413 -0.8393
12831TIP3   OH259983   1.483   6.660  13.479 -0.5767  0.1678 -0.1450
12831TIP3    H159984   1.499   6.691  13.390 -1.4348  0.5295 -0.1857
12831TIP3    H259985   1.532   6.579  13.486 -0.8765 -0.1053 -1.1108
12832TIP3   OH259986   0.237   0.948   0.898 -0.2401 -0.5825 -0.2434
12832TIP3    H159987   0.302   1.017   0.896 -0.2759 -0.5305  0.3132
12832TIP3    H259988   0.192   0.954   0.813 -0.8070  0.6152  0.1297
12833TIP3   OH259989   6.010   0.215   4.430  0.1728 -0.0886 -0.5934
12833TIP3    H159990   5.989   0.122   4.422  0.5864 -0.0876 -2.0789
12833TIP3    H259991   5.995   0.236   4.522 -0.5806 -1.4613 -0.3834
12834TIP3   OH259992   2.140   0.258   6.222  0.4511  0.5323  0.2997
12834TIP3    H159993   2.061   0.206   6.239  0.6574  0.4935  1.2199
12834TIP3    H259994   2.160   0.299   6.307  0.3676  2.0176 -0.3669
12835TIP3   OH259995   3.294   2.172  12.793  0.7257 -0.0897 -0.7087
12835TIP3    H159996   3.281   2.267  12.799  0.2234 -0.1364 -0.9836
12835TIP3    H259997   3.273   2.151  12.701  0.4439 -0.5234 -0.5486
12836TIP3   OH259998   3.159   2.223  15.817 -0.3176  0.0008  0.0220
12836TIP3    H159999   3.150   2.246  15.724 -1.6437  1.1529  0.4111
12836TIP3    H260000   3.247   2.186  15.823 -0.4212 -0.6613 -1.7984
12837TIP3   OH260001   2.124   2.809  14.045 -0.0542  0.1174 -0.0090
12837TIP3    H160002   2.179   2.848  13.977  1.7833 -1.7195  0.3413
12837TIP3    H260003   2.040   2.792  14.001  0.2890  1.1423 -1.1189
12838TIP3   OH260004   1.878   5.302  15.928  0.0043 -0.6736 -0.3348
12838TIP3    H160005   1.866   5.323  15.836  0.9781  0.7656 -0.1711
12838TIP3    H260006   1.948   5.361  15.957 -3.3076  2.3254  2.4555
12839TIP3   OH260007   6.164   2.643   4.449  0.1896 -0.3836 -0.2267
12839TIP3    H160008   6.115   2.681   4.376 -0.0428 -0.6006 -0.1865
12839TIP3    H260009   6.231   2.588   4.408  1.6339  1.3661 -0.3313
12840TIP3   OH260010   2.101   1.866  14.927 -0.2535 -0.7290  0.1032
12840TIP3    H160011   2.132   1.865  15.018  2.1209 -0.2446 -0.6313
12840TIP3    H260012   2.140   1.945  14.890 -0.9039 -1.1019 -1.4487
12841TIP3   OH260013   1.112   3.625  12.979  0.0698 -0.6873  0.2463
12841TIP3    H160014   1.120   3.717  13.004  0.0213 -0.7088  0.3436
12841TIP3    H260015   1.166   3.616  12.901  1.9593 -1.0734  1.5154
12842TIP3   OH260016   6.165   5.572  14.737 -0.4277 -0.1523 -0.2954
12842TIP3    H160017   6.122   5.526  14.809 -1.8579  1.1175 -0.2911
12842TIP3    H260018   6.222   5.636  14.780 -2.2808  1.5275 -0.2041
12843TIP3   OH260019   1.920   5.328   2.607  0.3447 -0.0157  0.8008
12843TIP3    H160020   1.921   5.287   2.520  0.1094  1.1216  0.2492
12843TIP3    H260021   1.988   5.395   2.602  1.5429 -1.0891  2.0832
12844TIP3   OH260022   0.203   0.915  11.060  0.4002  0.1385  0.0067
12844TIP3    H160023   0.285   0.942  11.100  1.3663  0.2077 -1.8921
12844TIP3    H260024   0.179   0.834  11.106  0.9998  0.6314  1.2242
12845TIP3   OH260025   0.722   1.459  17.300  0.1847  0.5896 -0.6822
12845TIP3    H160026   0.671   1.535  17.272 -0.4879  0.3233 -0.2158
12845TIP3    H260027   0.660   1.408  17.353  0.4964 -0.4925 -1.3442
12846TIP3   OH260028   1.639   0.448  12.007  0.4546  0.5517 -0.3324
12846TIP3    H160029   1.735   0.445  11.998  0.6863  0.0587  1.8074
12846TIP3    H260030   1.624   0.499  12.086 -1.0805  0.5360 -0.5785
12847TIP3   OH260031   6.740   5.360  10.214 -0.6936 -0.0657 -0.0928
12847TIP3    H160032   6.676   5.364  10.285 -0.7172 -0.2311 -0.1047
12847TIP3    H260033   6.812   5.309  10.250 -0.6624 -0.0647 -0.1541
12848TIP3   OH260034   6.721   0.035   0.835 -0.0322 -0.0798 -0.2930
12848TIP3    H160035   6.778   0.081   0.896 -0.8316 -1.7955  1.8814
12848TIP3    H260036   6.772   0.030   0.754  1.8933  0.6020  0.8070
12849TIP3   OH260037   3.882   2.957  14.295  0.2377  0.0655  0.1886
12849TIP3    H160038   3.849   3.028  14.239 -0.8095  0.0097  0.7237
12849TIP3    H260039   3.852   2.979  14.383  0.7547 -0.5395  0.5274
12850TIP3   OH260040   4.715   2.197   3.601 -0.3939 -0.3494 -0.0922
12850TIP3    H160041   4.623   2.181   3.580 -0.1218  0.7520 -2.4467
12850TIP3    H260042   4.743   2.119   3.649 -1.5597 -2.5572 -2.7315
12851TIP3   OH260043   4.271   1.529  16.425 -0.6083  0.2496  0.3072
12851TIP3    H160044   4.216   1.454  16.445 -1.5878  0.5209 -1.1732
12851TIP3    H260045   4.211   1.594  16.390  0.2302  1.7202  1.4873
12852TIP3   OH260046   1.599   3.605  13.346 -0.0548  0.0475 -0.8261
12852TIP3    H160047   1.605   3.696  13.315  2.3422  0.7649  1.3562
12852TIP3    H260048   1.560   3.614  13.434  1.3788 -0.8298 -0.0661
12853TIP3   OH260049   2.761   2.576   2.790 -0.3897 -0.4829  0.3619
12853TIP3    H160050   2.691   2.603   2.730  0.2956  0.9043  0.1560
12853TIP3    H260051   2.716   2.521   2.854 -1.4033 -0.8141 -0.5919
12854TIP3   OH260052   0.769   0.034   6.015 -0.0603  0.0486  0.4754
12854TIP3    H160053   0.815   0.080   5.944 -1.1664 -1.5633 -1.3977
12854TIP3    H260054   0.684   0.077   6.020  0.4631  0.9990  1.7853
12855TIP3   OH260055   2.171   4.610  13.037 -0.5380 -0.2544 -0.3483
12855TIP3    H160056   2.173   4.671  13.110  0.5606 -1.8539  1.0165
12855TIP3    H260057   2.078   4.588  13.027 -0.7534  0.3497  0.2385
12856TIP3   OH260058   6.493   0.180   1.287 -0.0456 -0.5894 -0.1700
12856TIP3    H160059   6.489   0.265   1.331  0.0528  0.4258 -2.0274
12856TIP3    H260060   6.401   0.154   1.278 -0.1055 -0.4029 -0.1046
12857TIP3   OH260061   0.819   1.826  11.035 -0.2504  0.9163 -0.5034
12857TIP3    H160062   0.831   1.919  11.016  0.7551  0.6763 -1.1495
12857TIP3    H260063   0.751   1.798  10.974 -0.9545  1.3411  0.0773
12858TIP3   OH260064   0.303   4.922  12.059 -0.4207 -0.0933 -0.6115
12858TIP3    H160065   0.366   4.868  12.010  1.1757  1.3353 -0.2254
12858TIP3    H260066   0.253   4.858  12.111  2.9289 -1.2237  1.6258
12859TIP3   OH260067   1.804   3.032  16.595 -0.1946  0.5290  0.1597
12859TIP3    H160068   1.859   3.096  16.550  0.1966  0.4182  0.4758
12859TIP3    H260069   1.789   2.963  16.531 -0.6231  0.9350 -0.1866
12860TIP3   OH260070   1.565   5.562  17.171  0.0123 -0.0864 -0.1375
12860TIP3    H160071   1.590   5.611  17.093 -1.7293  0.2994 -0.4757
12860TIP3    H260072   1.641   5.506  17.189  1.5740  1.7947 -0.4649
12861TIP3   OH260073   6.534   1.754   1.450 -0.2046 -0.3690  0.9352
12861TIP3    H160074   6.628   1.763   1.435 -0.5897 -0.1905 -1.7978
12861TIP3    H260075   6.512   1.667   1.418 -0.9690 -0.4915  1.7369
12862TIP3   OH260076   4.358   3.774   0.956  0.1254 -0.1597 -0.7148
12862TIP3    H160077   4.425   3.743   0.895  1.5585  2.8408 -0.8465
12862TIP3    H260078   4.404   3.779   1.040 -0.3466  0.6220 -0.4996
12863TIP3   OH260079   3.465   3.332  12.844  0.4425 -0.6300 -0.1516
12863TIP3    H160080   3.415   3.339  12.762 -0.6645  0.1014  0.5671
12863TIP3    H260081   3.551   3.366  12.822  1.0406 -2.8736 -1.6967
12864TIP3   OH260082   0.590   6.767   1.206  0.8097 -0.3697 -0.2030
12864TIP3    H160083   0.586   6.713   1.285 -0.0898  2.9182  2.2122
12864TIP3    H260084   0.683   6.790   1.198  0.7565  0.1027  0.5023
12865TIP3   OH260085   2.087   3.734  11.472 -0.3050 -0.0821 -0.0408
12865TIP3    H160086   2.082   3.776  11.386 -0.6272 -0.6437 -0.2977
12865TIP3    H260087   2.047   3.797  11.532 -0.1745  0.2670 -0.3146
12866TIP3   OH260088   3.682   2.057   6.303  1.0810 -0.8092 -0.4480
12866TIP3    H160089   3.625   2.005   6.360  2.1944 -1.5864 -0.0152
12866TIP3    H260090   3.628   2.133   6.279 -0.6703 -2.2360 -1.2743
12867TIP3   OH260091   6.310   2.341   2.367  0.9918  0.1269 -0.1348
12867TIP3    H160092   6.403   2.345   2.390  1.1880  0.8821 -0.9715
12867TIP3    H260093   6.307   2.291   2.286  0.6043 -0.3572  0.1760
12868TIP3   OH260094   5.767   2.935   2.353  0.1502 -0.1342  0.4023
12868TIP3    H160095   5.685   2.900   2.318  0.3716  0.6577 -0.9600
12868TIP3    H260096   5.746   2.956   2.445 -0.8124 -1.0501  0.4216
12869TIP3   OH260097   5.978   2.172  17.159 -0.1238  0.0989 -0.0620
12869TIP3    H160098   5.894   2.185  17.203 -1.3838 -0.1723 -2.2225
12869TIP3    H260099   5.982   2.243  17.094 -0.0614 -1.4955 -1.8974
12870TIP3   OH260100   3.738   3.178   4.464  0.2572 -0.4195 -0.1951
12870TIP3    H160101   3.818   3.159   4.512  1.2952  2.1224 -0.7476
12870TIP3    H260102   3.767   3.235   4.392 -2.0530  0.6615 -0.3411
12871TIP3   OH260103   3.982   5.953   3.364 -0.3790  0.5232 -0.3915
12871TIP3    H160104   3.896   5.953   3.407  0.0822 -0.0204  0.5896
12871TIP3    H260105   3.967   5.990   3.277 -1.3192  1.8943  0.3231
12872TIP3   OH260106   5.543   2.850   4.381  0.0744  0.8013 -0.0588
12872TIP3    H160107   5.486   2.785   4.339 -0.5535  0.7407  0.8320
12872TIP3    H260108   5.529   2.836   4.475  1.4978  0.8645  0.1841
12873TIP3   OH260109   1.155   4.917   6.107 -0.5715  0.2341 -0.0188
12873TIP3    H160110   1.120   5.006   6.106 -1.8438 -0.2586 -0.1076
12873TIP3    H260111   1.119   4.878   6.187  0.3274 -0.0751  0.2480
12874TIP3   OH260112   5.855   6.515  11.532 -0.2428  0.7791 -0.3687
12874TIP3    H160113   5.853   6.595  11.586 -0.2130  0.0742  0.7047
12874TIP3    H260114   5.907   6.539  11.456  0.7379  1.4652  0.4855
12875TIP3   OH260115   2.750   1.666   3.057  0.5842  0.4295  0.4620
12875TIP3    H160116   2.792   1.604   2.997 -2.1395 -0.2068 -0.9353
12875TIP3    H260117   2.671   1.622   3.086  1.3059  1.1229  3.9106
12876TIP3   OH260118   3.488   5.492   0.167 -0.1078  0.7051  0.1501
12876TIP3    H160119   3.414   5.497   0.227  0.4544  1.2026  0.8196
12876TIP3    H260120   3.523   5.581   0.165  0.7456  0.3787  0.2057
12877TIP3   OH260121   1.817   0.203  14.298  0.2815 -0.6836 -0.3857
12877TIP3    H160122   1.724   0.210  14.278  0.3198  0.1308 -0.3081
12877TIP3    H260123   1.821   0.204  14.394  0.1729 -3.5821 -0.2471
12878TIP3   OH260124   4.206   4.740  12.256 -0.3991  0.1357  0.2228
12878TIP3    H160125   4.110   4.740  12.251 -0.4785  0.4224  1.5272
12878TIP3    H260126   4.232   4.824  12.218 -0.6605  0.0989 -0.0472
12879TIP3   OH260127   6.622   0.419  13.541 -0.2373 -0.3230 -0.3458
12879TIP3    H160128   6.591   0.462  13.462 -1.4847 -1.8220 -0.7180
12879TIP3    H260129   6.670   0.342  13.509  0.9490  0.1064  0.3287
12880TIP3   OH260130   3.738   5.895   0.380 -0.2644  0.0088 -0.2161
12880TIP3    H160131   3.753   5.835   0.453 -0.3924 -1.2255 -1.1699
12880TIP3    H260132   3.755   5.982   0.416 -0.8270 -0.5239  1.4115
12881TIP3   OH260133   3.413   2.088   6.631  0.1355  0.4673  0.0124
12881TIP3    H160134   3.464   2.032   6.573  1.1089  0.4007  0.8975
12881TIP3    H260135   3.355   2.028   6.678  0.0008  0.4038 -0.2376
12882TIP3   OH260136   1.241   5.940   1.236 -0.3206  0.0579  0.3545
12882TIP3    H160137   1.201   5.856   1.217 -0.4733  0.3403 -0.6335
12882TIP3    H260138   1.315   5.946   1.175 -0.6432  0.8755  0.0326
12883TIP3   OH260139   2.007   6.178   5.176 -0.3219  0.0605  0.2833
12883TIP3    H160140   1.941   6.222   5.230 -0.4888  0.6239 -0.3540
12883TIP3    H260141   2.007   6.088   5.207 -3.1281 -0.5810 -1.2217
12884TIP3   OH260142   4.452   0.904   3.234  0.5201  0.0726 -0.6019
12884TIP3    H160143   4.507   0.960   3.179 -0.3775  1.6147  0.0100
12884TIP3    H260144   4.441   0.953   3.315 -1.3179 -0.4171 -0.5048
12885TIP3   OH260145   1.330   4.318  13.449  0.1977  0.4085 -0.5645
12885TIP3    H160146   1.391   4.296  13.379 -1.3806 -0.8204 -1.6076
12885TIP3    H260147   1.245   4.287  13.418 -0.6169  0.1427  1.7484
12886TIP3   OH260148   2.984   3.085  16.392 -0.3922 -0.1551 -0.5614
12886TIP3    H160149   2.955   3.162  16.440 -1.2803  0.2416 -1.6734
12886TIP3    H260150   3.026   3.121  16.313  0.8069 -0.7870 -0.2333
12887TIP3   OH260151   2.642   5.482  10.829 -0.1333  0.6310 -0.3501
12887TIP3    H160152   2.607   5.490  10.740  1.3951  0.3617 -1.0163
12887TIP3    H260153   2.627   5.390  10.852  2.7181 -0.3228 -1.8496
12888TIP3   OH260154   6.177   6.417   4.848  0.1646  0.1246  0.3537
12888TIP3    H160155   6.085   6.391   4.852  0.0915  0.5043  1.6487
12888TIP3    H260156   6.225   6.337   4.867  0.0887  0.0172  0.0972
12889TIP3   OH260157   6.364   6.597   6.686 -0.1725 -1.0759  0.5215
12889TIP3    H160158   6.433   6.660   6.709  0.4157 -1.0413 -1.1898
12889TIP3    H260159   6.287   6.629   6.732  0.0110  1.1957 -0.5704
12890TIP3   OH260160   1.330   4.424   5.708  0.4522 -0.3155 -0.2233
12890TIP3    H160161   1.350   4.435   5.801  1.8439 -2.8812 -0.1273
12890TIP3    H260162   1.234   4.425   5.704  0.3646 -0.2494  1.2419
12891TIP3   OH260163   3.454   6.509  16.069  0.0582  0.4531  0.2295
12891TIP3    H160164   3.531   6.455  16.051  0.3856  0.4669  1.4959
12891TIP3    H260165   3.381   6.460  16.033  0.7116  0.7320 -1.5580
12892TIP3   OH260166   5.948   5.462  13.282 -0.0564 -0.7120  0.0275
12892TIP3    H160167   5.897   5.467  13.201  0.6904 -3.8159 -0.7873
12892TIP3    H260168   6.038   5.451  13.253  0.2709 -1.4921  1.2642
12893TIP3   OH260169   5.212   3.091   4.554 -0.3075  0.1070 -0.2471
12893TIP3    H160170   5.230   3.157   4.621  1.7169 -0.1707 -0.4572
12893TIP3    H260171   5.188   3.012   4.603 -0.1283  0.2627  0.0963
12894TIP3   OH260172   1.245   5.427  15.134 -0.4519 -0.5258 -0.1520
12894TIP3    H160173   1.253   5.511  15.089 -1.7255  0.2619  1.0373
12894TIP3    H260174   1.329   5.383  15.118  0.9056  1.6561  0.5926
12895TIP3   OH260175   3.649   4.326   5.549 -0.2172  0.1817  0.3115
12895TIP3    H160176   3.709   4.297   5.480  1.5650 -0.7044  2.1279
12895TIP3    H260177   3.572   4.358   5.502  1.3072  0.5572 -2.1078
12896TIP3   OH260178   1.671   1.149  15.090  0.0657  0.2152  0.6518
12896TIP3    H160179   1.725   1.224  15.065 -0.6793  0.7414  0.5682
12896TIP3    H260180   1.585   1.169  15.051 -0.0980 -0.7548  0.5073
12897TIP3   OH260181   2.737   3.579   1.172  0.1996 -0.0212 -0.0227
12897TIP3    H160182   2.661   3.636   1.177  0.5154  0.3516  0.6000
12897TIP3    H260183   2.812   3.639   1.169  0.5099 -0.3967  0.1903
12898TIP3   OH260184   2.412   4.194  16.047 -0.5259  0.1036 -0.1690
12898TIP3    H160185   2.456   4.262  16.099 -1.8241  0.3788  0.6266
12898TIP3    H260186   2.397   4.235  15.962  1.7212 -0.3882 -0.8669
12899TIP3   OH260187   3.985   5.744   6.445 -0.8071 -0.1262  0.0197
12899TIP3    H160188   3.916   5.786   6.394  0.0364  1.0370 -0.1988
12899TIP3    H260189   3.962   5.651   6.443 -0.8179 -0.1392 -2.4573
12900TIP3   OH260190   2.697   3.559   3.297 -0.2333 -0.2105 -0.2899
12900TIP3    H160191   2.650   3.635   3.330 -1.2020 -1.7748  2.2473
12900TIP3    H260192   2.788   3.575   3.321 -0.4296  0.1555  0.2431
12901TIP3   OH260193   6.789   5.511  11.157 -0.2567 -0.1796  0.3449
12901TIP3    H160194   6.814   5.513  11.065  0.6775  1.1197  0.5989
12901TIP3    H260195   6.868   5.481  11.202 -0.4938 -0.1631  0.7754
12902TIP3   OH260196   0.889   0.343  14.537 -0.0907 -0.4344  0.2712
12902TIP3    H160197   0.813   0.351  14.479 -1.5337 -1.3602  1.9432
12902TIP3    H260198   0.930   0.261  14.513 -0.3128 -0.5038  0.1294
12903TIP3   OH260199   6.583   3.537   3.826 -0.7914  0.1469  0.0766
12903TIP3    H160200   6.499   3.533   3.781 -1.4330 -0.1537  1.2545
12903TIP3    H260201   6.585   3.459   3.881  0.2527  0.1672  0.0937
12904TIP3   OH260202   6.270   5.359  15.203  0.6307 -0.1691  0.2492
12904TIP3    H160203   6.319   5.305  15.265 -0.1389 -1.1956 -0.0193
12904TIP3    H260204   6.319   5.352  15.121  2.6770  2.6135  1.0613
12905TIP3   OH260205   1.915   5.170   1.970  0.4638 -0.3218 -0.0881
12905TIP3    H160206   1.824   5.198   1.964  0.8185  0.8576 -0.2568
12905TIP3    H260207   1.915   5.081   1.936 -1.1649 -1.5924  2.8474
12906TIP3   OH260208   4.700   0.553  12.384  0.4899 -0.3198  0.5310
12906TIP3    H160209   4.649   0.573  12.462 -0.4228 -1.9547  0.3878
12906TIP3    H260210   4.658   0.603  12.314 -1.0780 -1.7826  0.3754
12907TIP3   OH260211   2.321   3.114   5.801 -0.0823 -0.0361 -0.4475
12907TIP3    H160212   2.372   3.190   5.773  0.4242 -0.4832 -0.7655
12907TIP3    H260213   2.296   3.134   5.891  3.4989 -1.1933  0.9752
12908TIP3   OH260214   1.103   1.475  13.126 -0.0236 -0.1708 -0.3171
12908TIP3    H160215   1.080   1.534  13.198  1.1879  1.0102 -0.8551
12908TIP3    H260216   1.198   1.464  13.134 -0.0792 -1.1645 -0.9012
12909TIP3   OH260217   4.949   1.247   1.939  0.0287  0.2785 -0.0802
12909TIP3    H160218   5.024   1.189   1.924 -1.2133 -1.1941 -0.7571
12909TIP3    H260219   4.874   1.189   1.948 -1.6859  1.7550 -3.1131
12910TIP3   OH260220   2.414   6.062   0.758 -0.1766  0.0771 -0.4689
12910TIP3    H160221   2.481   6.023   0.702 -0.2504 -0.1929 -0.3727
12910TIP3    H260222   2.361   6.116   0.699 -0.5208 -0.5493 -0.7418
12911TIP3   OH260223   5.087   6.307  14.932 -0.5321 -0.0658 -0.6378
12911TIP3    H160224   5.039   6.384  14.964 -2.2333 -1.5620  0.5944
12911TIP3    H260225   5.173   6.342  14.907 -1.2546  2.2376 -0.2051
12912TIP3   OH260226   6.342   6.637  12.529 -0.0712  0.3146 -0.4221
12912TIP3    H160227   6.382   6.611  12.612 -0.5732 -0.0099 -0.2809
12912TIP3    H260228   6.287   6.712  12.551 -0.7377 -0.1963 -0.3331
12913TIP3   OH260229   4.341   1.536  13.631  0.3062  0.0513 -0.2251
12913TIP3    H160230   4.379   1.449  13.617 -0.0307 -0.0207 -0.7475
12913TIP3    H260231   4.259   1.519  13.677  0.9046  0.2083  0.9302
12914TIP3   OH260232   3.387   6.371  12.244 -0.3886  0.2133  0.1127
12914TIP3    H160233   3.404   6.396  12.335 -0.5574 -0.8993  0.4577
12914TIP3    H260234   3.408   6.450  12.194  0.3203  0.6408  1.0524
12915TIP3   OH260235   3.143   6.023  14.600 -0.1280 -0.4007  0.3630
12915TIP3    H160236   3.102   5.938  14.620 -0.2309 -0.8583 -1.5630
12915TIP3    H260237   3.126   6.077  14.677 -1.7974 -1.5171  0.8295
12916TIP3   OH260238   2.398   6.455  16.307 -0.0909 -0.1197 -0.1156
12916TIP3    H160239   2.313   6.443  16.350  0.1581 -0.8397  0.1871
12916TIP3    H260240   2.376   6.481  16.218 -0.6169  0.8574  0.2914
12917TIP3   OH260241   3.735   1.069   4.104 -0.1093 -0.0227  0.0863
12917TIP3    H160242   3.827   1.093   4.107 -0.0797 -0.1842  1.7808
12917TIP3    H260243   3.695   1.134   4.047  0.8401  0.8569  0.3914
12918TIP3   OH260244   5.771   2.108  16.160 -0.6296  0.5119  0.0981
12918TIP3    H160245   5.817   2.026  16.144 -0.4092  0.4831  0.8572
12918TIP3    H260246   5.764   2.114  16.255  0.1533  1.7920  0.1075
12919TIP3   OH260247   5.968   1.880   4.761 -0.3429 -0.1469  0.4784
12919TIP3    H160248   6.055   1.867   4.800  0.5257  0.4305 -1.1840
12919TIP3    H260249   5.953   1.974   4.769 -0.5320 -0.1543  0.1829
12920TIP3   OH260250   3.105   1.892  12.895  0.0118  0.0109 -0.0747
12920TIP3    H160251   3.030   1.859  12.945  0.7974 -0.9678  0.5082
12920TIP3    H260252   3.144   1.813  12.857 -0.0814  0.6658 -1.5634
12921TIP3   OH260253   5.946   6.533   4.292  0.2274  0.1823  0.7035
12921TIP3    H160254   5.903   6.460   4.337 -1.2744  1.2077  0.9794
12921TIP3    H260255   6.035   6.500   4.274 -0.1715 -1.4349  1.4695
12922TIP3   OH260256   2.783   2.202  15.071  0.1591 -0.4133 -0.3735
12922TIP3    H160257   2.855   2.261  15.095  1.0418 -1.4276 -0.3995
12922TIP3    H260258   2.798   2.182  14.979 -0.6535  0.0262 -0.6006
12923TIP3   OH260259   5.701   3.086   6.021 -0.3290 -0.5322 -0.0858
12923TIP3    H160260   5.749   3.037   6.088 -0.1579 -0.6905 -0.3213
12923TIP3    H260261   5.609   3.067   6.039 -0.3146 -0.0362  0.5131
12924TIP3   OH260262   0.921   2.521  14.004  0.3311 -0.6372  0.5076
12924TIP3    H160263   0.919   2.523  14.100 -0.8453 -1.6130  0.5223
12924TIP3    H260264   0.911   2.429  13.982 -1.5480 -0.2068 -0.5876
12925TIP3   OH260265   2.486   5.973   5.272  0.1549  0.1973 -0.6373
12925TIP3    H160266   2.556   5.912   5.298  0.4973  0.7666 -0.2079
12925TIP3    H260267   2.409   5.917   5.260  0.3463 -0.2594  0.2153
12926TIP3   OH260268   1.564   5.278   1.174  0.2026  0.0224 -0.0669
12926TIP3    H160269   1.604   5.261   1.259  0.1056 -0.3890 -0.0997
12926TIP3    H260270   1.621   5.343   1.132 -0.0326  0.6170  0.5159
12927TIP3   OH260271   4.109   0.730  12.671 -0.4647 -0.2330 -0.4791
12927TIP3    H160272   4.049   0.705  12.600  0.1464 -1.5273 -0.5499
12927TIP3    H260273   4.101   0.660  12.735 -0.0816  0.3106  0.1765
12928TIP3   OH260274   5.958   2.627  11.135  0.1419 -0.2920 -0.1187
12928TIP3    H160275   5.915   2.686  11.197  0.6885 -0.4835  0.4480
12928TIP3    H260276   5.890   2.607  11.070 -0.6943 -0.7626  0.8719
12929TIP3   OH260277   4.439   0.595   3.719  0.5034  0.3851  0.4780
12929TIP3    H160278   4.350   0.592   3.754  0.1361 -0.3247 -0.4849
12929TIP3    H260279   4.493   0.554   3.787 -0.2572 -1.3188  0.0958
12930TIP3   OH260280   3.043   4.236  10.542  0.1126 -0.0046 -0.0430
12930TIP3    H160281   2.958   4.278  10.529  1.0147  1.5015 -1.5481
12930TIP3    H260282   3.031   4.147  10.510 -0.5817  0.5674 -1.4773
12931TIP3   OH260283   2.832   4.605  12.820 -0.6206  0.0872  0.0893
12931TIP3    H160284   2.742   4.586  12.793 -1.2511  2.4755  0.2825
12931TIP3    H260285   2.886   4.551  12.762 -2.1347 -0.4981 -0.8504
12932TIP3   OH260286   3.608   6.234  14.152 -0.2959 -0.3596 -0.1617
12932TIP3    H160287   3.534   6.227  14.212 -1.0370 -2.1939 -1.1834
12932TIP3    H260288   3.576   6.288  14.080  0.0996  0.6276  0.3935
12933TIP3   OH260289   4.220   6.696  10.934 -0.0536 -0.7579  0.2108
12933TIP3    H160290   4.257   6.613  10.964  1.8349  0.6110  1.8902
12933TIP3    H260291   4.126   6.687  10.950  0.3570 -1.8074  2.3635
12934TIP3   OH260292   4.714   4.267  10.340  0.0781  0.0760 -0.2302
12934TIP3    H160293   4.686   4.306  10.257 -0.1797  2.1325  0.7631
12934TIP3    H260294   4.659   4.189  10.349 -1.1899  0.8303 -1.1247
12935TIP3   OH260295   0.509   3.887  12.963  0.1549 -0.1658  0.0175
12935TIP3    H160296   0.576   3.950  12.937 -0.1335  1.1185  2.1277
12935TIP3    H260297   0.535   3.858  13.050 -1.4462 -0.4580  0.4369
12936TIP3   OH260298   0.657   5.596  12.273 -0.0721  0.5195 -0.6401
12936TIP3    H160299   0.725   5.663  12.264  0.5747 -0.1318 -0.6747
12936TIP3    H260300   0.584   5.628  12.220 -0.1566  1.6886  0.1607
12937TIP3   OH260301   2.866   3.433  15.085 -0.5620  0.1198  0.0524
12937TIP3    H160302   2.950   3.399  15.116 -0.4223 -1.2106 -1.6662
12937TIP3    H260303   2.808   3.356  15.083 -1.6178  0.8722  0.4760
12938TIP3   OH260304   5.105   1.132   4.170  0.3214 -0.4782  0.2535
12938TIP3    H160305   5.122   1.225   4.181  0.4470 -0.4465 -0.1888
12938TIP3    H260306   5.077   1.102   4.257 -0.3409  0.1027  0.2529
12939TIP3   OH260307   2.283   1.907   5.477 -0.0041 -0.1515 -0.3040
12939TIP3    H160308   2.256   1.999   5.474  2.0230  0.4574 -1.0986
12939TIP3    H260309   2.334   1.899   5.558  0.7003 -0.3094 -0.7564
12940TIP3   OH260310   0.359   1.816  12.873 -0.8128  0.2350  0.6230
12940TIP3    H160311   0.407   1.764  12.938 -0.2316 -0.7893 -0.5828
12940TIP3    H260312   0.331   1.752  12.808 -0.6244  1.3483 -0.5893
12941TIP3   OH260313   1.852   5.661  15.666  0.2893  0.0883 -0.6045
12941TIP3    H160314   1.793   5.664  15.742 -0.0051 -0.3613 -0.8123
12941TIP3    H260315   1.794   5.673  15.590  0.5542  0.3094 -0.7757
12942TIP3   OH260316   4.808   1.087  16.603  0.2801  0.1319  0.5143
12942TIP3    H160317   4.853   1.164  16.567 -2.2884  2.0737  1.1060
12942TIP3    H260318   4.836   1.085  16.695 -0.8482  1.4552  0.9345
12943TIP3   OH260319   0.267   1.471  16.024 -0.7389 -0.1994 -0.1949
12943TIP3    H160320   0.343   1.481  16.081  0.7435  0.0173 -2.1051
12943TIP3    H260321   0.193   1.502  16.077  0.9734  2.8843  0.6278
12944TIP3   OH260322   4.553   6.606   0.488 -0.8158  0.2570  0.2660
12944TIP3    H160323   4.470   6.630   0.446 -1.3742 -3.0545 -0.8511
12944TIP3    H260324   4.528   6.547   0.559  0.5376 -0.7150 -0.0217
12945TIP3   OH260325   3.299   0.266   2.875 -0.0942 -0.2701  0.5657
12945TIP3    H160326   3.254   0.350   2.868 -0.6714 -0.4509  1.7845
12945TIP3    H260327   3.229   0.201   2.866  0.5157 -0.7099 -1.7732
12946TIP3   OH260328   5.889   5.752  13.057 -0.3981  0.2403  0.1887
12946TIP3    H160329   5.900   5.831  13.004  1.4357  0.0444  0.2204
12946TIP3    H260330   5.950   5.763  13.130 -0.2071 -1.1355  0.2675
12947TIP3   OH260331   0.027   5.829   1.069  0.6597  0.0250  0.0486
12947TIP3    H160332   0.087   5.788   1.006 -0.3370 -0.0714 -0.8600
12947TIP3    H260333  -0.059   5.823   1.028 -0.0398 -0.1225  1.4686
12948TIP3   OH260334   1.094   4.640   0.741 -0.0447 -0.4975  0.4976
12948TIP3    H160335   1.130   4.552   0.727  0.1802 -0.4703  0.9067
12948TIP3    H260336   1.138   4.694   0.676  0.7757 -0.4327  1.0914
12949TIP3   OH260337   5.704   2.668  13.744 -0.2812  0.0850  0.4658
12949TIP3    H160338   5.718   2.657  13.838 -0.7464  0.2636  0.5636
12949TIP3    H260339   5.623   2.619  13.726  0.0504 -0.3282  0.0725
12950TIP3   OH260340   4.380   1.817   3.145 -0.1605 -0.0363  0.2341
12950TIP3    H160341   4.284   1.814   3.149 -0.2191  0.8932 -0.1660
12950TIP3    H260342   4.400   1.910   3.129  0.7691 -0.3428 -0.4529
12951TIP3   OH260343   2.669   1.278  14.319 -0.1309  0.2706 -0.2367
12951TIP3    H160344   2.663   1.272  14.223 -1.1586  1.5631 -0.2731
12951TIP3    H260345   2.622   1.200  14.350  2.6280 -1.7695 -0.7330
12952TIP3   OH260346   5.047   5.486  11.049 -0.1429 -0.0278 -0.1794
12952TIP3    H160347   4.955   5.463  11.066  0.0150 -1.0263 -0.5803
12952TIP3    H260348   5.043   5.564  10.994 -0.7329  0.5321  0.6484
12953TIP3   OH260349   6.110   1.900   0.063 -0.3735 -0.5246  0.0248
12953TIP3    H160350   6.115   1.821   0.117  1.6588 -1.4635 -1.4266
12953TIP3    H260351   6.061   1.874  -0.014 -1.2469  0.1633  0.3320
12954TIP3   OH260352   3.475   3.030   0.122 -0.1687  0.6506 -0.0862
12954TIP3    H160353   3.511   3.115   0.096  0.5705  0.6588  0.9043
12954TIP3    H260354   3.517   3.011   0.206 -1.1462 -0.1867  0.2311
12955TIP3   OH260355   0.573   2.884  16.866  0.4476  0.2118  0.3060
12955TIP3    H160356   0.624   2.921  16.938 -1.2755 -0.8822  2.1579
12955TIP3    H260357   0.556   2.793  16.891 -0.5701 -0.0898 -1.2847
12956TIP3   OH260358   1.143   3.605   6.147 -0.2854 -0.4117  0.2465
12956TIP3    H160359   1.110   3.516   6.145 -2.2536  0.1954  2.1936
12956TIP3    H260360   1.165   3.621   6.239  0.4673  0.9636 -0.1371
12957TIP3   OH260361   3.588   6.175   2.680  0.3012  0.5632 -0.2696
12957TIP3    H160362   3.590   6.260   2.636  1.8316  1.0483  0.6594
12957TIP3    H260363   3.526   6.186   2.751  0.4274  0.8738 -0.2085
12958TIP3   OH260364   6.786   5.808  16.034  0.5210 -0.1776 -0.0063
12958TIP3    H160365   6.815   5.897  16.012 -0.1002  0.1494  0.4857
12958TIP3    H260366   6.700   5.800  15.993 -0.4319  0.2636  1.8243
12959TIP3   OH260367   0.250   4.351   3.866  0.0822  0.2120  0.1898
12959TIP3    H160368   0.241   4.272   3.813  1.4739  0.3868 -0.3558
12959TIP3    H260369   0.267   4.320   3.955 -0.4076 -0.0911  0.1779
12960TIP3   OH260370   4.433   0.217   4.763  0.0314 -0.1508  0.2978
12960TIP3    H160371   4.501   0.283   4.776  0.7152 -0.9368  0.8194
12960TIP3    H260372   4.480   0.140   4.730 -0.1749 -1.5273  2.9315
12961TIP3   OH260373   5.618   5.953   1.786 -0.2176  0.0789 -0.2488
12961TIP3    H160374   5.610   5.918   1.875 -0.0632 -0.1168 -0.3107
12961TIP3    H260375   5.543   6.011   1.776 -0.3242 -0.0239 -0.0471
12962TIP3   OH260376   5.602   4.749  16.047  0.2222  0.4425 -0.2967
12962TIP3    H160377   5.690   4.781  16.027 -0.0469  1.0961 -0.4437
12962TIP3    H260378   5.547   4.783  15.976 -0.0353 -0.5153 -0.5729
12963TIP3   OH260379   1.127   6.723  14.608  0.8071 -0.4965 -0.4101
12963TIP3    H160380   1.206   6.704  14.659  0.3042 -1.0870  0.1743
12963TIP3    H260381   1.105   6.640  14.567  0.3170 -0.4119 -0.3186
12964TIP3   OH260382   4.618   5.414  14.647 -0.5081  0.4747  0.9116
12964TIP3    H160383   4.558   5.486  14.625 -1.1038 -0.3629 -0.3367
12964TIP3    H260384   4.566   5.355  14.701 -0.7448 -0.1057  0.0729
12965TIP3   OH260385   1.970   3.228   3.617 -0.0429  0.6801 -0.4404
12965TIP3    H160386   1.959   3.224   3.712  0.5396  2.4245 -0.2697
12965TIP3    H260387   2.062   3.248   3.603  0.1164 -0.5869 -1.4331
12966TIP3   OH260388   5.337   6.525   2.914 -0.3619 -0.0351  0.1985
12966TIP3    H160389   5.379   6.611   2.906 -0.6392  0.0077 -0.8525
12966TIP3    H260390   5.255   6.543   2.961  0.0712  0.1001  0.9304
12967TIP3   OH260391   2.323   2.906  13.177  0.1581  0.1943 -0.5094
12967TIP3    H160392   2.229   2.925  13.173 -0.1257 -0.7935  0.7460
12967TIP3    H260393   2.331   2.816  13.144  0.0999 -1.1774  2.8400
12968TIP3   OH260394   3.606   0.848  14.914 -0.0948 -0.1716  0.5192
12968TIP3    H160395   3.650   0.765  14.935  0.8577  0.1765 -0.0123
12968TIP3    H260396   3.567   0.833  14.828 -0.2968 -0.2150  0.6193
12969TIP3   OH260397   1.748   1.675   4.284  0.0564  0.1836 -0.1411
12969TIP3    H160398   1.789   1.593   4.258 -0.4785 -0.0567 -0.2265
12969TIP3    H260399   1.787   1.741   4.226 -1.2831 -0.3713 -1.7435
12970TIP3   OH260400   2.042   3.599  11.199  0.0563 -0.8848 -0.3591
12970TIP3    H160401   2.133   3.627  11.209 -0.0027 -0.5290 -0.7738
12970TIP3    H260402   2.046   3.504  11.197  0.4357 -0.8663 -0.4968
12971TIP3   OH260403   4.590   0.755  12.205 -0.2278 -0.1481 -0.2663
12971TIP3    H160404   4.664   0.813  12.221 -0.4526  0.6044 -1.7848
12971TIP3    H260405   4.529   0.807  12.152 -0.9457 -1.3952 -0.7132
12972TIP3   OH260406   3.184   5.179   4.830  0.0281  0.1067  0.0542
12972TIP3    H160407   3.209   5.271   4.825 -1.4380  0.5130 -0.2137
12972TIP3    H260408   3.240   5.135   4.766 -0.8635  1.1982 -1.5256
12973TIP3   OH260409   5.776   1.704   1.357  0.3479  0.0850 -0.2490
12973TIP3    H160410   5.730   1.630   1.397  3.8262 -0.9445  2.3699
12973TIP3    H260411   5.830   1.664   1.289  1.0627  0.4445  0.1003
12974TIP3   OH260412   6.651   0.008   2.879 -0.1386  0.0178 -0.2190
12974TIP3    H160413   6.614   0.088   2.917 -1.4751  0.7403 -2.8247
12974TIP3    H260414   6.614  -0.062   2.932 -0.3148  1.0153  1.0428
12975TIP3   OH260415   1.931   3.142   0.325  0.0004 -0.2802  0.4780
12975TIP3    H160416   1.901   3.203   0.258 -1.1765 -3.3940 -2.1285
12975TIP3    H260417   2.025   3.134   0.309 -0.6883 -3.6840 -3.6661
12976TIP3   OH260418   2.918   6.791   5.609  0.3625  0.5394 -0.7543
12976TIP3    H160419   2.886   6.730   5.676  0.5819  0.0845 -1.0549
12976TIP3    H260420   2.839   6.833   5.575  0.2799  1.0154  0.0216
12977TIP3   OH260421   5.156   5.816   3.190 -0.7067  0.1028 -0.2529
12977TIP3    H160422   5.093   5.816   3.119  1.7784  0.0406 -2.6334
12977TIP3    H260423   5.187   5.907   3.196  1.5271 -0.4786 -1.7023
12978TIP3   OH260424   6.036   4.417   0.588 -0.0973  0.7016 -0.4238
12978TIP3    H160425   6.076   4.500   0.560 -2.0736  2.5221  1.7594
12978TIP3    H260426   5.943   4.437   0.598 -0.3371 -1.1794  2.1796
12979TIP3   OH260427   2.702   2.014  12.983  0.1860 -0.0064  0.1510
12979TIP3    H160428   2.634   1.958  12.947  0.3396  1.0052 -1.8406
12979TIP3    H260429   2.659   2.058  13.057 -0.2275 -1.9230  1.1122
12980TIP3   OH260430   1.610   6.005  16.202 -0.2113  0.0694  0.2022
12980TIP3    H160431   1.658   5.999  16.119  1.6629 -0.4200  1.2504
12980TIP3    H260432   1.525   5.965  16.184  1.0101 -2.2704 -0.8808
12981TIP3   OH260433   5.380   5.982  15.600  0.3841  0.4563 -0.0195
12981TIP3    H160434   5.328   5.987  15.520 -1.8435  0.5498  1.3564
12981TIP3    H260435   5.317   5.992  15.671  2.1764 -0.3509  1.7993
12982TIP3   OH260436   4.663   5.280  14.074  0.0766  0.1865  0.6501
12982TIP3    H160437   4.614   5.201  14.097  0.4911 -0.0813  0.6318
12982TIP3    H260438   4.645   5.341  14.146 -0.8266  0.3456  0.3029
12983TIP3   OH260439   6.376   0.524  11.829 -0.5420  0.1862  0.0930
12983TIP3    H160440   6.310   0.456  11.813 -2.6567  2.0262  0.4768
12983TIP3    H260441   6.341   0.573  11.904  2.0225  0.3973  1.2586
12984TIP3   OH260442   6.072   3.544   4.009 -0.3816  0.1778  0.0742
12984TIP3    H160443   6.073   3.619   3.949  0.8958  0.9640  1.0270
12984TIP3    H260444   6.114   3.474   3.960  2.6224  1.4061  0.6949
12985TIP3   OH260445   3.864   0.067   1.663 -0.1842  0.0589 -0.2754
12985TIP3    H160446   3.874   0.000   1.596  0.0420  0.9363 -1.1421
12985TIP3    H260447   3.911   0.143   1.628  1.4447  0.0219  1.6417
12986TIP3   OH260448   2.505   5.435  10.571  0.3657  0.7901  0.1110
12986TIP3    H160449   2.462   5.518  10.593  1.3491  1.2607  0.2994
12986TIP3    H260450   2.450   5.368  10.612  0.0797  1.4087  0.7679
12987TIP3   OH260451   4.500   6.661   4.894 -0.6762  0.0601  0.0847
12987TIP3    H160452   4.538   6.578   4.865  0.1672  1.0641 -1.8466
12987TIP3    H260453   4.574   6.721   4.899 -1.6722  1.4895 -1.5809
12988TIP3   OH260454   2.971   3.654   0.066 -0.0970  0.3797 -0.2521
12988TIP3    H160455   3.066   3.657   0.056 -0.2287 -0.1911 -2.1271
12988TIP3    H260456   2.955   3.583   0.129  0.7230  0.8059  0.4459
12989TIP3   OH260457   2.484   5.324   1.583  0.1060 -0.2152  0.4922
12989TIP3    H160458   2.455   5.307   1.493 -1.3493  0.0055  0.8843
12989TIP3    H260459   2.498   5.418   1.586 -0.5216 -0.1172  0.6542
12990TIP3   OH260460   0.905   0.774   0.973 -0.1095  0.0084 -0.7261
12990TIP3    H160461   0.836   0.790   0.909  0.9115 -0.0985 -1.9031
12990TIP3    H260462   0.889   0.685   1.004 -1.2762  0.4600  0.0536
12991TIP3   OH260463   5.381   1.753   2.708 -0.0199  0.0515 -0.8319
12991TIP3    H160464   5.302   1.709   2.740  0.4150 -0.2840 -0.1953
12991TIP3    H260465   5.409   1.807   2.781  0.4634 -0.0035 -0.9723
12992TIP3   OH260466   3.312   5.573  13.683  0.3097 -0.0206 -0.1272
12992TIP3    H160467   3.403   5.579  13.654  0.1111  2.1274 -0.4694
12992TIP3    H260468   3.313   5.609  13.771 -0.2089 -0.0109 -0.1266
12993TIP3   OH260469   1.366   1.774  15.090 -0.0809  0.1821 -0.5121
12993TIP3    H160470   1.404   1.696  15.049  0.2785  0.4537 -0.6996
12993TIP3    H260471   1.284   1.788  15.042  1.0083  1.3297 -2.1350
12994TIP3   OH260472   3.649   5.314   4.389 -0.4802  0.0689 -0.1175
12994TIP3    H160473   3.640   5.221   4.409  0.1963  0.4241  2.1278
12994TIP3    H260474   3.733   5.339   4.427  0.0003  1.3503 -1.8669
12995TIP3   OH260475   0.434   2.426  17.139  0.1152  0.2944  0.1618
12995TIP3    H160476   0.418   2.399  17.049  0.8300  0.2786  0.0375
12995TIP3    H260477   0.377   2.369  17.191  0.6177 -0.5579 -0.1911
12996TIP3   OH260478   6.479   5.531  12.859  0.0514 -0.1268  0.6097
12996TIP3    H160479   6.567   5.502  12.836  0.0021  2.0095 -3.0987
12996TIP3    H260480   6.492   5.616  12.902 -0.0928  1.5211 -2.3469
12997TIP3   OH260481   5.314   0.225  16.150 -0.6213  0.2561  0.4650
12997TIP3    H160482   5.357   0.247  16.233 -1.8912 -1.3684  1.6023
12997TIP3    H260483   5.381   0.177  16.101  0.5759  2.3269 -0.0653
12998TIP3   OH260484   4.763   1.663  15.235 -0.9358  0.4347  0.2869
12998TIP3    H160485   4.779   1.627  15.321  0.4915 -0.9984 -0.5377
12998TIP3    H260486   4.758   1.758  15.249 -0.1404  0.2687  1.8508
12999TIP3   OH260487   6.609   6.708   0.496  0.0300 -0.0210  0.3854
12999TIP3    H160488   6.690   6.744   0.461  0.8356 -0.7430  1.4529
12999TIP3    H260489   6.629   6.617   0.516 -1.7891 -0.9647 -1.6747
13000TIP3   OH260490   5.114   6.116   2.634  0.1163  0.0136 -0.0345
13000TIP3    H160491   5.145   6.174   2.564  0.9547  0.9273  1.0651
13000TIP3    H260492   5.192   6.099   2.687 -0.2012 -1.8459 -0.1285
13001TIP3   OH260493   2.975   5.717   3.140 -0.4146 -0.3589  0.1342
13001TIP3    H160494   3.015   5.739   3.224 -3.0045 -0.0646  1.3860
13001TIP3    H260495   2.996   5.624   3.127 -1.6944 -1.0056  2.2196
13002TIP3   OH260496   4.526   2.913   1.437  0.3644 -0.4847 -0.3862
13002TIP3    H160497   4.615   2.935   1.467 -1.1836  1.2865  3.6188
13002TIP3    H260498   4.488   2.997   1.411 -1.1788 -0.6112  1.3057
13003TIP3   OH260499   5.849   4.909  14.932 -0.3234  0.2957  0.2907
13003TIP3    H160500   5.924   4.875  14.884 -1.1468 -0.5188 -0.4431
13003TIP3    H260501   5.800   4.832  14.958 -1.1468  0.8332  0.3647
13004TIP3   OH260502   0.397   4.774  11.838 -0.1919 -0.7501  0.3846
13004TIP3    H160503   0.406   4.685  11.872 -1.2929 -0.8864  0.3830
13004TIP3    H260504   0.446   4.774  11.756  1.2286 -0.8563  1.2132
13005TIP3   OH260505   2.274   3.262   1.610 -0.2509 -0.2072 -0.5918
13005TIP3    H160506   2.340   3.233   1.673 -0.2080  1.3606  0.1131
13005TIP3    H260507   2.318   3.331   1.559 -1.8152  2.1481  1.0608
13006TIP3   OH260508   1.191   1.430  11.402  0.2060 -0.2820  0.1008
13006TIP3    H160509   1.215   1.481  11.325  0.5492  0.0458  0.4162
13006TIP3    H260510   1.275   1.399  11.437  0.1987  0.9249  1.2601
13007TIP3   OH260511   4.926   6.280   4.323  0.5721  0.8237 -0.5977
13007TIP3    H160512   4.831   6.272   4.329  0.6714  0.5826  1.5517
13007TIP3    H260513   4.956   6.192   4.300  0.2980  0.8923 -1.2417
13008TIP3   OH260514   4.184   5.635  11.427 -0.1100 -0.3124 -0.4684
13008TIP3    H160515   4.239   5.666  11.499 -1.5160 -0.9128  0.9404
13008TIP3    H260516   4.097   5.670  11.447 -0.9550 -2.1120 -0.7836
13009TIP3   OH260517   4.445   0.495   5.934 -0.3066 -1.3412  0.3743
13009TIP3    H160518   4.463   0.507   5.841 -0.3123 -1.1823  0.3935
13009TIP3    H260519   4.434   0.400   5.945  0.8723 -1.4868  0.4236
13010TIP3   OH260520   1.303   2.101   3.455  0.0779  0.4135 -0.2213
13010TIP3    H160521   1.281   2.018   3.496  2.3132 -0.3390 -0.4016
13010TIP3    H260522   1.343   2.077   3.372  2.0932  1.5142  0.3403
13011TIP3   OH260523   5.836   5.064  12.682  0.0384 -0.2083  0.5679
13011TIP3    H160524   5.796   5.149  12.700  0.9513  0.6078 -0.9885
13011TIP3    H260525   5.865   5.032  12.767 -1.8039  0.2447  1.4035
13012TIP3   OH260526   0.809   1.296   4.389 -0.2059  0.1199  0.5237
13012TIP3    H160527   0.779   1.373   4.437 -0.5995 -0.6199  1.4939
13012TIP3    H260528   0.882   1.328   4.336  0.3826  0.9193  1.7759
13013TIP3   OH260529   4.707   2.379   0.378 -0.4938 -0.1873  0.0868
13013TIP3    H160530   4.699   2.284   0.383 -0.0315 -0.2255  0.1487
13013TIP3    H260531   4.630   2.412   0.426  0.6341 -0.5510  2.2978
13014TIP3   OH260532   2.326   5.745  15.000  0.3745 -0.4122 -0.2902
13014TIP3    H160533   2.249   5.743  14.943  0.6328 -0.5555 -0.6343
13014TIP3    H260534   2.293   5.711  15.084  0.0186 -0.2947 -0.3775
13015TIP3   OH260535   0.840   3.075   4.832  0.5561 -0.4565  0.0843
13015TIP3    H160536   0.869   3.147   4.776  0.8614 -2.2216 -2.2043
13015TIP3    H260537   0.920   3.026   4.851  0.8590  1.2139  4.0284
13016TIP3   OH260538   4.155   1.236   0.351  0.3091 -1.0497  0.3714
13016TIP3    H160539   4.198   1.320   0.342 -1.0265 -0.4586 -0.8808
13016TIP3    H260540   4.100   1.245   0.428  0.8172 -1.0844  0.7422
13017TIP3   OH260541   2.763   0.959  12.736  0.1437 -0.1504  0.6234
13017TIP3    H160542   2.706   0.999  12.802  0.2431 -0.7319  1.0646
13017TIP3    H260543   2.722   0.982  12.653 -0.3936 -0.0423  0.9110
13018TIP3   OH260544   6.714   6.148   0.045 -0.4996 -0.4132 -0.1386
13018TIP3    H160545   6.661   6.089   0.098 -1.9434  0.1462 -0.8752
13018TIP3    H260546   6.765   6.090  -0.012 -1.2110 -0.9739 -0.2218
13019TIP3   OH260547   2.789   0.836  15.667  0.3605 -0.1132 -0.1992
13019TIP3    H160548   2.875   0.796  15.663 -0.1351 -1.1064 -2.3028
13019TIP3    H260549   2.801   0.914  15.721  2.5528 -0.2439 -0.4205
13020TIP3   OH260550   1.096   5.382  13.060 -0.2939  0.1449 -0.3450
13020TIP3    H160551   1.136   5.385  12.973 -0.0379  0.7283 -0.2155
13020TIP3    H260552   1.004   5.360  13.044 -0.1946  0.0204 -0.7431
13021TIP3   OH260553   4.412   0.785   0.988  0.1104  0.2605 -0.4086
13021TIP3    H160554   4.404   0.759   1.079 -0.5439  0.0837 -0.5065
13021TIP3    H260555   4.401   0.703   0.939 -0.3286  0.4632 -0.6624
13022TIP3   OH260556   1.801   0.712   0.110  0.2348  0.1720 -0.3175
13022TIP3    H160557   1.831   0.676   0.193 -2.3462 -1.5461 -0.0114
13022TIP3    H260558   1.763   0.797   0.134 -0.7958 -0.4580  0.3529
13023TIP3   OH260559   3.003   1.828   2.941  0.2298 -0.1625  0.0602
13023TIP3    H160560   3.008   1.805   2.848 -1.5236  1.6146 -0.5469
13023TIP3    H260561   2.999   1.924   2.941  1.3579 -0.0613  2.0689
13024TIP3   OH260562   1.667   2.255  11.502  0.2543 -0.6585 -0.2869
13024TIP3    H160563   1.682   2.326  11.564 -0.9195 -0.8545  0.2386
13024TIP3    H260564   1.696   2.176  11.547 -0.8963 -0.8439  0.1649
13025TIP3   OH260565   6.301   4.874  12.349 -0.1098 -0.2766 -0.4641
13025TIP3    H160566   6.354   4.799  12.376 -0.2543 -0.0385  0.5510
13025TIP3    H260567   6.228   4.836  12.301  0.0048 -0.7543 -0.2659
13026TIP3   OH260568   1.829   2.951  12.985 -0.4873  0.2209  0.7416
13026TIP3    H160569   1.853   3.015  12.919  0.6136  1.0226  1.8713
13026TIP3    H260570   1.784   2.881  12.936 -2.5566  2.2232 -0.4097
13027TIP3   OH260571   6.398   1.465  12.981 -0.4028 -0.5836 -0.2247
13027TIP3    H160572   6.489   1.479  13.009  0.0614 -2.0709 -0.8772
13027TIP3    H260573   6.351   1.542  13.013  1.2301  0.5990 -0.5249
13028TIP3   OH260574   3.730   4.910   2.468  0.0204 -0.5973  0.8706
13028TIP3    H160575   3.738   5.004   2.457  1.3774 -0.8230 -0.3851
13028TIP3    H260576   3.712   4.898   2.561  1.5504  0.8166  1.3942
13029TIP3   OH260577   0.717   0.661  12.980  0.1526 -0.2147 -0.0486
13029TIP3    H160578   0.693   0.612  12.901  0.6341 -0.4822 -0.0352
13029TIP3    H260579   0.807   0.689  12.964 -0.6408  2.1202 -0.7754
13030TIP3   OH260580   5.764   3.155   1.311  0.3729 -0.2239 -0.3418
13030TIP3    H160581   5.793   3.242   1.336  0.4988 -0.2755 -0.3079
13030TIP3    H260582   5.760   3.158   1.215 -0.8539  0.2109 -0.2931
13031TIP3   OH260583   4.408   3.056  14.455  0.0506 -0.0822 -0.0949
13031TIP3    H160584   4.396   2.989  14.523 -1.5587 -0.0211 -0.2727
13031TIP3    H260585   4.457   3.126  14.499 -0.0889 -0.4739  0.7081
13032TIP3   OH260586   2.485   0.590   1.742 -0.2321  0.2028  0.6213
13032TIP3    H160587   2.495   0.496   1.757  1.0403 -0.3427 -2.9189
13032TIP3    H260588   2.565   0.628   1.777  0.2319 -0.3194  0.1534
13033TIP3   OH260589   5.507   4.627  14.721  0.1750  0.2854  0.2751
13033TIP3    H160590   5.524   4.534  14.736 -0.9976  0.2630  1.6359
13033TIP3    H260591   5.540   4.643  14.632  0.4179 -1.4137  0.0208
13034TIP3   OH260592   3.510   1.370  11.214 -0.1571 -0.1492 -0.2527
13034TIP3    H160593   3.481   1.459  11.235 -0.3757  0.0710 -1.3926
13034TIP3    H260594   3.554   1.340  11.293  0.8146  1.3429 -0.1717
13035TIP3   OH260595   4.634   0.865  16.512 -0.9617  0.2085  0.4094
13035TIP3    H160596   4.675   0.951  16.508 -2.1522  0.7658 -0.8097
13035TIP3    H260597   4.683   0.811  16.450  0.2255 -0.2299  1.6819
13036TIP3   OH260598   1.384   1.129  14.569  0.3243  0.0817 -0.2214
13036TIP3    H160599   1.410   1.143  14.660 -0.2730  0.6717 -0.1328
13036TIP3    H260600   1.323   1.201  14.551 -0.6299 -0.8099 -0.6489
13037TIP3   OH260601   1.046   3.307   3.581 -0.1162  0.4952  0.3133
13037TIP3    H160602   0.988   3.236   3.553  1.2193  0.6559 -3.4950
13037TIP3    H260603   0.996   3.387   3.566 -0.0553  0.5055  0.1581
13038TIP3   OH260604   2.490   3.174   6.093  0.1363  0.0443 -0.5132
13038TIP3    H160605   2.534   3.102   6.047  0.4275 -0.0907 -0.0224
13038TIP3    H260606   2.404   3.179   6.052 -0.4361 -1.5316  0.4149
13039TIP3   OH260607   1.354   1.470   3.486  0.5270  0.3089  0.5136
13039TIP3    H160608   1.286   1.537   3.490 -0.2159 -0.4409  0.6786
13039TIP3    H260609   1.400   1.488   3.403 -1.2795 -0.4858 -0.7257
13040TIP3   OH260610   5.716   3.974  11.376 -0.1787 -0.4939 -0.2744
13040TIP3    H160611   5.629   3.954  11.341  0.7519 -3.0727 -1.3679
13040TIP3    H260612   5.771   3.981  11.298  0.6748  1.0187  0.4111
13041TIP3   OH260613   6.091   2.558   1.492  0.2643  0.3109 -0.0719
13041TIP3    H160614   5.996   2.566   1.497  0.2592  1.0717 -1.2102
13041TIP3    H260615   6.107   2.512   1.410  0.9965  3.3341 -1.7503
13042TIP3   OH260616   2.502   1.120   0.221  0.0227 -0.0178  0.2788
13042TIP3    H160617   2.564   1.068   0.272  0.6209 -0.4734 -0.8863
13042TIP3    H260618   2.551   1.197   0.195  0.4932 -0.9040 -1.5953
13043TIP3   OH260619   4.498   1.040   1.019  0.1271  0.0468 -0.0102
13043TIP3    H160620   4.573   1.047   0.961 -0.1693 -0.8663 -0.5165
13043TIP3    H260621   4.455   0.958   0.994 -0.6799  0.2366  0.6928
13044TIP3   OH260622   3.308   1.265   1.665  1.1097  0.1519  0.1071
13044TIP3    H160623   3.293   1.345   1.613 -0.2356 -1.8370 -2.8452
13044TIP3    H260624   3.355   1.207   1.605  0.0363 -2.0847  1.3244
13045TIP3   OH260625   6.247   6.095  11.206  0.1300  0.1208  0.3590
13045TIP3    H160626   6.288   6.178  11.181  0.3335 -0.3618 -1.0252
13045TIP3    H260627   6.202   6.066  11.127  0.5987 -1.3973  0.6074
13046TIP3   OH260628   5.720   0.698   6.110  0.1490 -0.0725 -0.8446
13046TIP3    H160629   5.739   0.712   6.203 -1.0795  2.1040 -0.8624
13046TIP3    H260630   5.803   0.714   6.066  0.5524 -0.3289 -0.1918
13047TIP3   OH260631   0.618   5.905  12.475 -0.1085  0.0189 -0.1838
13047TIP3    H160632   0.645   5.927  12.385 -1.4248  0.4068 -0.4949
13047TIP3    H260633   0.528   5.874  12.466 -0.1500 -0.2169  0.9740
13048TIP3   OH260634   5.147   5.200   1.542 -0.1842 -0.3689  0.2261
13048TIP3    H160635   5.076   5.255   1.577 -0.5863 -0.0405 -1.0538
13048TIP3    H260636   5.179   5.248   1.465  1.6488 -0.3690  0.9417
13049TIP3   OH260637   1.429   5.434  13.894 -0.0164  0.3626 -0.0053
13049TIP3    H160638   1.516   5.396  13.881 -0.8330 -1.2600 -1.1620
13049TIP3    H260639   1.445   5.528  13.907  1.7905  0.4578 -2.2416
13050TIP3   OH260640   3.013   2.075   2.543  0.0442 -0.4427  0.4159
13050TIP3    H160641   2.929   2.029   2.544  0.0883 -0.6691 -1.8070
13050TIP3    H260642   3.012   2.125   2.461  2.8160 -1.9214 -0.6296
13051TIP3   OH260643   3.046   3.599  11.280  0.1059  0.0765  0.2227
13051TIP3    H160644   3.043   3.596  11.184  0.3840 -1.4377  0.2352
13051TIP3    H260645   2.961   3.565  11.308  0.7657 -1.4498  0.4848
13052TIP3   OH260646   5.940   1.836   5.453  0.0767  0.1312 -0.6412
13052TIP3    H160647   5.845   1.821   5.452  0.1310 -0.1940 -0.7252
13052TIP3    H260648   5.955   1.881   5.537 -0.0022 -0.7928 -0.1183
13053TIP3   OH260649   4.796   1.624  16.339 -0.2257  0.1358 -0.2899
13053TIP3    H160650   4.824   1.690  16.402  0.0776  0.5113 -0.8166
13053TIP3    H260651   4.711   1.594  16.372  0.0454  0.1393  0.4364
13054TIP3   OH260652   4.775   1.290  11.766 -0.0853 -0.2488  0.4007
13054TIP3    H160653   4.721   1.366  11.743  0.5885  1.2608  3.3278
13054TIP3    H260654   4.864   1.315  11.739 -0.1855 -1.0912 -0.8211
13055TIP3   OH260655   4.635   2.261  13.004 -0.3805  0.5206  0.2836
13055TIP3    H160656   4.678   2.196  12.948  0.0171  0.9786  0.0522
13055TIP3    H260657   4.689   2.263  13.083 -0.8955 -0.0672  0.6595
13056TIP3   OH260658   5.578   1.051   1.297  0.1573  0.1308 -0.2840
13056TIP3    H160659   5.501   1.106   1.311 -0.3946 -0.7379  0.1605
13056TIP3    H260660   5.587   1.001   1.378  1.8262  0.9517  0.1017
13057TIP3   OH260661   0.183   5.246  11.774  0.2616 -0.1749 -0.0285
13057TIP3    H160662   0.166   5.153  11.791  0.9745 -0.1758  0.7396
13057TIP3    H260663   0.241   5.273  11.845 -0.2459  0.9611 -0.0225
13058TIP3   OH260664   3.542   4.244  14.973 -0.0817  0.5708 -0.4908
13058TIP3    H160665   3.556   4.156  14.937  0.9185  0.6891 -0.4319
13058TIP3    H260666   3.501   4.229  15.058 -0.0033  0.1670 -0.5217
13059TIP3   OH260667   2.176   6.328  16.813 -0.3263  0.0556  0.1268
13059TIP3    H160668   2.157   6.300  16.903 -0.1055 -0.0324  0.1476
13059TIP3    H260669   2.098   6.376  16.786  0.4512  2.0505  1.1742
13060TIP3   OH260670   6.220   3.877  12.453  0.0631 -0.0447 -0.6430
13060TIP3    H160671   6.221   3.806  12.390 -0.6707 -0.8537  0.2220
13060TIP3    H260672   6.237   3.835  12.537  0.1550  0.8766 -0.1843
13061TIP3   OH260673   3.460   4.961   4.853  0.4090  0.7391 -0.3259
13061TIP3    H160674   3.447   4.877   4.810 -0.2653  0.1717  0.9340
13061TIP3    H260675   3.395   4.962   4.924  1.6815  1.4780  0.8801
13062TIP3   OH260676   1.890   3.295  11.879 -0.3122  0.6112 -0.3560
13062TIP3    H160677   1.940   3.226  11.922 -0.7762  0.9992  0.8596
13062TIP3    H260678   1.799   3.277  11.902 -0.6299  0.5231 -1.6503
13063TIP3   OH260679   0.858   5.984   2.530 -0.0790  0.3862 -0.2571
13063TIP3    H160680   0.896   6.056   2.480 -0.0733 -0.7952 -2.0464
13063TIP3    H260681   0.767   5.980   2.502  0.0067 -0.5099 -0.4446
13064TIP3   OH260682   4.620   2.085  13.382  0.1343  0.0764  0.0023
13064TIP3    H160683   4.586   2.110  13.468  2.4358  1.0949  0.6781
13064TIP3    H260684   4.654   2.166  13.345  2.4265 -0.9549 -0.2940
13065TIP3   OH260685   4.554   3.469   3.896 -0.4315  0.1433 -0.2749
13065TIP3    H160686   4.512   3.514   3.969  1.3819  1.4469  0.0255
13065TIP3    H260687   4.634   3.519   3.879  0.9579 -2.1104 -0.8875
13066TIP3   OH260688   6.349   0.598   0.342  0.1700 -0.0500 -0.4696
13066TIP3    H160689   6.379   0.566   0.427  1.5776  0.8772 -0.5850
13066TIP3    H260690   6.267   0.643   0.361  0.7869  0.6978  0.5140
13067TIP3   OH260691   0.945   4.116  11.266 -0.2688  0.1534 -0.5828
13067TIP3    H160692   1.008   4.143  11.199  1.8456  1.0963  1.6578
13067TIP3    H260693   0.999   4.094  11.342 -2.6482  0.9354  1.4385
13068TIP3   OH260694   5.704   5.562  14.265  0.3473  0.2309  0.3768
13068TIP3    H160695   5.796   5.539  14.278  0.1376 -0.8198  0.0830
13068TIP3    H260696   5.662   5.543  14.349 -0.0991 -1.9681 -0.2686
13069TIP3   OH260697   0.739   4.029  15.490 -0.2709  0.0563  0.0801
13069TIP3    H160698   0.751   4.115  15.530 -1.4601  0.5622 -0.5815
13069TIP3    H260699   0.813   4.019  15.430  0.3565  0.2156  0.8170
13070TIP3   OH260700   5.674   5.142  12.312 -0.1280 -0.3401  0.4176
13070TIP3    H160701   5.699   5.234  12.312 -1.2832 -0.0123 -0.3299
13070TIP3    H260702   5.579   5.142  12.305 -0.2868 -1.5798  1.8998
13071TIP3   OH260703   4.317   2.435   0.037  0.0847  0.9666  0.3358
13071TIP3    H160704   4.278   2.386   0.110  2.8773 -0.1964  1.1501
13071TIP3    H260705   4.324   2.371  -0.033 -1.4528  1.7755 -0.6256
13072TIP3   OH260706   6.424   1.779  12.168 -0.3865  0.4505 -0.3033
13072TIP3    H160707   6.518   1.797  12.168 -0.4284  0.7085 -1.1767
13072TIP3    H260708   6.410   1.728  12.248  0.1188  2.2241  0.9845
13073TIP3   OH260709   6.546   0.474  12.940  0.1534  0.3210 -0.0281
13073TIP3    H160710   6.555   0.380  12.926 -0.1826  0.3893 -0.7778
13073TIP3    H260711   6.622   0.512  12.894  0.2189  0.4200  0.1625
13074TIP3   OH260712   0.494   2.854  14.433 -0.4874 -0.4071 -0.1089
13074TIP3    H160713   0.440   2.931  14.417 -2.0544 -1.4900 -0.3298
13074TIP3    H260714   0.512   2.819  14.346 -0.2944 -0.6038  0.0106
13075TIP3   OH260715   6.349   1.742  10.754  0.0784  0.3010  0.2522
13075TIP3    H160716   6.352   1.659  10.707  0.7421 -0.2960  1.3122
13075TIP3    H260717   6.272   1.736  10.810 -0.9455  1.1741 -1.0088
13076TIP3   OH260718   6.230   2.502   0.250  0.2183  0.3075  0.7451
13076TIP3    H160719   6.291   2.508   0.324  0.1311  0.1941  0.8269
13076TIP3    H260720   6.185   2.419   0.264  0.8618 -0.1702  0.0527
13077TIP3   OH260721   3.385   3.722  11.654 -0.1795  0.4415  0.2823
13077TIP3    H160722   3.369   3.787  11.722 -0.6519 -0.0509  0.6427
13077TIP3    H260723   3.312   3.660  11.660 -0.8481  0.9911 -1.4059
13078TIP3   OH260724   0.659   1.087  11.492  0.1388 -0.5640 -0.1880
13078TIP3    H160725   0.632   1.119  11.406  0.2488  1.5032  0.4826
13078TIP3    H260726   0.623   0.998  11.498 -1.2367 -0.1468 -1.7232
13079TIP3   OH260727   6.388   5.649   4.602  0.1884  0.2243  0.2619
13079TIP3    H160728   6.411   5.632   4.511  0.1759  1.1024  0.0862
13079TIP3    H260729   6.466   5.623   4.652  0.3239  0.0783 -0.0241
13080TIP3   OH260730   0.508   5.451  11.169  0.2514  0.2476  0.3053
13080TIP3    H160731   0.477   5.362  11.187  1.0551 -0.3837 -1.2459
13080TIP3    H260732   0.432   5.496  11.133 -0.0580  0.0873  0.7499
13081TIP3   OH260733   2.590   4.452   5.179  0.1462  0.3361  0.2979
13081TIP3    H160734   2.507   4.464   5.133 -0.0955 -0.5334  0.4938
13081TIP3    H260735   2.566   4.411   5.262  0.6907  0.8586  0.7226
13082TIP3   OH260736   3.960   5.546   0.490  0.4104 -0.0450 -0.1899
13082TIP3    H160737   3.880   5.550   0.437  0.0355  1.3007  0.4387
13082TIP3    H260738   3.931   5.570   0.578  1.2135 -1.2552  0.4385
13083TIP3   OH260739   0.898   1.435   1.397  0.3676  0.0062 -0.2459
13083TIP3    H160740   0.959   1.487   1.449 -1.1170  1.1797  0.4006
13083TIP3    H260741   0.868   1.495   1.328 -1.0292 -0.1032  0.2357
13084TIP3   OH260742   6.232   5.812  16.822 -0.6966  0.3460  0.1047
13084TIP3    H160743   6.239   5.862  16.741 -0.3271  0.0309 -0.0574
13084TIP3    H260744   6.179   5.736  16.798  1.6166 -1.1663 -0.5399
13085TIP3   OH260745   3.480   0.089  16.478 -1.1170 -0.1807 -0.4288
13085TIP3    H160746   3.496  -0.005  16.470  0.3394 -0.0379  0.4561
13085TIP3    H260747   3.446   0.115  16.392 -2.1935 -1.6210 -0.4668
13086TIP3   OH260748   4.581   1.352  13.417 -0.2023 -0.0757  0.0627
13086TIP3    H160749   4.582   1.261  13.389  0.2028  0.1445 -0.6817
13086TIP3    H260750   4.493   1.384  13.395 -0.8008 -0.6379  1.5519
13087TIP3   OH260751   4.981   3.772   0.674 -0.1956  0.2115  0.3028
13087TIP3    H160752   4.911   3.837   0.678  1.8326  2.5156  0.2578
13087TIP3    H260753   5.001   3.752   0.766 -1.2654 -0.9180  0.3133
13088TIP3   OH260754   3.331   6.115   6.331 -0.0920 -0.0728 -0.4941
13088TIP3    H160755   3.380   6.032   6.328 -1.7120 -1.1237  0.4054
13088TIP3    H260756   3.245   6.092   6.297 -0.9607  0.9582  0.9203
13089TIP3   OH260757   4.586   5.842  12.217  0.3457 -0.5045  0.2563
13089TIP3    H160758   4.673   5.877  12.199 -0.1109  0.9893  0.8306
13089TIP3    H260759   4.592   5.807  12.306  0.0197  0.8650  0.8474
13090TIP3   OH260760   4.684   6.051  15.728 -0.2727 -0.5158 -0.0703
13090TIP3    H160761   4.672   5.956  15.722 -2.7956 -0.3406  0.6723
13090TIP3    H260762   4.711   6.077  15.641 -0.6830 -1.8151 -0.6215
13091TIP3   OH260763   1.773   0.814  15.849  0.6193 -0.0262  0.1688
13091TIP3    H160764   1.711   0.788  15.916  2.7610 -0.4842  2.1125
13091TIP3    H260765   1.774   0.740  15.788 -0.3147 -0.2416  0.3980
13092TIP3   OH260766   1.622   2.071  14.141 -0.2240 -0.7006  0.4798
13092TIP3    H160767   1.639   2.078  14.047 -0.2923 -1.0956  0.4371
13092TIP3    H260768   1.653   2.154  14.177 -0.3499 -0.4824  0.0882
13093TIP3   OH260769   6.571   6.569   5.698  0.2494 -0.0397 -0.5779
13093TIP3    H160770   6.623   6.575   5.779 -1.5833  0.8322  0.6142
13093TIP3    H260771   6.613   6.631   5.638  1.6035 -0.6420 -0.2817
13094TIP3   OH260772   5.843   6.475  15.735 -0.1442  0.0351 -0.5567
13094TIP3    H160773   5.880   6.395  15.697 -0.5609 -0.0266 -0.8437
13094TIP3    H260774   5.897   6.545  15.698  0.7953 -0.1602  0.3934
13095TIP3   OH260775   1.145   2.799   0.789  0.8556 -0.0633 -0.4825
13095TIP3    H160776   1.215   2.842   0.739  0.7429  0.7204  0.0119
13095TIP3    H260777   1.064   2.827   0.746  0.6695  1.7641  0.9258
13096TIP3   OH260778   4.630   1.204   5.751 -0.2732  0.2930 -0.2996
13096TIP3    H160779   4.668   1.118   5.767 -2.9412 -0.6258  2.1359
13096TIP3    H260780   4.667   1.260   5.819  0.9828  0.9742 -1.4957
13097TIP3   OH260781   3.537   4.677   4.430  0.7450 -0.7508 -0.0747
13097TIP3    H160782   3.475   4.615   4.468 -0.7510 -0.3462 -1.7117
13097TIP3    H260783   3.561   4.639   4.345  1.1604  0.0646 -0.3422
13098TIP3   OH260784   0.945   3.266   6.716  0.1787 -0.0327  0.1484
13098TIP3    H160785   1.038   3.280   6.700  0.0352 -0.9194 -1.6410
13098TIP3    H260786   0.929   3.175   6.691 -1.3014  0.3143 -0.2930
13099TIP3   OH260787   4.413   0.091  12.182 -0.1952  0.0470  0.6584
13099TIP3    H160788   4.499   0.126  12.157  0.1476 -1.3826 -0.2255
13099TIP3    H260789   4.372   0.163  12.231  1.2670  0.9603  0.6068
13100TIP3   OH260790   4.668   6.227  16.081 -0.1459  0.2048 -0.6040
13100TIP3    H160791   4.582   6.188  16.066 -0.0099 -0.8515  1.0612
13100TIP3    H260792   4.683   6.217  16.175  2.0206 -0.1325 -0.9272
13101TIP3   OH260793   6.665   4.595   5.979 -0.2010  0.7982  0.2015
13101TIP3    H160794   6.691   4.686   5.965  0.8281  0.4364 -0.3376
13101TIP3    H260795   6.655   4.586   6.073  2.0313  0.8705  0.4855
13102TIP3   OH260796   4.769   6.332   2.730  0.5776  0.6923  0.2938
13102TIP3    H160797   4.862   6.345   2.744  0.6581 -0.7641  1.4984
13102TIP3    H260798   4.728   6.367   2.810  0.2695 -0.2234  0.5521
13103TIP3   OH260799   0.986   0.296  13.096 -0.1524  0.2712 -0.3881
13103TIP3    H160800   0.989   0.258  13.008 -0.3896  0.9910 -0.7148
13103TIP3    H260801   1.025   0.383  13.086  3.1366 -0.9051  0.9265
13104TIP3   OH260802   4.724   4.024  13.632  0.1834 -0.3488  0.7218
13104TIP3    H160803   4.818   4.032  13.650  0.3912 -0.9120 -0.0592
13104TIP3    H260804   4.681   4.044  13.715  1.0272 -1.0342  1.3265
13105TIP3   OH260805   0.815   1.154   6.010  0.1385  0.2431 -0.5943
13105TIP3    H160806   0.813   1.107   5.927  1.7817 -0.4360 -0.2890
13105TIP3    H260807   0.781   1.092   6.074 -3.3555  1.5137 -0.9939
13106TIP3   OH260808   3.740   1.521   1.577 -0.2160 -0.1397  0.1438
13106TIP3    H160809   3.831   1.492   1.578 -0.1512 -0.1493 -1.9113
13106TIP3    H260810   3.710   1.504   1.488 -2.0172  0.5634  0.5621
13107TIP3   OH260811   6.610   0.064  13.209 -0.3369 -0.1458  0.2810
13107TIP3    H160812   6.602   0.062  13.114 -0.0460  1.6557  0.1797
13107TIP3    H260813   6.528   0.026  13.241 -1.5389  1.5025 -0.7130
13108TIP3   OH260814   4.158   4.129  10.812  0.5146  0.1266  0.3352
13108TIP3    H160815   4.078   4.179  10.798 -0.9917 -2.7955 -2.7480
13108TIP3    H260816   4.222   4.168  10.752  0.4449  0.5210  0.5166
13109TIP3   OH260817   4.545   5.799  13.470  0.3037  0.4456  0.2483
13109TIP3    H160818   4.533   5.804  13.376  2.0278  0.5777 -0.0031
13109TIP3    H260819   4.460   5.773  13.504 -0.6511  1.4766 -1.2285
13110TIP3   OH260820   3.903   6.071   3.963 -0.0618  0.0716 -0.0728
13110TIP3    H160821   3.870   6.065   3.873 -0.9092 -1.3973  0.3010
13110TIP3    H260822   3.853   6.143   4.002 -0.5604 -0.0628 -0.4462
13111TIP3   OH260823   0.352   3.903   2.580 -0.3616 -0.2193  0.2033
13111TIP3    H160824   0.303   3.966   2.527 -0.5450 -0.4899  0.0482
13111TIP3    H260825   0.305   3.900   2.663 -0.9964 -0.9545 -0.1654
13112TIP3   OH260826   1.464   2.041  11.994 -0.5320  0.6227 -0.0198
13112TIP3    H160827   1.506   2.088  11.922  0.0683  1.0279  0.5850
13112TIP3    H260828   1.534   2.028  12.058 -0.5610 -1.5224 -0.3661
13113TIP3   OH260829   4.287   0.455  17.118 -0.3755  0.1714 -0.1750
13113TIP3    H160830   4.276   0.387  17.185 -0.9473 -0.5268 -0.9472
13113TIP3    H260831   4.282   0.407  17.035  0.3272  1.0176 -0.7176
13114TIP3   OH260832   1.675   0.611   5.309  0.2545  0.0907 -0.0671
13114TIP3    H160833   1.659   0.698   5.344  1.1065  0.1891  0.0986
13114TIP3    H260834   1.714   0.626   5.223  0.4472 -0.1192 -0.0201
13115TIP3   OH260835   6.525   0.877  15.176  0.4351 -0.2335 -0.3762
13115TIP3    H160836   6.525   0.941  15.106 -0.3111 -0.6209 -0.7430
13115TIP3    H260837   6.462   0.810  15.148  1.2429 -1.1619 -0.0369
13116TIP3   OH260838   6.528   6.537  15.987 -0.4418 -0.2530  0.1111
13116TIP3    H160839   6.581   6.596  15.934 -0.0963  0.8338  1.5863
13116TIP3    H260840   6.590   6.474  16.022  0.1504  1.4403  2.4181
13117TIP3   OH260841   5.242   3.724  16.559 -0.1478 -0.2794 -0.1038
13117TIP3    H160842   5.147   3.730  16.570 -0.2421 -0.9795 -0.4907
13117TIP3    H260843   5.267   3.808  16.521 -0.7503 -0.4693 -0.9271
13118TIP3   OH260844   4.300   6.156   0.350  0.6847  0.2527  0.3942
13118TIP3    H160845   4.349   6.161   0.268 -1.1975 -1.5936 -0.9621
13118TIP3    H260846   4.343   6.085   0.398  0.6793  0.0906  0.1655
13119TIP3   OH260847   3.684   3.663  14.845  0.1077  0.4255  0.1874
13119TIP3    H160848   3.736   3.601  14.794  0.2109  1.9151 -1.6287
13119TIP3    H260849   3.664   3.733  14.783 -0.4752  1.9316  2.0037
13120TIP3   OH260850   2.940   0.039   1.297  0.1901  0.2524 -0.6186
13120TIP3    H160851   2.939  -0.025   1.226  0.6507 -1.0145  0.4749
13120TIP3    H260852   2.939  -0.014   1.377  0.8894  1.6015  0.3236
13121TIP3   OH260853   1.956   2.087   0.765  0.0028 -0.1683  0.5866
13121TIP3    H160854   1.880   2.131   0.727  0.0712  0.3644  1.0510
13121TIP3    H260855   2.026   2.100   0.701 -0.5897 -1.6962 -0.4073
13122TIP3   OH260856   3.527   5.338  13.299 -0.1343  0.1704 -0.3600
13122TIP3    H160857   3.602   5.317  13.243  0.1124 -0.5685  0.2336
13122TIP3    H260858   3.558   5.408  13.356  0.3083 -0.5176  0.2667
13123TIP3   OH260859   2.093   0.887   2.821  0.1216 -0.3008  0.4573
13123TIP3    H160860   2.037   0.855   2.892  1.3136 -1.2045  1.0345
13123TIP3    H260861   2.166   0.930   2.866  0.1806  0.3718 -0.2627
13124TIP3   OH260862   5.273   6.414  13.480 -0.4407  0.0835  0.2239
13124TIP3    H160863   5.292   6.467  13.557  0.1162 -1.5562  1.2722
13124TIP3    H260864   5.234   6.334  13.515 -2.1570  0.1420 -1.3584
13125TIP3   OH260865   5.701   6.368   2.101  0.5680 -0.3917 -0.1884
13125TIP3    H160866   5.783   6.324   2.122  1.4733  1.5269  0.5302
13125TIP3    H260867   5.726   6.437   2.040 -0.5705 -0.0106 -0.2430
13126TIP3   OH260868   2.243   6.139   0.526 -0.1125  0.8177  0.3092
13126TIP3    H160869   2.301   6.109   0.455  0.3718 -0.6507  1.2782
13126TIP3    H260870   2.169   6.179   0.480 -0.5832 -1.5023 -1.1389
13127TIP3   OH260871   2.068   0.809  15.129 -0.0083  0.0575 -0.5181
13127TIP3    H160872   1.974   0.817  15.114 -0.1190 -0.3107  0.0016
13127TIP3    H260873   2.079   0.725  15.173  0.6092 -0.0993 -0.9563
13128TIP3   OH260874   4.142   3.710   4.349 -0.1472 -0.2520  0.2584
13128TIP3    H160875   4.154   3.617   4.367 -0.5891 -0.3067  0.2846
13128TIP3    H260876   4.115   3.714   4.257  1.1005 -0.0499 -0.1106
13129TIP3   OH260877   6.237   3.765   2.160  0.0233  0.4362 -0.0121
13129TIP3    H160878   6.222   3.672   2.173  1.2010  0.0714 -1.0412
13129TIP3    H260879   6.234   3.777   2.065  0.0579  1.4174  0.0938
13130TIP3   OH260880   6.114   4.703   1.976 -0.0653  0.1277 -0.0824
13130TIP3    H160881   6.066   4.738   1.901 -0.8990 -0.1688  0.3015
13130TIP3    H260882   6.046   4.684   2.041  0.5168 -0.8238  0.2653
13131TIP3   OH260883   1.216   4.776   3.247 -0.2296 -0.7609 -0.1163
13131TIP3    H160884   1.224   4.764   3.152 -1.1460 -0.1027 -0.2867
13131TIP3    H260885   1.251   4.863   3.263  1.2557 -1.4109  0.3660
13132TIP3   OH260886   1.621   5.846  12.267 -0.4609 -0.3615 -0.0637
13132TIP3    H160887   1.616   5.896  12.185  1.3731  1.5618  0.9198
13132TIP3    H260888   1.689   5.780  12.250 -0.8286 -0.6526 -0.4212
13133TIP3   OH260889   1.321   2.835  12.999  0.0631 -0.0365 -0.2149
13133TIP3    H160890   1.289   2.749  12.973 -0.4424  0.0513  0.1256
13133TIP3    H260891   1.258   2.867  13.063  3.0746 -1.7596  4.0399
13134TIP3   OH260892   4.700   4.055   0.944  0.0414  0.3084  0.1808
13134TIP3    H160893   4.694   3.973   0.895  2.7373 -1.5991  2.6445
13134TIP3    H260894   4.624   4.053   1.003 -1.5289  1.1368 -1.7087
13135TIP3   OH260895   6.607   5.816   4.395  0.0745 -0.1699  0.1444
13135TIP3    H160896   6.647   5.810   4.481  0.2215  0.7110  0.1499
13135TIP3    H260897   6.680   5.832   4.335 -0.0749 -0.3080 -0.0793
13136TIP3   OH260898   5.233   0.980   4.925 -0.1294  0.1796 -0.4275
13136TIP3    H160899   5.177   0.976   4.848 -0.8885  0.4040  0.1036
13136TIP3    H260900   5.197   0.914   4.985  2.4636 -2.4687 -1.5219
13137TIP3   OH260901   1.487   1.721  13.683 -0.1507  0.4847  0.0782
13137TIP3    H160902   1.448   1.674  13.609  1.8437 -1.7681  0.3380
13137TIP3    H260903   1.576   1.742  13.655  0.2771  0.5930  1.4306
13138TIP3   OH260904   4.848   1.288  15.034  0.9099 -0.1141  0.5646
13138TIP3    H160905   4.940   1.266  15.022  0.5256 -1.6057  0.1626
13138TIP3    H260906   4.846   1.384  15.032  2.4627 -0.0505  0.7538
13139TIP3   OH260907   6.418   5.994  17.024  0.2035 -0.4116  0.5702
13139TIP3    H160908   6.432   6.066  16.963 -1.2336 -1.6482 -1.3191
13139TIP3    H260909   6.501   5.946  17.023  0.2247 -0.3683 -0.3291
13140TIP3   OH260910   6.425   2.434   0.081  0.4397  0.1816 -0.5737
13140TIP3    H160911   6.437   2.489   0.004  0.9317  1.6435  0.4875
13140TIP3    H260912   6.367   2.485   0.138  0.0176 -0.8951  0.0031
13141TIP3   OH260913   5.207   5.974  12.893  0.1848 -0.0463 -0.2237
13141TIP3    H160914   5.267   6.048  12.885 -0.1495  0.1058 -1.6192
13141TIP3    H260915   5.122   6.009  12.870  0.0365 -0.8797 -1.0012
13142TIP3   OH260916   6.280   4.110  17.148  1.0980 -0.0859 -0.3721
13142TIP3    H160917   6.233   4.174  17.202  0.1815 -0.1532 -1.0691
13142TIP3    H260918   6.255   4.025  17.184  0.2386 -0.1455 -1.0620
13143TIP3   OH260919   1.010   1.842  16.203  0.9831  0.0967  0.0279
13143TIP3    H160920   0.946   1.770  16.202  1.8204 -0.6952  0.8606
13143TIP3    H260921   0.964   1.916  16.163 -0.2986 -0.5689  0.2141
13144TIP3   OH260922   5.387   3.094   5.363  0.1184  0.6572  0.6604
13144TIP3    H160923   5.450   3.023   5.348  0.8886  1.2783  0.9121
13144TIP3    H260924   5.343   3.070   5.444 -0.1538  0.0867  0.3470
13145TIP3   OH260925   0.483   3.028  15.214 -0.0268 -0.4494 -0.5617
13145TIP3    H160926   0.423   3.077  15.159  0.2874 -0.8854 -1.3032
13145TIP3    H260927   0.449   2.938  15.214  0.1174 -0.5085 -0.2487
13146TIP3   OH260928   0.059   4.421  13.416  0.4142 -0.0709  0.1457
13146TIP3    H160929   0.052   4.372  13.334  0.3415 -0.4026  0.3444
13146TIP3    H260930   0.093   4.357  13.479 -1.1690 -0.3253  0.7917
13147TIP3   OH260931   5.419   0.641   0.149 -0.1445  0.3052  0.3773
13147TIP3    H160932   5.412   0.724   0.102 -1.4270  0.2156  0.3781
13147TIP3    H260933   5.431   0.666   0.241 -0.3616  0.4943  0.3552
13148TIP3   OH260934   4.928   6.126  16.065  0.5299 -0.1883 -0.1419
13148TIP3    H160935   4.999   6.190  16.071 -0.0978  0.3804  2.3577
13148TIP3    H260936   4.848   6.176  16.081  0.2244 -1.7917  5.3280
13149TIP3   OH260937   3.906   0.630  14.289  0.1098 -0.0812 -0.9176
13149TIP3    H160938   3.868   0.673  14.366 -0.1887 -0.7826 -0.6596
13149TIP3    H260939   3.832   0.622  14.228  0.0208 -0.7684 -0.7204
13150TIP3   OH260940   3.346   3.683   2.586 -0.1445 -0.4561 -0.2172
13150TIP3    H160941   3.306   3.640   2.662  0.9033  0.9034  1.1826
13150TIP3    H260942   3.432   3.712   2.618  0.4487 -0.1008 -2.0246
13151TIP3   OH260943   2.175   4.834   1.099 -0.0413  0.4158  0.2796
13151TIP3    H160944   2.171   4.803   1.190  0.9980 -1.2281 -0.1953
13151TIP3    H260945   2.201   4.926   1.106  0.6578  0.1360  1.6199
13152TIP3   OH260946   3.978   6.762   0.292  0.1016 -0.1328 -0.3408
13152TIP3    H160947   3.925   6.811   0.229 -0.3238  1.2694  1.0462
13152TIP3    H260948   3.940   6.674   0.292  0.3430 -0.2832 -2.2677
13153TIP3   OH260949   6.043   2.945  11.054  0.0119 -0.2755 -0.5959
13153TIP3    H160950   6.075   3.028  11.020  0.7547 -0.7860 -1.1840
13153TIP3    H260951   5.957   2.933  11.012  0.4461 -0.3849 -1.4684
13154TIP3   OH260952   5.720   2.878   4.831 -0.3218 -0.3465 -1.0204
13154TIP3    H160953   5.730   2.788   4.861 -1.5639 -0.3800 -0.6608
13154TIP3    H260954   5.696   2.928   4.909  0.1667  0.2654 -1.2492
13155TIP3   OH260955   6.201   2.736   0.441 -0.6987 -0.4060  0.2344
13155TIP3    H160956   6.190   2.687   0.522  1.6512 -0.4918  0.5683
13155TIP3    H260957   6.141   2.810   0.449 -1.8616 -1.4133  1.1958
13156TIP3   OH260958   4.927   0.824   4.534 -0.1433  0.1021 -0.1804
13156TIP3    H160959   5.011   0.786   4.507  0.3940  2.3217 -2.0270
13156TIP3    H260960   4.935   0.835   4.628  1.9291  0.8168 -0.3777
13157TIP3   OH260961   0.571   2.237  13.901 -0.0924 -0.1555 -0.8528
13157TIP3    H160962   0.510   2.203  13.966  0.6061 -1.6535 -0.9330
13157TIP3    H260963   0.517   2.285  13.838 -0.8173  0.9937  0.6104
13158TIP3   OH260964   2.259   1.389  12.658  0.1235  0.6351  0.1315
13158TIP3    H160965   2.237   1.398  12.751  3.3306  0.0443  1.0500
13158TIP3    H260966   2.306   1.306  12.652 -0.1230  0.6069 -2.0796
13159TIP3   OH260967   5.199   1.611  14.323 -0.2561 -0.8274 -0.4389
13159TIP3    H160968   5.114   1.653  14.309 -0.0994 -0.4691 -0.3395
13159TIP3    H260969   5.186   1.520  14.296 -0.9064 -0.9913  0.3994
13160TIP3   OH260970   4.485   0.439   4.399 -0.7655  0.3161 -0.1115
13160TIP3    H160971   4.404   0.445   4.349 -0.0086  0.2341 -1.3990
13160TIP3    H260972   4.527   0.359   4.367 -0.2879  0.2232  0.7192
13161TIP3   OH260973   3.945   1.991  16.307  0.0470 -0.2656  0.3177
13161TIP3    H160974   4.008   1.979  16.236 -1.5707 -0.0938 -1.1984
13161TIP3    H260975   3.868   2.029  16.265 -0.9482 -0.1000  2.1867
13162TIP3   OH260976   6.140   3.739   0.628 -0.0178 -0.4363 -0.0284
13162TIP3    H160977   6.137   3.643   0.627  1.6335 -0.5096 -0.7311
13162TIP3    H260978   6.221   3.760   0.674 -0.2362  0.6303 -0.1082
13163TIP3   OH260979   0.295   0.457   4.775  0.0207 -0.3005 -0.0749
13163TIP3    H160980   0.250   0.528   4.729  2.0214  1.4376  0.5095
13163TIP3    H260981   0.336   0.499   4.851  1.5370 -1.9897  0.1190
13164TIP3   OH260982   1.864   4.899  16.503  0.3106  0.8707  0.3570
13164TIP3    H160983   1.938   4.861  16.455  0.9607  1.6112  0.7369
13164TIP3    H260984   1.797   4.831  16.503 -0.7787  1.6356 -3.8247
13165TIP3   OH260985   1.075   1.468  12.386 -0.0293  0.0346  0.1673
13165TIP3    H160986   1.108   1.555  12.411  0.1787 -0.5584  2.0573
13165TIP3    H260987   0.983   1.469  12.412 -0.2151 -0.1003 -0.4491
13166TIP3   OH260988   3.219   3.667  15.661  0.1590  0.0647 -0.0772
13166TIP3    H160989   3.301   3.705  15.692  0.1830  1.5336 -1.7856
13166TIP3    H260990   3.160   3.671  15.737  1.8294 -1.7335  1.4205
13167TIP3   OH260991   6.314   1.481   2.154  0.3111  0.0581 -0.1893
13167TIP3    H160992   6.308   1.401   2.206 -0.6744  0.1537 -0.1367
13167TIP3    H260993   6.225   1.517   2.154 -0.0759 -0.6253 -3.0037
13168TIP3   OH260994   3.782   2.341  13.110  0.1486 -0.2925  0.0490
13168TIP3    H160995   3.867   2.385  13.114  0.6448 -1.2499  0.4470
13168TIP3    H260996   3.718   2.411  13.119  0.9375  0.1659  2.7966
13169TIP3   OH260997   2.755   0.243   3.231  0.6171 -0.6785 -0.0600
13169TIP3    H160998   2.758   0.223   3.325 -1.3172 -2.1304 -0.2407
13169TIP3    H260999   2.730   0.335   3.226  1.7027 -0.3135  0.8246
13170TIP3   OH261000   0.647   5.068   5.299  0.1153  0.4364  0.6191
13170TIP3    H161001   0.616   5.125   5.369 -0.9610 -0.3509  0.8084
13170TIP3    H261002   0.742   5.074   5.303  0.0357  1.2104  1.4670
13171TIP3   OH261003   1.327   3.703   1.997  0.4059  0.0836  0.7838
13171TIP3    H161004   1.269   3.639   2.040 -2.7125  1.2772 -1.2888
13171TIP3    H261005   1.367   3.654   1.926 -0.7464  0.0138  0.1637
13172TIP3   OH261006   1.294   0.202  14.590  0.3172  0.4386 -0.2461
13172TIP3    H161007   1.256   0.232  14.673 -0.8698 -0.4958 -0.4196
13172TIP3    H261008   1.268   0.110  14.585  1.7175  0.0477 -0.9168
13173TIP3   OH261009   2.365   6.371  13.366 -0.0737  0.4449 -0.0946
13173TIP3    H161010   2.431   6.311  13.330  1.3311  1.7189  0.2842
13173TIP3    H261011   2.397   6.458  13.345 -1.2745  1.1250  0.7619
13174TIP3   OH261012   4.981   5.806   3.908  0.0349 -0.1393  0.0013
13174TIP3    H161013   4.922   5.881   3.912  0.7504  0.5870 -1.8655
13174TIP3    H261014   5.069   5.843   3.916  0.3423 -0.9739  0.6956
13175TIP3   OH261015   0.099   4.379   2.223  0.4261 -0.2140 -0.5653
13175TIP3    H161016   0.041   4.304   2.232 -0.2276  0.3973  0.4707
13175TIP3    H261017   0.040   4.455   2.219  1.0940  0.2969 -1.0975
13176TIP3   OH261018   1.946   3.137  10.178  0.5822 -0.1793  0.6963
13176TIP3    H161019   1.986   3.123  10.264  1.4237 -1.1911  0.1711
13176TIP3    H261020   2.012   3.185  10.128  0.4406 -0.3239  0.3632
13177TIP3   OH261021   4.104   1.903  15.513  0.2331  0.1319  0.3885
13177TIP3    H161022   4.039   1.963  15.549 -0.0479 -0.3466  0.6993
13177TIP3    H261023   4.070   1.879  15.426  0.5258  0.6975  0.1191
13178TIP3   OH261024   6.020   5.754   1.996  0.0217  0.0100  0.0398
13178TIP3    H161025   5.974   5.705   1.928 -0.9657 -0.2716  0.8703
13178TIP3    H261026   6.074   5.688   2.041 -0.8893 -0.2435  0.8071
13179TIP3   OH261027   5.620   0.286  17.264 -0.6067 -0.0468 -0.0070
13179TIP3    H161028   5.597   0.194  17.249 -0.6024 -0.4351  2.0261
13179TIP3    H261029   5.548   0.321  17.316 -0.7954  1.2364 -1.0862
13180TIP3   OH261030   0.982   5.349  11.285 -0.3778 -0.2379  0.1510
13180TIP3    H161031   0.933   5.397  11.352  0.1357 -0.3574  0.6171
13180TIP3    H261032   0.970   5.400  11.205  1.3296  1.4632  0.9174
13181TIP3   OH261033   6.775   0.363  13.881  0.7041  0.6002 -0.5063
13181TIP3    H161034   6.724   0.328  13.953 -0.0462  1.2908 -0.6901
13181TIP3    H261035   6.826   0.434  13.919  1.2020  0.1953 -0.4133
13182TIP3   OH261036   6.225   0.328   0.625  0.2440  0.5717 -0.1608
13182TIP3    H161037   6.315   0.360   0.629  0.0669  1.1237 -0.4953
13182TIP3    H261038   6.234   0.235   0.602  0.9513 -0.7625  4.5260
13183TIP3   OH261039   4.266   3.374   2.276 -0.0286  0.1308  0.3863
13183TIP3    H161040   4.243   3.295   2.326 -0.3752  0.0540  0.1075
13183TIP3    H261041   4.353   3.397   2.307  0.8144 -1.3633 -0.7731
13184TIP3   OH261042   0.779   1.150  15.914  0.2329 -0.0968  0.0094
13184TIP3    H161043   0.870   1.177  15.927  0.4443 -1.1241  0.9009
13184TIP3    H261044   0.743   1.214  15.853  2.2554 -1.0478 -2.3640
13185TIP3   OH261045   1.285   2.645   4.556 -0.0723 -0.0240  0.1245
13185TIP3    H161046   1.305   2.563   4.600  1.6255  1.1860  1.7631
13185TIP3    H261047   1.189   2.646   4.550 -0.3396 -0.7847  2.8629
13186TIP3   OH261048   1.847   1.664  12.742 -0.2400 -0.2327 -0.2765
13186TIP3    H161049   1.803   1.590  12.699 -0.7161 -0.4239  0.5045
13186TIP3    H261050   1.804   1.742  12.706 -0.4194 -0.3763 -0.3776
13187TIP3   OH261051   4.655   1.937   0.254 -0.8285  0.1826 -0.3427
13187TIP3    H161052   4.636   2.018   0.302 -1.3160 -0.0406 -0.1560
13187TIP3    H261053   4.750   1.937   0.245 -0.6958  0.1150  0.8376
13188TIP3   OH261054   3.240   4.917   2.004 -0.0678 -0.1216 -0.1503
13188TIP3    H161055   3.326   4.928   1.964  0.4765 -2.9587  0.0765
13188TIP3    H261056   3.252   4.852   2.073 -2.5272 -1.3434 -0.7266
13189TIP3   OH261057   2.777   2.963  12.238  0.2242  0.5353 -0.1809
13189TIP3    H161058   2.779   3.049  12.281  1.3976 -0.6158  2.2394
13189TIP3    H261059   2.695   2.963  12.189 -0.1377  2.7718  0.2905
13190TIP3   OH261060   0.696   5.520  16.044 -0.1812  0.5054  0.2858
13190TIP3    H161061   0.787   5.542  16.023 -0.4244  1.0399 -0.2393
13190TIP3    H261062   0.653   5.605  16.057 -1.3016  0.4576 -2.4384
13191TIP3   OH261063   6.196   1.422  12.643  0.0844  0.5927 -0.5453
13191TIP3    H161064   6.245   1.366  12.702  1.0031  0.8391 -1.0534
13191TIP3    H261065   6.156   1.488  12.699 -2.5272 -1.5370  0.3244
13192TIP3   OH261066   3.004   1.036  15.126  0.3917  0.4598 -0.8251
13192TIP3    H161067   3.057   1.103  15.084  2.3972 -0.5294  0.0168
13192TIP3    H261068   3.049   1.018  15.208 -0.7910 -1.0509 -0.4685
13193TIP3   OH261069   4.397   1.385  12.775  0.0240  0.0598  0.5917
13193TIP3    H161070   4.444   1.318  12.725 -0.1709 -0.3451  0.9412
13193TIP3    H261071   4.374   1.342  12.857 -0.5018  0.4107  0.6380
13194TIP3   OH261072   3.680   4.659  15.335  0.4016  0.2784 -0.0343
13194TIP3    H161073   3.590   4.649  15.305 -0.4448  2.9284  1.3202
13194TIP3    H261074   3.714   4.733  15.285  0.7395  1.3265  1.6815
13195TIP3   OH261075   5.653   6.112   6.647  0.0001 -0.1301  0.0899
13195TIP3    H161076   5.685   6.110   6.738  2.7383 -1.4778 -0.7898
13195TIP3    H261077   5.667   6.202   6.619 -0.4497  0.1916  0.8585
13196TIP3   OH261078   5.364   3.633   2.037 -0.3204 -0.4116  0.0799
13196TIP3    H161079   5.423   3.598   1.971  0.0958  0.8035 -0.2239
13196TIP3    H261080   5.276   3.620   2.000 -0.1729 -1.1011 -0.0296
13197TIP3   OH261081   0.188   2.883  16.574 -0.2427  0.7497  0.2523
13197TIP3    H161082   0.257   2.931  16.619  0.0347  0.5883  0.0036
13197TIP3    H261083   0.108   2.931  16.594  0.1949  2.1262 -1.1091
13198TIP3   OH261084   4.985   6.054  16.916 -0.0712  0.5664 -0.4126
13198TIP3    H161085   4.906   6.034  16.966  0.3047  1.2882  0.5090
13198TIP3    H261086   4.977   6.147  16.895  1.2283  1.0242  1.0036
13199TIP3   OH261087   3.146   0.458   6.158 -0.6872  0.5357  0.2009
13199TIP3    H161088   3.227   0.416   6.131 -0.6782  1.2417 -0.9622
13199TIP3    H261089   3.124   0.418   6.242  0.4262 -0.2425  0.1357
13200TIP3   OH261090   3.234   4.308   1.486 -0.6090  0.1507  0.2907
13200TIP3    H161091   3.266   4.227   1.526  0.0237 -0.2127 -0.8901
13200TIP3    H261092   3.220   4.285   1.394  1.6973  1.9289 -0.5861
13201TIP3   OH261093   0.247   3.807  16.630 -0.0531  0.0121 -0.4882
13201TIP3    H161094   0.240   3.886  16.683 -0.3761 -1.1889  1.3822
13201TIP3    H261095   0.339   3.801  16.605 -0.0776  1.0801 -0.8545
13202TIP3   OH261096   0.424   5.479   3.242 -0.8741 -0.4537 -0.3562
13202TIP3    H161097   0.458   5.444   3.325 -0.7002  2.7167  1.0347
13202TIP3    H261098   0.444   5.411   3.178  0.4752 -2.3359  1.8784
13203TIP3   OH261099   1.334   6.116   6.690 -0.1401  0.1388 -0.4812
13203TIP3    H161100   1.329   6.021   6.705 -2.0469  0.4636  1.4314
13203TIP3    H261101   1.259   6.135   6.633 -1.0172  0.7027  0.7987
13204TIP3   OH261102   3.476   3.659  13.859  0.1066 -0.0594 -0.6825
13204TIP3    H161103   3.444   3.577  13.821  0.6265 -1.1492  1.0881
13204TIP3    H261104   3.571   3.657  13.846  0.3275 -0.5965  0.8760
13205TIP3   OH261105   2.037   4.599  15.965 -0.5488 -0.3090  0.1197
13205TIP3    H161106   2.060   4.689  15.942 -0.4302 -0.1599  0.7992
13205TIP3    H261107   1.945   4.590  15.940 -0.8463  0.3176  0.9595
13206TIP3   OH261108   4.519   4.628   2.325 -0.7096  0.0438 -0.0614
13206TIP3    H161109   4.451   4.695   2.336 -0.5275  0.1345  0.5475
13206TIP3    H261110   4.582   4.667   2.265 -0.3259  0.6423  0.7142
13207TIP3   OH261111   1.741   5.839   6.611  0.7979  0.5399  0.1093
13207TIP3    H161112   1.733   5.896   6.687  0.7411  2.4052 -1.2319
13207TIP3    H261113   1.653   5.803   6.599  0.3892  1.5614 -0.0458
13208TIP3   OH261114   3.694   0.974  13.199  0.7300  0.0944 -0.2256
13208TIP3    H161115   3.772   1.030  13.192  0.5583  0.2480 -1.0910
13208TIP3    H261116   3.629   1.017  13.143 -0.5915  0.9396  1.8414
13209TIP3   OH261117   0.500   2.436   4.901 -0.5053  0.2521 -0.8533
13209TIP3    H161118   0.448   2.376   4.848 -0.3636 -2.3298  1.7168
13209TIP3    H261119   0.439   2.472   4.965  0.4023 -1.6977  1.2637
13210TIP3   OH261120   4.918   5.825  13.403 -0.0652  0.1045  0.3021
13210TIP3    H161121   4.999   5.802  13.447  0.2133  0.7779  0.1537
13210TIP3    H261122   4.926   5.787  13.315  0.0242  0.0421  0.3377
13211TIP3   OH261123   3.305   3.210   1.048  0.2895  0.2355  0.3344
13211TIP3    H161124   3.256   3.285   1.082 -0.5058  0.0870 -0.4499
13211TIP3    H261125   3.336   3.165   1.126 -0.8947  0.2914  0.8596
13212TIP3   OH261126   6.742   3.846  11.924 -0.1612 -0.2351 -0.4474
13212TIP3    H161127   6.774   3.878  11.839 -2.1010  0.4547 -0.9799
13212TIP3    H261128   6.746   3.922  11.981  0.7539 -0.5945 -0.0232
13213TIP3   OH261129   3.350   3.132  11.254  0.1128  0.8833 -0.3836
13213TIP3    H161130   3.387   3.212  11.291  0.6664 -0.8096  3.0324
13213TIP3    H261131   3.413   3.063  11.276 -1.8001 -0.9878 -0.4463
13214TIP3   OH261132   6.659   4.837  17.277 -0.0773 -0.4540 -0.3479
13214TIP3    H161133   6.607   4.903  17.231  0.2241 -0.3626 -0.5618
13214TIP3    H261134   6.724   4.808  17.213  0.7760  0.1546  0.2018
13215TIP3   OH261135   2.976   6.077  15.009 -0.2285  0.8337 -0.1837
13215TIP3    H161136   3.028   6.083  14.929 -0.4237  0.5649 -0.3331
13215TIP3    H261137   3.003   5.993  15.048 -0.3093  0.8501 -0.0929
13216TIP3   OH261138   6.813   1.884  13.085  0.5982 -0.3687 -0.2313
13216TIP3    H161139   6.819   1.925  13.171 -0.1240 -0.5883 -0.0674
13216TIP3    H261140   6.720   1.865  13.074  0.6146  0.1024 -1.2732
13217TIP3   OH261141   6.285   2.433  12.281 -0.2074 -0.2454 -0.0412
13217TIP3    H161142   6.248   2.516  12.253 -1.0463 -0.1255  1.3451
13217TIP3    H261143   6.355   2.456  12.342  0.7796 -0.5372 -1.0143
13218TIP3   OH261144   4.037   3.101   4.875 -0.0810 -0.3348  0.1904
13218TIP3    H161145   4.073   3.143   4.954  0.3504 -0.2281 -0.0597
13218TIP3    H261146   4.114   3.070   4.827 -0.3991 -1.5845  0.4548
13219TIP3   OH261147   2.668   4.191   2.384  0.5646 -0.2239  0.3395
13219TIP3    H161148   2.699   4.136   2.456 -0.0065  0.5274  1.2064
13219TIP3    H261149   2.735   4.259   2.375  0.9996 -0.7488 -0.3475
13220TIP3   OH261150   3.041   6.608  17.290  0.1080 -0.2125  0.8390
13220TIP3    H161151   3.129   6.575  17.271  0.8138  0.9068  1.9845
13220TIP3    H261152   3.049   6.703  17.280 -0.8219 -0.0559  1.4947
13221TIP3   OH261153   5.457   2.779   3.998 -0.1932  0.5695 -0.1385
13221TIP3    H161154   5.432   2.710   4.060 -0.0987  0.8417  0.2074
13221TIP3    H261155   5.481   2.853   4.054  0.9903  0.4549 -0.4735
13222TIP3   OH261156   2.180   5.511  13.355  0.3036  0.2691 -0.6935
13222TIP3    H161157   2.143   5.490  13.270  1.3385 -1.5727 -0.7315
13222TIP3    H261158   2.136   5.452  13.416  0.0701  1.0880 -0.0530
13223TIP3   OH261159   4.416   4.158  14.396  0.1564 -0.0002 -0.0857
13223TIP3    H161160   4.363   4.196  14.326  0.9092  1.0336 -0.1188
13223TIP3    H261161   4.505   4.185  14.376  0.4031  0.2243  1.2132
13224TIP3   OH261162   5.615   4.252  12.207  0.0534 -0.1992  0.3712
13224TIP3    H161163   5.695   4.266  12.257 -0.3957  0.4035  0.9416
13224TIP3    H261164   5.643   4.206  12.128  1.2845  1.7640 -0.4129
13225TIP3   OH261165   4.017   0.704   4.054  0.6848 -0.2087  0.0498
13225TIP3    H161166   3.990   0.623   4.011 -0.4632  0.8173 -1.2873
13225TIP3    H261167   3.936   0.741   4.090  0.6815  1.5583 -1.5853
13226TIP3   OH261168   2.602   2.660   2.565  0.3488  0.4442 -0.0899
13226TIP3    H161169   2.654   2.713   2.505 -0.6044  0.6679 -0.7509
13226TIP3    H261170   2.513   2.693   2.555 -0.1640 -0.8630 -0.0487
13227TIP3   OH261171   3.425   3.692   5.601 -0.3904  1.0118  0.0541
13227TIP3    H161172   3.367   3.625   5.637  0.6009 -0.7923 -1.4987
13227TIP3    H261173   3.503   3.688   5.656 -0.6208  1.4339  0.4160
13228TIP3   OH261174   5.153   1.796  16.501 -1.0627 -0.6105 -0.0181
13228TIP3    H161175   5.233   1.839  16.531 -0.0980 -1.2869 -1.5113
13228TIP3    H261176   5.122   1.850  16.429  1.1393 -3.1132 -3.1190
13229TIP3   OH261177   4.351   1.257   0.969  0.3440  0.0251  0.0139
13229TIP3    H161178   4.323   1.266   0.878  4.4189  0.2567 -1.4420
13229TIP3    H261179   4.391   1.171   0.973  1.8103  0.7098  1.0077
13230TIP3   OH261180   2.194   4.722  11.291  0.4531  0.3210  0.0327
13230TIP3    H161181   2.216   4.638  11.249 -0.1818 -0.0129  0.3597
13230TIP3    H261182   2.140   4.767  11.226  0.1372  0.1407  0.1677
13231TIP3   OH261183   6.248   0.730   5.830 -0.5968 -0.2062 -0.0116
13231TIP3    H161184   6.203   0.651   5.860  1.3437 -1.6642 -0.7269
13231TIP3    H261185   6.276   0.774   5.911 -1.8355 -0.1346  0.3931
13232TIP3   OH261186   1.204   5.988  16.458 -0.0449 -1.0568  0.5864
13232TIP3    H161187   1.146   6.048  16.410  1.1365 -1.3307 -1.2826
13232TIP3    H261188   1.275   6.044  16.490  0.8670 -1.3408 -0.8460
13233TIP3   OH261189   0.086   3.091   4.053 -0.3110 -0.1176  0.3256
13233TIP3    H161190   0.164   3.035   4.052  0.0258  0.3551 -0.1631
13233TIP3    H261191   0.025   3.045   4.112  1.0040  0.4101  2.2027
13234TIP3   OH261192   3.498   2.545   3.684 -0.7350  0.2768  0.2175
13234TIP3    H161193   3.417   2.551   3.633 -0.1120  0.6571 -0.7675
13234TIP3    H261194   3.557   2.494   3.628  0.8368  2.8633 -0.6488
13235TIP3   OH261195   2.386   1.268   3.862 -0.0498 -0.3352  0.2077
13235TIP3    H161196   2.319   1.314   3.913  1.8268  2.2124  0.5429
13235TIP3    H261197   2.412   1.194   3.918  0.4912  1.2054  2.0878
13236TIP3   OH261198   2.649   5.900   2.736 -0.1068 -0.7700 -0.1165
13236TIP3    H161199   2.679   5.877   2.824 -0.7915  1.7263  0.8552
13236TIP3    H261200   2.553   5.891   2.741 -0.1638 -0.3772 -0.5221
13237TIP3   OH261201   1.447   6.814   2.035 -0.3111  0.0779 -0.4223
13237TIP3    H161202   1.408   6.760   1.967 -2.3795 -0.5342  1.1430
13237TIP3    H261203   1.426   6.904   2.009  0.5582 -0.0177 -1.5145
13238TIP3   OH261204   0.801   6.406  13.424  0.1190  0.4469  0.4283
13238TIP3    H161205   0.822   6.491  13.384  1.0398  0.8417  1.7039
13238TIP3    H261206   0.793   6.346  13.350  0.2952  1.4634 -0.4373
13239TIP3   OH261207   5.278   5.021  15.300  0.5212 -0.3435 -0.2222
13239TIP3    H161208   5.319   4.935  15.305  2.9319  0.7628  0.4170
13239TIP3    H261209   5.303   5.055  15.214 -0.9602 -0.4809 -0.7433
13240TIP3   OH261210   0.734   1.377   5.495  0.2449  0.0401 -0.3306
13240TIP3    H161211   0.692   1.375   5.409 -1.5329 -0.4880  0.5142
13240TIP3    H261212   0.664   1.359   5.557  1.0492  2.3322  1.4256
13241TIP3   OH261213   6.666   0.959  12.386  0.0218  0.1949 -0.3813
13241TIP3    H161214   6.581   0.960  12.429  0.2143 -1.1394  0.0763
13241TIP3    H261215   6.648   0.992  12.298 -0.9665 -0.0711 -0.2949
13242TIP3   OH261216   1.073   2.622  10.876  0.3673  0.3784 -0.3394
13242TIP3    H161217   1.141   2.653  10.816  0.6794 -0.3554 -0.3789
13242TIP3    H261218   1.010   2.578  10.819 -0.4096  1.4851 -0.3639
13243TIP3   OH261219   0.452   4.449   3.235  0.2951  0.3139 -0.1794
13243TIP3    H161220   0.492   4.370   3.199 -2.1980 -1.0598 -0.1022
13243TIP3    H261221   0.492   4.458   3.322  0.5069 -0.9416 -0.1326
13244TIP3   OH261222   2.791   3.676  12.175 -0.3047 -0.3265  0.4090
13244TIP3    H161223   2.720   3.617  12.149 -0.9271  0.2639  0.7410
13244TIP3    H261224   2.750   3.735  12.239  0.5532 -0.1481  0.8021
13245TIP3   OH261225   6.640   2.760   6.547  0.0503 -0.8606 -0.0041
13245TIP3    H161226   6.589   2.680   6.537 -0.3688 -0.5722 -0.2041
13245TIP3    H261227   6.602   2.821   6.483  1.8040 -1.2210 -1.4712
13246TIP3   OH261228   6.068   0.010   3.671 -0.3981  0.1065 -0.2573
13246TIP3    H161229   6.021   0.019   3.754  2.2743 -1.6923  1.6514
13246TIP3    H261230   6.149   0.059   3.684  0.1988 -0.4558 -1.6959
13247TIP3   OH261231   6.355   0.541   1.131 -0.1924  0.1434  0.1312
13247TIP3    H161232   6.315   0.563   1.047 -0.7613  1.1938  0.6594
13247TIP3    H261233   6.442   0.508   1.109 -0.0085  1.2130 -0.8336
13248TIP3   OH261234   2.652   4.339   0.330  0.4804 -0.8850  0.0626
13248TIP3    H161235   2.647   4.382   0.245  1.0408 -0.8512  0.0467
13248TIP3    H261236   2.696   4.403   0.386 -1.0925 -0.3463  0.7369
13249TIP3   OH261237   2.055   6.018  12.640 -0.2766  0.1002 -0.1875
13249TIP3    H161238   2.036   5.990  12.550  1.2674 -1.7801  0.0078
13249TIP3    H261239   2.020   5.948  12.695  0.3253  0.3819  0.5716
13250TIP3   OH261240   5.946   2.925  15.563 -0.0890 -0.2071 -0.1411
13250TIP3    H161241   5.976   2.892  15.648  0.5684 -0.8509 -0.6063
13250TIP3    H261242   5.856   2.894  15.556 -0.0317 -0.4512  0.1747
13251TIP3   OH261243   6.720   3.497   0.342 -0.2390  0.3477  0.4372
13251TIP3    H161244   6.745   3.567   0.403 -0.0888  0.8643 -0.2109
13251TIP3    H261245   6.754   3.525   0.258  0.3609 -0.8109  0.2790
13252TIP3   OH261246   4.257   2.784   5.391 -0.3906 -0.1078  0.1949
13252TIP3    H161247   4.211   2.844   5.332  0.3838 -0.2958 -0.6261
13252TIP3    H261248   4.212   2.701   5.381 -0.1334 -0.1937 -0.3132
13253TIP3   OH261249   2.649   1.121  12.501  0.1078 -0.8246  0.2471
13253TIP3    H161250   2.721   1.113  12.438  0.9117  0.9782  0.8631
13253TIP3    H261251   2.572   1.092  12.453  1.1327 -2.2104 -0.6340
13254TIP3   OH261252   0.222   1.662   4.683  0.1333 -0.4527 -0.4098
13254TIP3    H161253   0.191   1.585   4.635  1.8269 -1.7749  0.4940
13254TIP3    H261254   0.311   1.676   4.652  1.2233 -1.2336  2.1019
13255TIP3   OH261255   2.818   4.141   5.269 -0.2790  0.0995  0.2958
13255TIP3    H161256   2.785   4.188   5.192  0.3862  2.2320  1.2404
13255TIP3    H261257   2.900   4.185   5.290 -0.6047 -0.2277  2.4216
13256TIP3   OH261258   6.079   3.747   3.793  0.0170  0.1793  0.0717
13256TIP3    H161259   6.086   3.815   3.726  0.7872  0.4018  0.3735
13256TIP3    H261260   6.040   3.672   3.747 -0.4526  0.6760 -0.3640
13257TIP3   OH261261   1.475   6.459   6.930  0.0276  0.3218 -0.0258
13257TIP3    H161262   1.387   6.424   6.938  0.3021 -0.3983 -0.1424
13257TIP3    H261263   1.471   6.542   6.978 -0.4774 -0.1326  0.7570
13258TIP3   OH261264   4.636   0.268  13.595 -0.1375  0.1793  0.0068
13258TIP3    H161265   4.601   0.340  13.541  0.8386  1.9343  1.5820
13258TIP3    H261266   4.590   0.276  13.678  1.7690  0.6221  1.0695
13259TIP3   OH261267   3.698   3.693   0.407 -0.0659  0.6371 -0.3190
13259TIP3    H161268   3.788   3.700   0.376 -0.6179 -0.7929 -2.4422
13259TIP3    H261269   3.645   3.691   0.328 -1.7982 -0.5734  0.7902
13260TIP3   OH261270   2.927   2.507  13.766 -0.4789 -0.5557 -0.4120
13260TIP3    H161271   2.864   2.517  13.694 -2.3354 -0.2467  1.1718
13260TIP3    H261272   2.945   2.413  13.769 -0.9328 -0.6618 -0.8443
13261TIP3   OH261273   3.677   6.097   1.261  0.6767 -0.1938 -0.3103
13261TIP3    H161274   3.613   6.053   1.205  0.1087 -0.7510  0.7526
13261TIP3    H261275   3.682   6.043   1.340  1.7635  0.3511  0.0211
13262TIP3   OH261276   3.584   0.148  15.283 -0.0693 -0.4179  0.8109
13262TIP3    H161277   3.596   0.127  15.375 -0.2344 -0.6498  0.7785
13262TIP3    H261278   3.617   0.071  15.236 -0.3993 -0.4874  0.6885
13263TIP3   OH261279   4.648   2.340  15.625 -0.1351 -0.3186  0.3116
13263TIP3    H161280   4.581   2.297  15.572 -0.4342  0.9773 -0.3943
13263TIP3    H261281   4.650   2.289  15.706 -0.5654 -1.5699 -0.4274
13264TIP3   OH261282   6.631   3.726   4.400  0.3198  0.3091 -0.0199
13264TIP3    H161283   6.646   3.789   4.330 -0.1813 -0.8565 -1.2167
13264TIP3    H261284   6.668   3.644   4.367  0.0974 -0.2630  1.0930
13265TIP3   OH261285   6.367   0.932  17.292 -0.5235 -0.2601 -0.5075
13265TIP3    H161286   6.438   0.874  17.321 -0.0679  0.5239 -0.0382
13265TIP3    H261287   6.287   0.890  17.324 -0.0703  0.3718  1.5983
13266TIP3   OH261288   0.835   2.007   5.459  0.4171  0.4247  0.5132
13266TIP3    H161289   0.810   1.915   5.463  1.1931  0.2337  1.5519
13266TIP3    H261290   0.830   2.030   5.367  0.1537 -0.6446  0.2532
13267TIP3   OH261291   1.578   3.200  11.775  0.1091 -0.5502  0.0765
13267TIP3    H161292   1.497   3.189  11.724 -0.5155  1.0518  0.6731
13267TIP3    H261293   1.640   3.140  11.734 -2.2078 -4.3184  1.5149
13268TIP3   OH261294   4.557   2.105   0.956  0.0372 -0.2808 -0.3225
13268TIP3    H161295   4.521   2.185   0.916 -0.1961 -0.2093  0.0304
13268TIP3    H261296   4.504   2.092   1.035 -0.4716 -1.2460 -0.8043
13269TIP3   OH261297   5.068   2.757   5.646 -0.2361  0.1966 -0.2460
13269TIP3    H161298   5.157   2.751   5.612  0.1952  1.1828  0.6696
13269TIP3    H261299   5.046   2.668   5.673  1.1127  0.2416  1.0861
13270TIP3   OH261300   4.616   2.726   4.785 -0.4086 -0.4840  0.3633
13270TIP3    H161301   4.551   2.789   4.816 -0.6503  0.5932 -2.1719
13270TIP3    H261302   4.570   2.642   4.787 -1.2922 -0.0135  0.3362
13271TIP3   OH261303   3.134   5.232  11.304 -0.1031 -0.0296 -0.6728
13271TIP3    H161304   3.152   5.218  11.397 -1.1630  0.6925 -0.3317
13271TIP3    H261305   3.213   5.275  11.270  0.0169  0.3403  0.0590
13272TIP3   OH261306   1.216   4.196  17.140 -0.1973  0.7115  0.0832
13272TIP3    H161307   1.253   4.262  17.199 -0.0403 -0.9255  1.9200
13272TIP3    H261308   1.287   4.134  17.125 -0.4673  0.6997 -1.2521
13273TIP3   OH261309   3.352   5.633  11.564 -0.4683  0.0728  0.1462
13273TIP3    H161310   3.392   5.620  11.650  0.3346  0.9569 -0.0721
13273TIP3    H261311   3.418   5.682  11.514 -1.3460  0.5016 -0.6290
13274TIP3   OH261312   2.132   4.467   1.526  0.0299 -0.1792 -0.0329
13274TIP3    H161313   2.087   4.383   1.536 -0.8049  0.0113 -1.8201
13274TIP3    H261314   2.074   4.519   1.469  0.8749  1.3548  0.4439
13275TIP3   OH261315   3.347   3.371   2.279  0.3996 -0.5772  0.3880
13275TIP3    H161316   3.347   3.323   2.197 -0.1006 -3.5073  1.9506
13275TIP3    H261317   3.426   3.424   2.276  0.4206 -0.6504 -1.9341
13276TIP3   OH261318   6.478   0.483  14.920 -0.9287 -0.2637  0.0401
13276TIP3    H161319   6.444   0.397  14.947  0.8873 -1.1059 -0.2001
13276TIP3    H261320   6.573   0.471  14.917 -0.3560  2.5354  2.6610
13277TIP3   OH261321   1.713   3.941  12.854 -0.1205 -0.6424 -0.1099
13277TIP3    H161322   1.713   3.887  12.776  2.9886  0.4862 -1.0448
13277TIP3    H261323   1.693   4.030  12.823 -0.0964 -0.3892  0.5684
13278TIP3   OH261324   2.222   5.194  15.906  0.0588 -0.3771  0.3857
13278TIP3    H161325   2.210   5.230  15.818  1.6785  1.8060  0.9588
13278TIP3    H261326   2.155   5.237  15.959  0.7043  0.2616  0.6912
13279TIP3   OH261327   4.952   6.098  12.836  0.5467  0.1356  0.2244
13279TIP3    H161328   4.931   6.169  12.776  0.0760  0.1946  0.4595
13279TIP3    H261329   4.974   6.142  12.918 -1.0600 -0.0410  0.7675
13280TIP3   OH261330   0.563   2.436  14.337 -0.1631  0.3073 -0.4499
13280TIP3    H161331   0.642   2.483  14.363  0.8507 -0.1991 -2.4572
13280TIP3    H261332   0.540   2.473  14.251 -1.9600  0.2519 -0.0421
13281TIP3   OH261333   6.211   0.498   1.828 -0.1198  0.3815  0.2617
13281TIP3    H161334   6.216   0.570   1.891 -1.9942  0.4489  0.3790
13281TIP3    H261335   6.127   0.509   1.785  0.4005 -0.6430 -1.0874
13282TIP3   OH261336   5.614   4.394  15.307  0.4805  0.5615 -0.3433
13282TIP3    H161337   5.705   4.411  15.285  0.6481  0.0765 -0.0527
13282TIP3    H261338   5.599   4.441  15.389  0.3993  0.8282 -0.5081
13283TIP3   OH261339   6.542   6.155  13.229  0.0164  0.0987 -0.2031
13283TIP3    H161340   6.564   6.202  13.149 -2.7786  2.0317  0.0009
13283TIP3    H261341   6.459   6.111  13.209  1.1866 -2.6188  0.5015
13284TIP3   OH261342   6.447   0.646  17.092  0.4336  0.3359  1.5414
13284TIP3    H161343   6.363   0.665  17.135  0.2233  2.1886  0.4178
13284TIP3    H261344   6.512   0.690  17.147  0.4813  0.3432  1.4799
13285TIP3   OH261345   5.428   2.584  13.275 -0.6381 -0.3270 -0.3003
13285TIP3    H161346   5.444   2.537  13.356  0.0505 -0.0012 -0.2436
13285TIP3    H261347   5.335   2.568  13.256 -1.2913  0.9718  1.4626
13286TIP3   OH261348   4.906   4.153  11.707 -0.0457  0.0514 -0.0930
13286TIP3    H161349   4.819   4.193  11.704 -0.0891 -0.0573 -0.3101
13286TIP3    H261350   4.950   4.196  11.781  0.2102  1.1151 -0.8536
13287TIP3   OH261351   2.600   1.444   0.965  0.2045  0.6508 -0.3487
13287TIP3    H161352   2.632   1.381   0.901  1.3914 -0.3707  1.1671
13287TIP3    H261353   2.505   1.431   0.968  0.4601 -1.3220  0.1557
13288TIP3   OH261354   0.654   0.689   0.333 -0.0389  0.0380 -0.0602
13288TIP3    H161355   0.722   0.749   0.302 -0.9020  0.1955 -1.7262
13288TIP3    H261356   0.606   0.664   0.255 -0.5556 -1.7861  0.7930
13289TIP3   OH261357   4.906   3.962  15.492  0.1328 -0.1859 -0.1766
13289TIP3    H161358   4.859   3.990  15.570  0.6581  0.9552 -0.2471
13289TIP3    H261359   4.944   3.877  15.515 -3.2433 -1.9967 -0.6440
13290TIP3   OH261360   5.498   0.964  14.537 -0.4752  0.0936 -0.0171
13290TIP3    H161361   5.565   1.002  14.593 -0.3815 -1.9692  1.4067
13290TIP3    H261362   5.529   0.979  14.448  0.4385  1.6214  0.5313
13291TIP3   OH261363   5.791   6.345  15.967  0.5317  0.2648  0.0025
13291TIP3    H161364   5.795   6.411  16.036  1.7431 -0.6902  0.8743
13291TIP3    H261365   5.798   6.395  15.885 -2.1285  1.5244  0.4462
13292TIP3   OH261366   2.357   3.162   5.175  0.3311 -0.3115 -0.0623
13292TIP3    H161367   2.418   3.190   5.243 -0.1559  0.0730  0.2261
13292TIP3    H261368   2.383   3.073   5.154  1.5426  0.1446 -0.5742
13293TIP3   OH261369   6.669   1.373   0.917  0.3410 -0.1920  0.1862
13293TIP3    H161370   6.654   1.421   0.998  0.6494  0.6568 -0.2488
13293TIP3    H261371   6.585   1.334   0.896 -0.2060  1.0749 -0.0298
13294TIP3   OH261372   1.139   6.342   2.041 -0.0553  0.0925 -0.0729
13294TIP3    H161373   1.200   6.318   2.111 -0.5601 -1.1935 -0.0560
13294TIP3    H261374   1.082   6.408   2.080  0.7977  0.7040  0.1653
13295TIP3   OH261375   4.340   6.587   5.666 -0.0822 -0.1417  0.3229
13295TIP3    H161376   4.398   6.586   5.742 -0.0346  0.4859  0.2990
13295TIP3    H261377   4.355   6.502   5.623  0.9154  0.0670  0.2400
13296TIP3   OH261378   5.229   3.937   2.767 -0.0098 -0.0204  0.0196
13296TIP3    H161379   5.175   4.012   2.794  1.0058  1.2935 -1.3750
13296TIP3    H261380   5.318   3.972   2.763  0.4939 -1.3026 -0.6873
13297TIP3   OH261381   4.764   1.283   1.468  0.0482  0.1139 -0.0728
13297TIP3    H161382   4.829   1.303   1.535  1.2234  0.0480 -1.1509
13297TIP3    H261383   4.761   1.187   1.465 -0.3421  0.1147  0.1891
13298TIP3   OH261384   2.005   5.615  13.011  0.3010  0.0574 -0.2369
13298TIP3    H161385   2.078   5.671  13.036 -0.0909  1.4159 -1.9173
13298TIP3    H261386   2.029   5.528  13.042  1.0634  1.0482  2.2385
13299TIP3   OH261387   0.582   6.167  15.901 -0.3687 -0.2251  0.1557
13299TIP3    H161388   0.605   6.185  15.992 -0.9029 -0.5778  0.3659
13299TIP3    H261389   0.650   6.107  15.870  0.4653  0.7937 -0.0358
13300TIP3   OH261390   5.085   5.390  16.489 -0.1760 -0.1015 -0.3878
13300TIP3    H161391   5.161   5.382  16.547 -0.5544  1.1146  0.3110
13300TIP3    H261392   5.054   5.480  16.502 -1.1584 -0.2702 -1.3871
13301TIP3   OH261393   4.814   3.356  14.289  0.4747  0.3955  0.2614
13301TIP3    H161394   4.743   3.293  14.283 -0.5028  1.5025 -0.2508
13301TIP3    H261395   4.893   3.303  14.301  0.1256 -1.1286 -3.1152
13302TIP3   OH261396   1.720   0.648  13.651  0.0171 -0.0476 -0.2153
13302TIP3    H161397   1.728   0.677  13.742 -0.9414 -2.3064  0.6483
13302TIP3    H261398   1.642   0.592  13.650 -1.2830  1.5806 -2.9222
13303TIP3   OH261399   2.024   0.437  16.687 -0.2082  0.2365  0.4737
13303TIP3    H161400   2.041   0.390  16.769 -1.7551 -0.0152  0.6690
13303TIP3    H261401   1.951   0.495  16.707 -0.6174  0.1659 -0.7334
13304TIP3   OH261402   0.942   0.072   6.730 -0.0291 -0.0622  0.3251
13304TIP3    H161403   0.993   0.030   6.660  0.8631  3.0245 -1.0680
13304TIP3    H261404   0.954   0.016   6.806  0.9741 -2.2926 -1.3785
13305TIP3   OH261405   1.574   6.300  16.728  0.0002  0.3408  0.3493
13305TIP3    H161406   1.641   6.367  16.745  0.9450 -0.2056 -1.0692
13305TIP3    H261407   1.491   6.345  16.741  0.6242  1.7441 -0.3566
13306TIP3   OH261408   2.532   3.935  14.385 -0.3272 -0.3181  0.2715
13306TIP3    H161409   2.516   3.893  14.469 -0.3629  0.2889  0.5697
13306TIP3    H261410   2.522   4.028  14.402  1.3021 -0.0642 -0.0388
13307TIP3   OH261411   2.283   3.185  12.090  0.3542 -0.1317 -0.0649
13307TIP3    H161412   2.317   3.109  12.137 -1.0734 -0.9032 -0.2259
13307TIP3    H261413   2.271   3.251  12.159  0.2861 -0.5234  0.3048
13308TIP3   OH261414   4.070   5.782  12.749  0.2411 -0.1179 -0.4934
13308TIP3    H161415   4.007   5.852  12.730  0.0160 -0.2227 -0.1575
13308TIP3    H261416   4.033   5.704  12.708  0.2237 -0.1466 -0.4261
13309TIP3   OH261417   1.976   2.095   1.850 -0.3869 -0.0353 -0.1479
13309TIP3    H161418   1.906   2.099   1.785 -1.2962  0.1518  0.8235
13309TIP3    H261419   2.002   2.003   1.851 -1.0387 -0.2261 -0.0971
13310TIP3   OH261420   4.869   2.662   4.015  0.0520  0.5698  0.0163
13310TIP3    H161421   4.788   2.708   4.038 -0.4550  0.1219 -0.8334
13310TIP3    H261422   4.853   2.628   3.928  0.6794 -0.6498  0.3630
13311TIP3   OH261423   3.452   3.784  11.287 -0.5596 -0.2847 -0.3438
13311TIP3    H161424   3.472   3.876  11.304  3.0723 -1.2188  1.4083
13311TIP3    H261425   3.454   3.776  11.192 -2.1863  1.6002 -0.5982
13312TIP3   OH261426   1.477   1.376  12.193  0.0755  0.3207 -0.2996
13312TIP3    H161427   1.563   1.344  12.221 -0.3650  0.7145  1.6085
13312TIP3    H261428   1.487   1.471  12.190 -0.1399  0.3319 -0.6262
13313TIP3   OH261429   5.594   6.235   0.751 -0.1809  0.7039  0.4252
13313TIP3    H161430   5.528   6.283   0.800  0.1918  0.8848  0.7616
13313TIP3    H261431   5.671   6.235   0.809 -0.4753 -1.1591  0.8758
13314TIP3   OH261432   5.884   2.466   5.203  0.2407  0.0868  0.0184
13314TIP3    H161433   5.885   2.513   5.287  0.1555 -0.2974  0.2359
13314TIP3    H261434   5.923   2.381   5.223  1.6060  0.5177 -0.6483
13315TIP3   OH261435   3.629   1.842  15.736 -0.2617  0.0697 -0.0419
13315TIP3    H161436   3.544   1.806  15.759  0.2265 -1.9349 -1.1775
13315TIP3    H261437   3.609   1.910  15.671 -1.0377  0.0676  0.1844
13316TIP3   OH261438   6.112   3.079   0.875  0.0771 -0.6369  0.8692
13316TIP3    H161439   6.056   3.014   0.916 -1.3170 -0.4125 -0.5636
13316TIP3    H261440   6.077   3.163   0.905  1.0627 -0.4963  1.6949
13317TIP3   OH261441   0.280   3.838  10.940  0.1622 -0.6413 -0.1507
13317TIP3    H161442   0.194   3.801  10.957 -0.6070  0.2772 -1.8433
13317TIP3    H261443   0.289   3.908  11.005 -1.0453  0.2695 -0.9415
13318TIP3   OH261444   4.310   5.735  11.656  0.8341 -0.5754  0.2805
13318TIP3    H161445   4.288   5.682  11.732  0.3750 -2.3321 -1.0249
13318TIP3    H261446   4.285   5.824  11.681 -1.6109 -1.4716  1.2982
13319TIP3   OH261447   4.253   0.645   5.738  0.3472 -0.2990 -0.3082
13319TIP3    H161448   4.251   0.642   5.642  0.0275 -2.1719 -0.2885
13319TIP3    H261449   4.169   0.682   5.763  0.3732  0.0592 -0.7392
13320TIP3   OH261450   3.056   5.699   6.656 -0.3934  0.3048 -0.1297
13320TIP3    H161451   3.099   5.761   6.597 -0.2014 -0.2486 -0.5766
13320TIP3    H261452   2.984   5.749   6.694  0.8482  1.3775  0.9339
13321TIP3   OH261453   6.020   4.744   4.131  0.7891  0.4617 -0.0618
13321TIP3    H161454   6.056   4.832   4.136  0.7486  0.4437  0.5235
13321TIP3    H261455   6.097   4.687   4.128  0.8318  0.5547 -1.3653
13322TIP3   OH261456   5.144   1.591  17.247 -0.4097 -0.2145  0.5328
13322TIP3    H161457   5.163   1.510  17.201 -2.2620 -0.6837  0.5353
13322TIP3    H261458   5.208   1.594  17.318 -0.2205 -1.6048  0.4428
13323TIP3   OH261459   0.384   4.168  16.065  0.0240 -0.0789  0.1802
13323TIP3    H161460   0.306   4.212  16.099  0.5455  1.6089 -0.6831
13323TIP3    H261461   0.456   4.209  16.112  0.6061  0.8482 -1.4580
13324TIP3   OH261462   3.760   6.169   5.392  0.0920  0.3728  0.4479
13324TIP3    H161463   3.837   6.114   5.382 -0.1888 -0.6416  3.0801
13324TIP3    H261464   3.687   6.113   5.367  0.1044  1.3543 -2.1090
13325TIP3   OH261465   1.454   3.241   2.262 -0.0475 -0.0345  0.5372
13325TIP3    H161466   1.413   3.166   2.219  2.6270 -1.2330 -0.1659
13325TIP3    H261467   1.486   3.206   2.345  0.1551  0.6661  0.7564
13326TIP3   OH261468   0.705   5.013   1.635  0.5675  0.0014 -0.2457
13326TIP3    H161469   0.648   5.029   1.560 -1.1275 -0.4124  0.9046
13326TIP3    H261470   0.784   5.064   1.616  0.0958  0.1067 -2.1765
13327TIP3   OH261471   5.026   6.091  13.252 -0.3460 -0.4432 -0.4146
13327TIP3    H161472   4.970   6.020  13.220 -1.4077  0.4304 -0.5259
13327TIP3    H261473   5.008   6.096  13.346 -2.1010  1.2246 -0.7857
13328TIP3   OH261474   1.902   5.472  17.017 -0.1043 -0.5187  0.2152
13328TIP3    H161475   1.967   5.402  17.017 -0.1927 -0.6341 -1.4439
13328TIP3    H261476   1.873   5.478  16.926  0.0881  1.8561  0.2564
13329TIP3   OH261477   1.879   4.878  13.625 -0.7763 -0.4348  0.5663
13329TIP3    H161478   1.802   4.854  13.574 -0.2286 -2.7784  0.7256
13329TIP3    H261479   1.868   4.972  13.642 -2.0845 -0.0507 -1.8965
13330TIP3   OH261480   0.923   6.222  12.748  0.3621  0.4964  0.1646
13330TIP3    H161481   0.957   6.145  12.794  0.1826  0.9927  1.1598
13330TIP3    H261482   1.001   6.274  12.728  0.4191  0.4001  0.1360
13331TIP3   OH261483   0.368   1.363  15.468 -0.7026  0.0978 -0.2370
13331TIP3    H161484   0.354   1.269  15.472 -1.2031  0.1429 -0.8003
13331TIP3    H261485   0.404   1.379  15.381  0.9912  0.2355  0.4561
13332TIP3   OH261486   2.017   6.563   3.041 -0.4164 -0.7284 -0.3049
13332TIP3    H161487   1.988   6.643   3.084  1.0045 -1.3439  2.0222
13332TIP3    H261488   2.066   6.592   2.965  0.6055  0.6952  0.8379
13333TIP3   OH261489   3.085   3.474   4.081 -0.1745  0.5663 -0.0483
13333TIP3    H161490   3.139   3.500   4.155 -1.1381  1.1429  0.4833
13333TIP3    H261491   3.073   3.380   4.092  1.1140  0.3351 -0.4626
13334TIP3   OH261492   6.432   1.838  13.796 -0.3833 -0.2678  0.4878
13334TIP3    H161493   6.376   1.802  13.865  1.3892 -1.4661  1.3971
13334TIP3    H261494   6.520   1.810  13.821  0.4810  0.5393 -1.5030
13335TIP3   OH261495   6.706   1.684  12.125 -0.2136 -0.4020  0.6353
13335TIP3    H161496   6.740   1.661  12.039  0.2219 -0.2086  0.7487
13335TIP3    H261497   6.752   1.625  12.185  0.5476  0.4132  0.8773
13336TIP3   OH261498   3.844   0.072  13.392 -0.4158 -0.4338 -0.4937
13336TIP3    H161499   3.778   0.036  13.333 -1.3468  1.1915 -0.5126
13336TIP3    H261500   3.804   0.152  13.427  1.3709  0.3701 -0.1566
13337TIP3   OH261501   4.845   1.220  13.640 -0.4356 -1.3554 -0.1719
13337TIP3    H161502   4.788   1.244  13.713 -0.5084 -1.4823 -0.1880
13337TIP3    H261503   4.921   1.179  13.682  0.7321  0.8380  0.0390
13338TIP3   OH261504   3.731   2.103  15.027 -0.1210 -0.3086 -0.2651
13338TIP3    H161505   3.689   2.186  15.007 -0.6369 -0.6263 -0.5254
13338TIP3    H261506   3.763   2.071  14.943  0.1085 -0.3547 -0.1607
13339TIP3   OH261507   5.505   3.642  13.930  0.4038 -0.3490  0.2354
13339TIP3    H161508   5.455   3.588  13.991  0.3425 -1.1882 -0.5304
13339TIP3    H261509   5.466   3.729  13.937  1.0245 -0.1731  2.0854
13340TIP3   OH261510   4.815   1.288   6.244 -0.0715  0.2327 -0.4071
13340TIP3    H161511   4.729   1.260   6.275 -0.4366 -0.0374 -1.6239
13340TIP3    H261512   4.871   1.211   6.256 -0.4199 -0.1529 -1.2215
13341TIP3   OH261513   3.218   1.299  11.431  0.2420 -0.0146 -0.3532
13341TIP3    H161514   3.156   1.371  11.445  1.4565  1.2481 -1.1756
13341TIP3    H261515   3.221   1.288  11.336  1.0188 -0.2911 -0.3024
13342TIP3   OH261516   0.364   3.921  17.024  0.4954  0.0046  0.2417
13342TIP3    H161517   0.457   3.909  17.042  0.0351 -2.3235  1.4985
13342TIP3    H261518   0.322   3.915  17.110 -0.7722  2.3304 -0.1110
13343TIP3   OH261519   0.010   5.639   4.957 -0.5814  0.2425 -0.4554
13343TIP3    H161520   0.045   5.577   4.893  0.2775 -1.1754  1.3080
13343TIP3    H261521   0.081   5.700   4.973  0.0854 -0.8044  0.8231
13344TIP3   OH261522   0.120   2.525  11.493 -0.1249  0.8770 -0.7402
13344TIP3    H161523   0.150   2.462  11.428  0.4440  1.2799 -0.8688
13344TIP3    H261524   0.028   2.502  11.507 -0.2837  0.8448 -1.7465
13345TIP3   OH261525   1.388   0.443   3.470 -0.0453 -0.1378 -0.1256
13345TIP3    H161526   1.324   0.386   3.428  1.0284  0.1271 -2.2333
13345TIP3    H261527   1.387   0.523   3.418  0.7410  0.5414  0.8698
13346TIP3   OH261528   1.937   4.497   3.046 -0.3816  0.5479  0.2422
13346TIP3    H161529   1.986   4.578   3.062  0.3963 -0.0057  0.7532
13346TIP3    H261530   1.970   4.467   2.961 -0.5818  0.7067  0.1088
13347TIP3   OH261531   0.916   5.234   2.563  0.7325 -0.2353 -0.2865
13347TIP3    H161532   0.975   5.305   2.586  0.1420  0.1726  0.0109
13347TIP3    H261533   0.858   5.272   2.496  0.0317 -0.2340  0.3055
13348TIP3   OH261534   6.293   5.896   3.112 -0.5672 -0.8716  0.1681
13348TIP3    H161535   6.201   5.886   3.090 -0.6910 -2.2065  1.1372
13348TIP3    H261536   6.330   5.808   3.100  1.2509  0.1425 -2.8991
13349TIP3   OH261537   0.934   6.593  13.673  0.3716  0.0249 -0.9926
13349TIP3    H161538   0.945   6.637  13.589  1.2784 -0.5373 -1.1835
13349TIP3    H261539   0.887   6.512  13.652 -0.4114  0.4069 -0.7803
13350TIP3   OH261540   3.176   4.628  14.587 -0.0744  0.0502 -0.3334
13350TIP3    H161541   3.099   4.683  14.605  0.5208  0.7637  0.1083
13350TIP3    H261542   3.250   4.681  14.618  0.6032 -0.5697 -0.8764
13351TIP3   OH261543   0.650   2.453   2.335 -0.2016 -0.2749 -0.0048
13351TIP3    H161544   0.692   2.489   2.413  0.2548 -3.3053  1.2969
13351TIP3    H261545   0.722   2.430   2.277 -0.3778 -0.5753 -0.1052
13352TIP3   OH261546   4.805   1.532  16.743  0.1967  0.0243  0.4171
13352TIP3    H161547   4.775   1.447  16.712 -1.0311 -0.0717  1.7521
13352TIP3    H261548   4.760   1.596  16.688  2.5387 -0.1234 -1.8513
13353TIP3   OH261549   3.061   3.213   4.152  0.2302  0.6662 -0.3683
13353TIP3    H161550   3.006   3.140   4.124  1.8214 -0.8611  0.3161
13353TIP3    H261551   3.020   3.245   4.233  0.0194 -0.0701 -0.1836
13354TIP3   OH261552   6.782   4.292   1.259 -0.2133 -0.1482  0.3337
13354TIP3    H161553   6.729   4.215   1.276  0.0622 -0.3655  0.2342
13354TIP3    H261554   6.871   4.265   1.281 -0.2927  0.5793  1.6259
13355TIP3   OH261555   3.191   2.245  16.171 -0.3994 -0.5145 -0.3935
13355TIP3    H161556   3.118   2.278  16.118 -0.3324 -1.4667 -1.1167
13355TIP3    H261557   3.153   2.172  16.220 -0.2381 -0.2066  0.1956
13356TIP3   OH261558   5.937   0.030  17.136 -0.1292 -0.2785 -0.4601
13356TIP3    H161559   5.899   0.090  17.199  1.1179  0.2248 -0.1561
13356TIP3    H261560   5.934  -0.056  17.178 -0.9034 -0.2553 -0.4511
13357TIP3   OH261561   4.327   1.803  12.101 -0.5097  0.5865  0.0978
13357TIP3    H161562   4.251   1.861  12.101 -0.4412  0.6788  0.5776
13357TIP3    H261563   4.292   1.717  12.124 -0.9744 -0.0775 -2.6724
13358TIP3   OH261564   3.736   3.677  13.530  0.1647  0.1111 -0.4276
13358TIP3    H161565   3.772   3.738  13.466 -3.3928  2.0364 -0.9014
13358TIP3    H261566   3.782   3.696  13.612  1.8920  0.5414 -1.4665
13359TIP3   OH261567   1.628   5.271   0.649 -0.2456  0.5588  0.0962
13359TIP3    H161568   1.620   5.365   0.634  0.6565  0.2378 -3.2475
13359TIP3    H261569   1.538   5.238   0.644 -0.5478  1.1914  1.1039
13360TIP3   OH261570   1.824   0.327  11.354 -0.0640 -0.3555 -0.1191
13360TIP3    H161571   1.917   0.322  11.377  0.8484  0.2296 -3.1430
13360TIP3    H261572   1.787   0.391  11.414  2.2141  1.6170 -0.6703
13361TIP3   OH261573   0.071   6.797  10.757 -0.4395 -0.0187 -0.0463
13361TIP3    H161574   0.082   6.734  10.828  0.9423  0.7246  0.4357
13361TIP3    H261575  -0.014   6.838  10.773 -0.7303 -0.7786  0.4128
13362TIP3   OH261576   5.012   1.136   4.433 -0.4147  0.8556  0.4886
13362TIP3    H161577   4.934   1.141   4.377 -0.8549 -0.5339  0.9239
13362TIP3    H261578   4.991   1.066   4.495  1.2281  0.3672  0.5219
13363TIP3   OH261579   4.721   5.005  10.652 -0.6381  0.2096 -0.4056
13363TIP3    H161580   4.808   4.970  10.638  0.3302  2.0856  0.5255
13363TIP3    H261581   4.669   4.972  10.579 -0.1496 -3.9180  0.8805
13364TIP3   OH261582   0.362   0.272   0.775 -0.0987  0.2612  0.1776
13364TIP3    H161583   0.426   0.208   0.805  1.1448  0.4844 -1.8083
13364TIP3    H261584   0.408   0.356   0.781 -1.3047  0.8675  1.6298
13365TIP3   OH261585   4.590   6.234   1.032  0.2548 -0.6664  0.3979
13365TIP3    H161586   4.632   6.215   0.948  2.3344  0.0835  1.1859
13365TIP3    H261587   4.549   6.151   1.058 -0.9140 -0.7601 -1.5746
13366TIP3   OH261588   5.821   3.342  13.585 -0.3860 -0.5220  0.4549
13366TIP3    H161589   5.876   3.420  13.595  0.3611 -0.8951 -0.5540
13366TIP3    H261590   5.837   3.313  13.495 -0.4260 -2.0000  0.8983
13367TIP3   OH261591   1.960   1.245  15.177  0.6330  0.5239  0.3123
13367TIP3    H161592   1.996   1.332  15.160 -0.3331  0.8783  0.0007
13367TIP3    H261593   1.888   1.261  15.239  0.3023 -0.0168  0.0708
13368TIP3   OH261594   1.308   1.216  17.064  0.2752  0.0612 -0.3688
13368TIP3    H161595   1.250   1.238  16.991 -0.3580  0.1010  0.1478
13368TIP3    H261596   1.269   1.258  17.140 -0.2374 -1.6837  0.4028
13369TIP3   OH261597   1.925   0.606  13.177  0.1390 -0.3498  0.4948
13369TIP3    H161598   1.970   0.523  13.195  1.8316  0.6642  1.0541
13369TIP3    H261599   1.837   0.592  13.212  0.2195 -2.0845  0.1209
13370TIP3   OH261600   0.139   5.361  12.825  0.0904  0.1794  0.2701
13370TIP3    H161601   0.138   5.401  12.738 -0.1774  1.4002  0.8111
13370TIP3    H261602   0.217   5.397  12.867 -0.2562  0.2800  0.8373
13371TIP3   OH261603   5.795   5.078   2.327  0.2127  0.1877 -1.1333
13371TIP3    H161604   5.753   5.149   2.376  0.0274  0.2325 -1.3528
13371TIP3    H261605   5.801   5.006   2.389 -2.0399 -0.5210 -1.6308
13372TIP3   OH261606   4.481   1.201  15.082  0.0154 -0.6748 -0.0923
13372TIP3    H161607   4.545   1.208  15.153  1.8485 -1.5791 -1.5755
13372TIP3    H261608   4.436   1.286  15.083  1.6729  0.2646  0.6288
13373TIP3   OH261609   5.880   1.889  17.128  0.2481  0.3344  0.0024
13373TIP3    H161610   5.901   1.982  17.139  0.8829  0.1522  0.4002
13373TIP3    H261611   5.802   1.876  17.182  1.4217  0.1812  1.7707
13374TIP3   OH261612   1.282   2.950   3.000 -0.1210  0.0717  0.6638
13374TIP3    H161613   1.360   2.991   2.963  0.0198 -0.5866  0.2110
13374TIP3    H261614   1.214   2.963   2.934 -0.1991 -0.0001  0.7299
13375TIP3   OH261615   2.298   6.426  15.820 -0.6203  0.0289  0.0375
13375TIP3    H161616   2.291   6.332  15.837 -1.9762  0.3389  1.4474
13375TIP3    H261617   2.226   6.446  15.761 -0.6807  0.2620  0.1870
13376TIP3   OH261618   5.942   5.770  14.362 -0.3405 -0.7531  0.6007
13376TIP3    H161619   5.865   5.825  14.347  0.6569  0.2790 -1.0308
13376TIP3    H261620   5.962   5.782  14.455 -1.6318 -0.3838  0.8550
13377TIP3   OH261621   0.892   4.674   0.910  0.3510  0.3931  0.1550
13377TIP3    H161622   0.953   4.656   0.838  1.4462 -2.5664  1.6473
13377TIP3    H261623   0.929   4.749   0.955  1.1451  0.5951 -0.7908
13378TIP3   OH261624   1.224   3.717  13.442  0.5707 -0.0516  0.0643
13378TIP3    H161625   1.169   3.705  13.520  0.5376  1.0973  0.2341
13378TIP3    H261626   1.309   3.744  13.477  0.3522  1.1873 -0.3025
13379TIP3   OH261627   0.664   6.610  12.772 -0.6813  0.1274  0.6461
13379TIP3    H161628   0.623   6.532  12.734 -1.2394  0.0560  1.3702
13379TIP3    H261629   0.664   6.675  12.702  0.2263 -0.6686 -0.1205
13380TIP3   OH261630   2.819   2.850   2.864 -0.2527  0.2498  0.2539
13380TIP3    H161631   2.911   2.864   2.886 -0.3967  0.4281  0.7588
13380TIP3    H261632   2.818   2.765   2.819  0.3737  0.9874 -1.2329
13381TIP3   OH261633   5.132   4.937   5.784  0.6316  0.0818  0.0181
13381TIP3    H161634   5.223   4.923   5.811  0.2600 -1.0957  0.7091
13381TIP3    H261635   5.120   5.032   5.793  1.1263 -0.0066  2.1511
13382TIP3   OH261636   1.905   0.563   5.798  0.3088  0.5178  0.1349
13382TIP3    H161637   1.884   0.477   5.834 -0.0151 -0.1127 -1.4728
13382TIP3    H261638   1.970   0.599   5.859 -0.2706 -0.4326  1.3659
13383TIP3   OH261639   6.367   3.792   0.771  0.0544  0.8532 -0.1679
13383TIP3    H161640   6.370   3.800   0.867  0.7638  1.0669 -0.2003
13383TIP3    H261641   6.448   3.835   0.742 -0.3690  1.1616 -0.8897
13384TIP3   OH261642   6.783   1.346   0.404 -0.0997  0.2284 -0.5057
13384TIP3    H161643   6.830   1.320   0.483 -0.5467  0.9377 -0.0001
13384TIP3    H261644   6.690   1.343   0.429 -0.2532  0.3197 -1.0446
13385TIP3   OH261645   5.350   0.576   3.848  0.2869 -0.5382  0.2258
13385TIP3    H161646   5.339   0.627   3.768  0.1470 -1.3801 -0.2982
13385TIP3    H261647   5.271   0.596   3.899  0.7585  0.6359  0.5340
13386TIP3   OH261648   1.027   3.710  13.645 -0.3343  0.3928  0.4150
13386TIP3    H161649   1.097   3.653  13.677  0.9114  2.2618  1.1845
13386TIP3    H261650   0.955   3.695  13.707  0.2621  0.2243  1.0892
13387TIP3   OH261651   1.993   1.799   1.226  0.0881 -0.4512  0.1807
13387TIP3    H161652   2.028   1.871   1.174 -0.7534  0.0037  0.2266
13387TIP3    H261653   2.034   1.809   1.312 -0.5657  0.4024  0.4025
13388TIP3   OH261654   5.748   1.584  13.094  0.6244 -0.2161  0.2199
13388TIP3    H161655   5.837   1.564  13.064  0.2799 -0.5928 -0.5743
13388TIP3    H261656   5.757   1.600  13.188  1.7550  1.1260 -0.0854
13389TIP3   OH261657   5.704   6.591  11.253  0.0814 -0.0268 -0.0351
13389TIP3    H161658   5.785   6.553  11.288 -0.7354 -1.7364  0.1182
13389TIP3    H261659   5.691   6.547  11.169  0.2267  1.5674 -0.9378
13390TIP3   OH261660   6.013   3.511  11.615 -0.1976  0.5900 -0.2060
13390TIP3    H161661   5.971   3.592  11.644 -1.4982 -0.3241  0.6461
13390TIP3    H261662   5.954   3.442  11.646  1.0685 -0.7013 -0.5531
13391TIP3   OH261663   6.791   4.173  16.975 -0.2101  0.2395 -0.0750
13391TIP3    H161664   6.803   4.078  16.979 -0.6614  0.2014  0.4334
13391TIP3    H261665   6.875   4.209  17.001 -0.3764 -0.0249  0.8533
13392TIP3   OH261666   4.898   3.494  15.324 -0.0289  0.2800  1.3426
13392TIP3    H161667   4.890   3.580  15.283 -0.0626 -0.3686 -0.0711
13392TIP3    H261668   4.811   3.475  15.358 -0.6392 -0.1391 -0.3470
13393TIP3   OH261669   0.935   4.775  14.394  0.4087 -0.5448  0.4755
13393TIP3    H161670   0.979   4.734  14.468 -0.3572 -2.0727  0.1324
13393TIP3    H261671   0.878   4.706  14.359 -1.0755  0.8729 -0.0307
13394TIP3   OH261672   4.552   3.044  12.110 -0.2339  0.3597  0.4659
13394TIP3    H161673   4.632   3.055  12.060 -0.0973  1.0246  0.8144
13394TIP3    H261674   4.573   2.975  12.174  0.0071  0.4262  0.4591
13395TIP3   OH261675   6.436   3.191  11.417 -0.3999  0.0048  0.6605
13395TIP3    H161676   6.524   3.219  11.392 -0.6575  0.4722  0.2860
13395TIP3    H261677   6.415   3.120  11.356 -0.3416 -0.0155  0.6640
13396TIP3   OH261678   6.630   4.336   4.861  0.6172 -0.2079  0.3074
13396TIP3    H161679   6.561   4.329   4.927 -0.2168  0.2399 -0.4938
13396TIP3    H261680   6.670   4.248   4.858 -0.3460 -0.6541  0.3236
13397TIP3   OH261681   0.371   4.674   3.787 -0.3616  0.4927 -0.7285
13397TIP3    H161682   0.311   4.677   3.861  1.2984  0.0193  0.7160
13397TIP3    H261683   0.373   4.583   3.760  1.2458  0.0751  0.6314
13398TIP3   OH261684   4.472   1.662  15.407  0.3666  1.1010  0.0730
13398TIP3    H161685   4.481   1.703  15.320 -0.0786 -0.9919 -1.0380
13398TIP3    H261686   4.444   1.733  15.464 -1.0997  2.2128 -1.8943
13399TIP3   OH261687   1.524   6.249   2.095  0.2784 -0.7859  0.3616
13399TIP3    H161688   1.484   6.323   2.140  1.3047 -0.2220  0.3912
13399TIP3    H261689   1.517   6.176   2.156 -3.4070 -1.6054 -0.7670
13400TIP3   OH261690   3.383   6.246   0.895  0.2141  0.1562 -0.1233
13400TIP3    H161691   3.289   6.234   0.880  0.2879  0.4429 -0.8648
13400TIP3    H261692   3.424   6.174   0.847  0.4020  0.3862 -0.3079
13401TIP3   OH261693   4.375   3.511  11.163  0.3672 -0.0332 -0.1650
13401TIP3    H161694   4.393   3.567  11.238 -1.6884  1.4504 -0.6788
13401TIP3    H261695   4.397   3.565  11.087 -1.4264  0.0650 -0.6635
13402TIP3   OH261696   0.068   4.167  14.885  0.5005 -0.5978 -0.6080
13402TIP3    H161697   0.134   4.125  14.939  0.7828  0.9294  0.2962
13402TIP3    H261698   0.009   4.097  14.860  0.8166 -1.4901  1.0290
13403TIP3   OH261699   1.705   1.191   2.038 -0.0821  0.4996  0.8999
13403TIP3    H161700   1.685   1.099   2.056  1.6950 -0.3852 -1.1466
13403TIP3    H261701   1.739   1.225   2.121  2.7274 -1.8027  0.8795
13404TIP3   OH261702   0.980   1.193  12.541  0.4453 -0.3228  0.2712
13404TIP3    H161703   0.917   1.135  12.499 -0.4323 -0.3025  1.5070
13404TIP3    H261704   1.056   1.137  12.558  0.0067 -0.8557  0.5192
13405TIP3   OH261705   4.966   5.854  16.087 -0.1294  0.3017 -1.0442
13405TIP3    H161706   4.938   5.945  16.081 -1.0947  0.2373  1.3436
13405TIP3    H261707   4.957   5.820  15.998 -1.8420  1.9684 -1.5700
13406TIP3   OH261708   1.133   5.558   5.939  0.2896 -0.2581  0.3048
13406TIP3    H161709   1.071   5.537   6.009 -0.4160 -0.3467 -0.3271
13406TIP3    H261710   1.173   5.640   5.967 -1.0958  0.5154  0.1274
13407TIP3   OH261711   4.130   5.842  13.721 -0.0388  0.3747  0.2416
13407TIP3    H161712   4.194   5.771  13.719 -0.7644 -0.2911  0.1204
13407TIP3    H261713   4.077   5.824  13.798 -0.0152  0.9805  0.4022
13408TIP3   OH261714   3.497   6.517  16.769  0.2304 -0.0018  0.2346
13408TIP3    H161715   3.523   6.461  16.696 -0.6804  1.3081 -1.1380
13408TIP3    H261716   3.468   6.455  16.837 -0.2745 -1.2165 -1.0419
13409TIP3   OH261717   6.481   0.708   4.564  0.2365 -0.0155  0.0389
13409TIP3    H161718   6.425   0.777   4.528  0.5991 -0.1775 -0.8487
13409TIP3    H261719   6.422   0.635   4.580 -0.4052  0.8680  2.1755
13410TIP3   OH261720   4.559   4.579  15.389  0.5567 -0.3313 -0.2484
13410TIP3    H161721   4.537   4.494  15.352 -0.9437  0.6772 -1.8128
13410TIP3    H261722   4.484   4.602  15.444  0.1334  0.7172 -1.2220
13411TIP3   OH261723   3.737   0.609   6.617  0.2667 -0.0302 -0.4856
13411TIP3    H161724   3.829   0.605   6.592  0.1742  2.7589 -1.6400
13411TIP3    H261725   3.732   0.682   6.679 -1.0606 -0.5554  0.0541
13412TIP3   OH261726   3.310   6.352   1.962  0.2645 -0.5530 -0.0933
13412TIP3    H161727   3.344   6.274   2.006  0.1524 -1.3888 -1.4162
13412TIP3    H261728   3.295   6.323   1.872  0.5872  1.1073 -0.7119
13413TIP3   OH261729   6.788   2.340   2.846  0.0788  0.5297  0.2652
13413TIP3    H161730   6.720   2.391   2.801  0.6291  2.1924  1.2137
13413TIP3    H261731   6.864   2.346   2.788  0.6522  2.2894  1.1346
13414TIP3   OH261732   3.162   2.522  16.330  0.0993  0.2565  0.3090
13414TIP3    H161733   3.244   2.478  16.348  0.0977  0.3425  0.5256
13414TIP3    H261734   3.102   2.492  16.398  0.4775  1.6315  1.2900
13415TIP3   OH261735   3.094   4.382   2.039  0.2560  0.0720  0.4150
13415TIP3    H161736   3.076   4.473   2.013 -0.6941 -0.1329  0.3192
13415TIP3    H261737   3.119   4.339   1.957 -2.5054 -0.5136 -0.2423
13416TIP3   OH261738   4.905   5.526  17.005 -0.2893  0.3633  0.7400
13416TIP3    H161739   4.939   5.465  17.071  0.8490  0.2933  0.1071
13416TIP3    H261740   4.953   5.607  17.020 -0.2914  0.4624  0.2393
13417TIP3   OH261741   1.101   0.031   2.168 -0.0550  0.2350  0.7839
13417TIP3    H161742   1.156   0.089   2.220 -1.0172 -0.5681  2.7767
13417TIP3    H261743   1.013   0.068   2.175 -0.1416  0.4284 -0.8046
13418TIP3   OH261744   1.826   2.381   2.260 -0.4439 -0.3863  0.3117
13418TIP3    H161745   1.897   2.317   2.251 -0.1054  0.0347 -0.1470
13418TIP3    H261746   1.839   2.440   2.185  1.4555  2.3532  2.5724
13419TIP3   OH261747   5.455   3.538  11.190  0.3478 -0.0468 -0.0097
13419TIP3    H161748   5.408   3.455  11.185 -0.4323  0.1856  2.2607
13419TIP3    H261749   5.547   3.513  11.200  0.2465 -0.5919 -0.3797
13420TIP3   OH261750   4.088   4.485  10.532  0.0387  0.3478 -0.0888
13420TIP3    H161751   4.029   4.411  10.546 -0.0452  0.9129  3.4468
13420TIP3    H261752   4.175   4.445  10.522 -0.2017 -0.2788  0.2727
13421TIP3   OH261753   2.973   2.265  12.403 -0.0815  0.2510  0.2463
13421TIP3    H161754   2.916   2.317  12.460  1.0848  1.3520  0.4472
13421TIP3    H261755   3.047   2.241  12.458 -1.2973 -3.0831  0.6570
13422TIP3   OH261756   1.102   4.676  14.601  0.2378 -0.2481  0.1838
13422TIP3    H161757   1.100   4.585  14.573  0.4806 -0.6157  1.3184
13422TIP3    H261758   1.188   4.708  14.574  0.4188 -0.5570  0.3894
13423TIP3   OH261759   0.403   4.729   3.249  0.2750  0.3299 -0.1553
13423TIP3    H161760   0.417   4.636   3.231  1.7568  1.0240 -3.1326
13423TIP3    H261761   0.349   4.760   3.177 -1.8501  1.5080  1.7846
13424TIP3   OH261762   1.961   0.928  10.571  0.3618 -0.5823 -0.1998
13424TIP3    H161763   1.891   0.863  10.570  0.2506 -0.4767 -1.4954
13424TIP3    H261764   2.006   0.914  10.655  0.0402 -1.9932 -0.2338
13425TIP3   OH261765   4.593   0.406   1.053  0.4335  0.1488  0.3276
13425TIP3    H161766   4.530   0.431   1.120 -0.2623 -0.8335  0.0624
13425TIP3    H261767   4.564   0.452   0.974  0.7997  0.6890  0.4985
13426TIP3   OH261768   4.509   2.792  11.857 -0.5738 -0.3229  0.4712
13426TIP3    H161769   4.474   2.753  11.777  2.8770 -3.9311  0.4218
13426TIP3    H261770   4.472   2.739  11.928 -0.8148  0.5353  0.9969
13427TIP3   OH261771   2.315   4.246  12.819  0.3232  0.1867 -0.3573
13427TIP3    H161772   2.319   4.169  12.762 -0.4984 -0.8967  1.0033
13427TIP3    H261773   2.227   4.244  12.857  0.7210  1.0972  0.6661
13428TIP3   OH261774   5.259   4.578   4.097  0.1140  0.2590  0.5674
13428TIP3    H161775   5.173   4.615   4.080  0.3211  0.8053  0.6787
13428TIP3    H261776   5.258   4.559   4.191 -0.4673 -1.2820  0.2710
13429TIP3   OH261777   5.829   3.423   2.761 -0.0157 -0.6093  0.2285
13429TIP3    H161778   5.752   3.405   2.814  2.4767 -3.4740  3.2801
13429TIP3    H261779   5.860   3.508   2.792 -0.7847 -0.3793  0.4020
13430TIP3   OH261780   6.095   3.280  11.331  0.2701 -0.0477  0.3867
13430TIP3    H161781   6.021   3.223  11.312  0.0180  0.1707  0.7182
13430TIP3    H261782   6.117   3.262  11.422  1.4257 -1.0304 -0.0523
13431TIP3   OH261783   5.317   2.564  16.473  0.0161 -0.5830 -0.2223
13431TIP3    H161784   5.299   2.597  16.385 -0.8077  0.5637  0.3599
13431TIP3    H261785   5.339   2.641  16.524  0.1344 -1.1928  0.6715
13432TIP3   OH261786   0.257   5.649   3.040  1.0824 -0.5549  0.3944
13432TIP3    H161787   0.206   5.568   3.037  1.0710 -0.5277 -0.9321
13432TIP3    H261788   0.276   5.662   3.133  1.0916 -2.0779  0.6374
13433TIP3   OH261789   4.314   3.429  15.079 -0.2981  0.4844 -0.2940
13433TIP3    H161790   4.346   3.393  14.996 -1.3228  1.3791 -1.1109
13433TIP3    H261791   4.294   3.353  15.133 -1.1043 -0.1658 -1.4568
13434TIP3   OH261792   6.756   1.073  13.154  0.5966  0.2448  0.0361
13434TIP3    H161793   6.757   1.118  13.069  0.0498  0.7011  0.2668
13434TIP3    H261794   6.677   1.106  13.197  1.1163  0.3676  0.9057
13435TIP3   OH261795   3.620   1.794  12.271  0.2353 -0.0086 -0.4032
13435TIP3    H161796   3.555   1.749  12.216  0.5083 -0.7524 -0.1255
13435TIP3    H261797   3.611   1.887  12.247  2.0502 -0.5190 -3.5517
13436TIP3   OH261798   0.985   5.603  16.375 -0.4603 -0.4113 -0.1631
13436TIP3    H161799   0.998   5.518  16.418 -0.0716  0.1304  0.8353
13436TIP3    H261800   1.010   5.667  16.442 -0.1573  0.4803 -1.1093
13437TIP3   OH261801   1.795   0.830   6.583  0.0887 -0.9391  0.3958
13437TIP3    H161802   1.818   0.878   6.503 -0.3586 -0.6730  0.4204
13437TIP3    H261803   1.703   0.805   6.569  0.6153 -2.7161 -0.0800
13438TIP3   OH261804   2.361   3.673   4.367  0.3549 -0.3475  0.1393
13438TIP3    H161805   2.430   3.620   4.406  2.1946  1.0944 -0.9495
13438TIP3    H261806   2.405   3.722   4.297 -1.8431  0.4637 -0.7812
13439TIP3   OH261807   3.841   6.710   6.269 -0.4142  0.0104 -0.6613
13439TIP3    H161808   3.908   6.725   6.201 -1.3078  1.3237 -1.3020
13439TIP3    H261809   3.867   6.768   6.341 -2.2344  2.6302 -1.9587
13440TIP3   OH261810   0.097   2.557  13.271 -0.1939 -0.2693  0.4311
13440TIP3    H161811   0.184   2.525  13.295 -0.2864 -0.6668  0.2507
13440TIP3    H261812   0.099   2.559  13.175  0.7367  2.8571  0.4140
13441TIP3   OH261813   2.660   5.139   3.221 -0.3262 -0.1947 -1.3098
13441TIP3    H161814   2.575   5.118   3.183 -0.0659  0.2967 -2.1878
13441TIP3    H261815   2.650   5.228   3.255 -0.1389 -0.1028 -1.4933
13442TIP3   OH261816   0.681   1.392  16.849 -0.2849 -0.2848 -0.3104
13442TIP3    H161817   0.626   1.469  16.865 -0.9023 -0.8105  0.1646
13442TIP3    H261818   0.740   1.419  16.778 -0.1606  0.7831  0.1710
13443TIP3   OH261819   4.074   1.953   4.428 -0.0062  0.3430 -0.5809
13443TIP3    H161820   4.096   1.874   4.377  2.5888 -1.3990  2.8727
13443TIP3    H261821   4.132   2.021   4.394  0.4859 -0.2973 -1.0431
13444TIP3   OH261822   0.164   3.887   3.963 -0.0967  0.0120  0.0844
13444TIP3    H161823   0.144   3.825   3.893  1.6964 -1.0115  0.4322
13444TIP3    H261824   0.252   3.919   3.943 -0.1228  0.7824  1.1009
13445TIP3   OH261825   2.953   2.536   1.392 -0.0014  0.3397  0.1797
13445TIP3    H161826   2.882   2.587   1.352  0.4491  1.1025  0.3393
13445TIP3    H261827   2.912   2.493   1.467 -0.3715  0.5173  0.0815
13446TIP3   OH261828   1.473   2.067   5.544 -0.2976 -0.4191  0.6055
13446TIP3    H161829   1.518   2.067   5.628 -3.3967  0.2873  2.3865
13446TIP3    H261830   1.408   1.997   5.552 -1.2789  0.2845 -0.8270
13447TIP3   OH261831   2.586   1.467  15.446 -1.0307 -0.7942  0.0555
13447TIP3    H161832   2.602   1.480  15.353 -1.4919 -0.5824  0.0029
13447TIP3    H261833   2.598   1.372  15.460 -3.4066 -1.2693 -0.7243
13448TIP3   OH261834   2.066   2.527  11.474 -0.5657  0.0255 -0.0545
13448TIP3    H161835   2.136   2.554  11.533  0.6016  0.1353 -1.4328
13448TIP3    H261836   2.038   2.608  11.430 -0.2244 -0.2978 -0.8853
13449TIP3   OH261837   4.711   0.295  14.248  0.2969  0.0494  0.5298
13449TIP3    H161838   4.699   0.388  14.233  0.1927 -0.1383 -0.6802
13449TIP3    H261839   4.788   0.272  14.195  0.9425 -0.3663  1.6086
13450TIP3   OH261840   0.601   2.734  17.202  0.0000 -0.7693 -0.1645
13450TIP3    H161841   0.696   2.735  17.215 -0.1683 -0.7033  1.2673
13450TIP3    H261842   0.565   2.764  17.286 -1.2664  0.3695 -1.0806
13451TIP3   OH261843   1.751   2.610  11.317 -0.0339  0.3883  0.2206
13451TIP3    H161844   1.701   2.644  11.392  0.6609  1.7541  0.1001
13451TIP3    H261845   1.719   2.521  11.306 -0.8436  0.4777  1.5420
13452TIP3   OH261846   1.921   2.244  12.262 -0.0901 -0.2364 -0.1880
13452TIP3    H161847   1.914   2.149  12.258  2.0139 -0.4744  0.2644
13452TIP3    H261848   1.872   2.269  12.340 -0.9986 -0.8947 -0.5424
13453TIP3   OH261849   5.528   5.561  11.802  1.0450 -0.4138  0.1495
13453TIP3    H161850   5.603   5.592  11.853  1.0787  0.7863 -0.5877
13453TIP3    H261851   5.529   5.616  11.723 -0.7559 -0.1897  0.2425
13454TIP3   OH261852   2.212   3.473  14.942 -0.2896  0.0304 -0.1179
13454TIP3    H161853   2.252   3.559  14.928 -0.7788  0.2810  0.0220
13454TIP3    H261854   2.143   3.488  15.007 -1.4105 -0.1667 -1.2223
13455TIP3   OH261855   0.838   4.314  16.371 -0.0425 -0.7858  0.2043
13455TIP3    H161856   0.790   4.366  16.435  0.1256  0.1727 -0.4331
13455TIP3    H261857   0.872   4.378  16.308 -0.2371 -1.7093 -0.8698
13456TIP3   OH261858   6.048   2.123  11.967  0.5830 -0.0402 -0.8185
13456TIP3    H161859   6.040   2.143  11.873 -0.4600  3.3253 -0.1504
13456TIP3    H261860   6.117   2.181  11.998 -0.2397  0.1567  0.7575
13457TIP3   OH261861   2.067   1.009   2.580  0.2861 -0.0954  0.2317
13457TIP3    H161862   2.098   1.093   2.613  1.5134  0.1184 -1.3857
13457TIP3    H261863   2.071   0.951   2.656  0.9647  0.9014  0.9764
13458TIP3   OH261864   1.464   0.007  15.955 -0.3799 -0.4896 -0.1318
13458TIP3    H161865   1.486   0.035  16.043  2.0787 -0.2965 -0.7319
13458TIP3    H261866   1.527  -0.062  15.935  1.2965  1.5794 -2.7945
13459TIP3   OH261867   4.040   3.893   0.053  0.1599  0.4140  0.1481
13459TIP3    H161868   4.067   3.816   0.003 -0.4898  0.3082 -0.0565
13459TIP3    H261869   4.043   3.965  -0.010  0.0152  0.4075  0.1315
13460TIP3   OH261870   1.471   3.848  12.946  0.0121 -0.4864  0.6351
13460TIP3    H161871   1.450   3.858  13.039 -0.0218 -1.4417  0.7445
13460TIP3    H261872   1.553   3.895  12.934 -0.1459 -0.0992  1.0848
13461TIP3   OH261873   3.944   0.151  12.147 -0.6160  0.5646 -0.5156
13461TIP3    H161874   3.994   0.133  12.068 -0.8198  0.9341 -0.7364
13461TIP3    H261875   3.865   0.195  12.115 -0.3355  1.4364 -0.0473
13462TIP3   OH261876   0.216   0.971  14.397 -0.4299  0.0022  0.5853
13462TIP3    H161877   0.216   0.920  14.478 -0.8868 -1.3961 -0.2553
13462TIP3    H261878   0.123   0.977  14.373 -0.2056 -1.3523 -0.8425
13463TIP3   OH261879   1.053   5.991   1.710 -0.7037 -0.3810 -0.5627
13463TIP3    H161880   1.132   5.943   1.684 -1.2564 -0.3192 -2.4808
13463TIP3    H261881   1.078   6.083   1.706 -0.8879 -0.3576 -1.2703
13464TIP3   OH261882   3.680   3.317  11.935 -0.1997 -0.0949  0.2325
13464TIP3    H161883   3.632   3.399  11.940 -1.7278 -0.9281 -0.1614
13464TIP3    H261884   3.639   3.261  12.001  3.0311  0.4829  2.9876
13465TIP3   OH261885   4.048   5.137  13.757  0.6144  0.1528  0.7251
13465TIP3    H161886   4.078   5.228  13.756 -0.3373  0.4702  0.5143
13465TIP3    H261887   4.078   5.103  13.842  0.0348  0.9886  1.2718
13466TIP3   OH261888   6.454   5.134   2.747  0.4248 -0.4668  0.1775
13466TIP3    H161889   6.420   5.058   2.700 -0.8236 -0.0277  0.3132
13466TIP3    H261890   6.384   5.156   2.809  0.3841  1.2884 -0.4315
13467TIP3   OH261891   2.780   5.752   3.631 -0.5614 -0.2603  0.1913
13467TIP3    H161892   2.764   5.658   3.633  1.4346 -0.6515  0.3595
13467TIP3    H261893   2.744   5.781   3.547 -0.9214 -1.2322 -0.0057
13468TIP3   OH261894   2.733   5.741  14.801  0.3879  0.2228 -0.3777
13468TIP3    H161895   2.821   5.713  14.773  0.2618 -1.1586  0.5197
13468TIP3    H261896   2.722   5.827  14.760  2.8063  1.1915  0.8108
13469TIP3   OH261897   3.083   3.281   5.758 -0.0123  0.3975  0.0280
13469TIP3    H161898   2.996   3.250   5.780 -1.0993  0.0239 -4.0752
13469TIP3    H261899   3.133   3.202   5.739  0.4925  0.7079  0.0454
13470TIP3   OH261900   1.887   5.902   6.098  0.1845  0.0842  0.0638
13470TIP3    H161901   1.924   5.820   6.066 -0.3668 -0.5239  0.9273
13470TIP3    H261902   1.963   5.957   6.117  0.5708 -0.3624 -0.1772
13471TIP3   OH261903   3.015   0.311   0.481 -0.4601  0.2111 -0.4016
13471TIP3    H161904   3.071   0.250   0.530  0.1138  1.2320  0.2366
13471TIP3    H261905   2.947   0.337   0.544  0.0329  1.1970 -0.2621
13472TIP3   OH261906   0.342   5.187   4.909  0.4134 -0.5231  0.0101
13472TIP3    H161907   0.380   5.103   4.882  2.0592 -0.1218  0.9286
13472TIP3    H261908   0.390   5.210   4.988  0.2950  1.4918 -0.4595
13473TIP3   OH261909   0.445   5.671  12.124 -0.1141  0.5070  0.3272
13473TIP3    H161910   0.402   5.620  12.056 -0.1275  0.8391  0.0851
13473TIP3    H261911   0.441   5.762  12.093  1.0370  0.5153  0.1412
13474TIP3   OH261912   5.894   6.433   4.567  0.0453  0.0268  0.2757
13474TIP3    H161913   5.871   6.460   4.656  0.2731  0.5291  0.1887
13474TIP3    H261914   5.823   6.376   4.539  1.2967 -2.4512  1.7967
13475TIP3   OH261915   3.984   0.204  14.058  0.1783  0.3601 -0.1534
13475TIP3    H161916   3.977   0.257  14.138  1.9525  3.4262 -1.8694
13475TIP3    H261917   4.040   0.131  14.083  0.9461  1.4160  1.3565
13476TIP3   OH261918   3.628   0.326   3.587  0.4913 -0.5913 -0.0418
13476TIP3    H161919   3.660   0.366   3.506  2.9937  1.2827  1.7101
13476TIP3    H261920   3.566   0.390   3.623 -1.1093 -1.7051 -0.7121
13477TIP3   OH261921   1.539   2.801   3.707 -0.0704  0.4813 -0.2318
13477TIP3    H161922   1.462   2.774   3.658 -0.1303 -0.0382  0.1511
13477TIP3    H261923   1.524   2.894   3.726 -0.4280  0.4731 -0.4762
13478TIP3   OH261924   6.705   6.503   3.486  1.4840 -0.2665 -0.1297
13478TIP3    H161925   6.730   6.515   3.394 -0.8625  2.3804 -0.5572
13478TIP3    H261926   6.618   6.464   3.483  0.5787  1.5627  0.8652
13479TIP3   OH261927   4.946   5.448   2.229 -0.2493  0.5118  0.0624
13479TIP3    H161928   4.964   5.533   2.190 -0.3237  1.2244  1.5304
13479TIP3    H261929   4.894   5.467   2.307 -0.2192 -0.8697  0.4547
13480TIP3   OH261930   0.822   0.078  12.945 -0.2110  0.1038  0.3568
13480TIP3    H161931   0.773   0.106  13.023  0.6104  0.3813  0.7910
13480TIP3    H261932   0.786   0.131  12.874 -0.6163  0.2242  0.6447
13481TIP3   OH261933   6.306   5.239  15.656 -0.1097  0.1667 -0.4181
13481TIP3    H161934   6.381   5.297  15.671  0.3315  0.0705 -2.0478
13481TIP3    H261935   6.245   5.260  15.726  1.7496 -0.2899  1.4206
13482TIP3   OH261936   3.925   5.507  13.665  0.1065 -0.0306 -0.4322
13482TIP3    H161937   3.970   5.522  13.582 -2.0691 -0.9937 -1.9177
13482TIP3    H261938   3.856   5.443  13.643 -0.8134 -0.0091  2.0375
13483TIP3   OH261939   1.297   5.132   0.134  0.3260 -0.0120  0.0003
13483TIP3    H161940   1.323   5.202   0.075 -0.2921  0.7657  0.6447
13483TIP3    H261941   1.213   5.159   0.171  1.2510  0.1359  2.1781
13484TIP3   OH261942   5.224   3.844   2.307 -0.0462 -0.1401 -0.1678
13484TIP3    H161943   5.150   3.837   2.367  0.5934 -1.2566  0.5300
13484TIP3    H261944   5.187   3.879   2.226 -0.9945  1.0706  0.7507
13485TIP3   OH261945   2.816   0.448  11.631  0.3639 -0.4054  0.3306
13485TIP3    H161946   2.764   0.507  11.686  0.4516 -1.6463  1.7807
13485TIP3    H261947   2.907   0.470  11.652  0.4159 -2.0705  2.0797
13486TIP3   OH261948   2.870   0.057   2.772  0.0956 -0.0500  0.4733
13486TIP3    H161949   2.841  -0.034   2.783 -0.4734  0.2337  1.4294
13486TIP3    H261950   2.812   0.092   2.704 -0.3093 -0.1361  0.7718
13487TIP3   OH261951   5.597   5.191   3.517  0.4072 -0.3736 -0.5216
13487TIP3    H161952   5.686   5.173   3.489 -0.1581 -1.7498 -1.5641
13487TIP3    H261953   5.543   5.134   3.462 -0.9011 -2.0011  2.2623
13488TIP3   OH261954   2.262   3.872   6.389 -0.5814 -0.0251 -0.4780
13488TIP3    H161955   2.318   3.883   6.465 -1.3702  2.3063 -0.1706
13488TIP3    H261956   2.176   3.850   6.426 -0.9207  0.9232 -0.6775
13489TIP3   OH261957   6.069   1.824  11.948 -0.0378 -0.1255 -0.4007
13489TIP3    H161958   6.051   1.804  11.857 -1.8195 -0.4000 -0.0293
13489TIP3    H261959   6.091   1.917  11.948 -1.7776  0.3293 -0.9337
13490TIP3   OH261960   3.352   0.220   1.404 -0.1163  0.2204  0.1414
13490TIP3    H161961   3.351   0.316   1.399 -2.2267  0.3899  2.2549
13490TIP3    H261962   3.331   0.192   1.315 -1.3149  1.7911 -0.1215
13491TIP3   OH261963   1.450   0.722   0.422 -0.3716 -0.7109 -0.3411
13491TIP3    H161964   1.489   0.643   0.384  0.6301  0.1330 -1.1114
13491TIP3    H261965   1.484   0.724   0.512  2.2604  0.5274 -1.2774
13492TIP3   OH261966   5.972   0.950  14.313  0.2162  0.3791  0.3117
13492TIP3    H161967   6.066   0.967  14.308  0.2060  0.6424  0.9106
13492TIP3    H261968   5.947   0.982  14.399  0.0929 -2.1821  1.3079
13493TIP3   OH261969   4.647   2.941  16.361  0.2865 -0.4148 -0.4551
13493TIP3    H161970   4.630   2.864  16.306  2.0210 -0.1494 -1.4379
13493TIP3    H261971   4.734   2.926  16.398 -1.3924 -1.3363  3.6396
13494TIP3   OH261972   4.482   6.012   1.154  0.0115  0.1672 -0.3430
13494TIP3    H161973   4.425   5.940   1.127 -1.4917  1.5859 -1.1315
13494TIP3    H261974   4.444   6.043   1.237 -0.4218  1.1278 -0.8808
13495TIP3   OH261975   1.503   3.847   5.407  0.4993 -0.0011  0.4051
13495TIP3    H161976   1.409   3.861   5.395  0.7724  2.5587  0.7554
13495TIP3    H261977   1.529   3.796   5.331 -1.1715 -0.8478  0.3500
13496TIP3   OH261978   5.628   2.391   0.741 -0.2526 -0.3023 -0.5852
13496TIP3    H161979   5.541   2.419   0.768  0.8677  1.5694  1.4034
13496TIP3    H261980   5.676   2.472   0.726  1.6488 -1.2287  0.1386
13497TIP3   OH261981   2.356   5.536   3.212 -0.5755  0.6247  0.1357
13497TIP3    H161982   2.270   5.494   3.225 -0.5645  0.7484  0.5968
13497TIP3    H261983   2.384   5.561   3.299  1.7235 -2.8541  0.5973
13498TIP3   OH261984   0.596   5.767   4.172 -0.0324 -0.6128 -0.4305
13498TIP3    H161985   0.691   5.755   4.160  0.1931  0.7258 -0.1263
13498TIP3    H261986   0.589   5.828   4.246 -1.1266 -0.6036 -0.5345
13499TIP3   OH261987   5.758   6.317  15.204  0.0354 -0.1838  0.5948
13499TIP3    H161988   5.821   6.249  15.227  0.2045  0.1052  1.0177
13499TIP3    H261989   5.740   6.304  15.111  0.5884 -0.3810  0.5134
13500TIP3   OH261990   4.327   1.865  16.676  0.3166 -0.3260 -0.1714
13500TIP3    H161991   4.298   1.834  16.762  2.4619  0.0668  0.7404
13500TIP3    H261992   4.246   1.890  16.632 -0.8802 -0.9192  1.5705
13501TIP3   OH261993   1.696   1.897  12.640 -0.8816  0.4257  0.3424
13501TIP3    H161994   1.703   1.968  12.705 -0.2164 -0.0360  0.7943
13501TIP3    H261995   1.715   1.940  12.556 -2.1041  1.1028  0.3959
13502TIP3   OH261996   1.403   3.058  12.854  0.1887 -0.0470  0.2599
13502TIP3    H161997   1.366   2.978  12.891  1.3196 -1.5725 -1.7212
13502TIP3    H261998   1.431   3.109  12.931 -1.2330 -1.1756  1.5934
13503TIP3   OH261999   4.157   3.890  14.822  0.2480  0.3434 -0.2171
13503TIP3    H162000   4.139   3.965  14.879  0.1764 -0.5280  0.9654
13503TIP3    H262001   4.145   3.814  14.879  1.0370 -0.5394 -1.1834
13504TIP3   OH262002   1.988   2.762  11.235 -0.1945  0.2252  0.3595
13504TIP3    H162003   1.931   2.718  11.298 -0.9110  2.2368  1.2180
13504TIP3    H262004   1.963   2.854  11.241  1.9436  0.9330 -0.5597
13505TIP3   OH262005   0.841   5.793  14.413 -0.8052 -0.1627 -0.5148
13505TIP3    H162006   0.858   5.873  14.363  1.2376  0.5308  1.1269
13505TIP3    H262007   0.746   5.783  14.411 -1.2030  2.6783 -0.2614
13506TIP3   OH262008   4.942   4.868  10.560 -0.7761 -0.3302 -0.7744
13506TIP3    H162009   4.993   4.788  10.575 -1.0178 -0.5012 -0.8548
13506TIP3    H262010   4.983   4.910  10.485  0.2192  0.3393  0.1199
13507TIP3   OH262011   0.957   6.239   4.212 -0.3180  0.1845 -0.7217
13507TIP3    H162012   0.997   6.290   4.142  1.2976  1.3365  0.9488
13507TIP3    H262013   1.031   6.192   4.253 -1.2075 -0.4348  0.2297
13508TIP3   OH262014   0.901   0.026   5.036 -0.0090 -0.2705 -0.2795
13508TIP3    H162015   0.808   0.024   5.016 -0.1414  0.6513  0.1978
13508TIP3    H262016   0.928  -0.066   5.031 -0.7013 -0.4321 -1.4504
13509TIP3   OH262017   5.814   3.323  11.716 -0.0546 -0.0814  0.0391
13509TIP3    H162018   5.777   3.404  11.750  0.5141  1.4705 -2.6957
13509TIP3    H262019   5.748   3.289  11.656  1.1116  0.4201 -1.6185
13510TIP3   OH262020   5.659   3.353  10.874  0.6112  0.2269 -0.1747
13510TIP3    H162021   5.655   3.433  10.821 -1.5692  1.0817  1.1582
13510TIP3    H262022   5.710   3.292  10.821  0.0142  1.6076 -2.4811
13511TIP3   OH262023   0.145   2.338   2.649 -0.1331 -0.6856 -0.4816
13511TIP3    H162024   0.236   2.366   2.644 -0.9392  1.9664 -2.4913
13511TIP3    H262025   0.125   2.304   2.562 -0.9636 -1.6985  0.0772
13512TIP3   OH262026   1.827   6.392   3.046  0.6873  0.5621 -0.4786
13512TIP3    H162027   1.888   6.465   3.049  2.5981 -0.9685  1.4359
13512TIP3    H262028   1.770   6.411   2.971  1.6589  3.4906 -0.6049
13513TIP3   OH262029   6.115   4.014  16.893 -0.0688  0.1632 -0.3053
13513TIP3    H162030   6.158   4.064  16.962 -0.4913 -0.0875  0.1448
13513TIP3    H262031   6.187   3.978  16.841  0.2584  0.0571  0.2187
13514TIP3   OH262032   2.927   1.482   4.615 -0.0452 -0.7534  0.5060
13514TIP3    H162033   2.875   1.476   4.695  0.1862 -0.9661  0.6427
13514TIP3    H262034   3.016   1.463   4.643  0.2358  0.3455  0.4082
13515TIP3   OH262035   3.070   1.182  16.066  0.3393  0.1819 -0.6043
13515TIP3    H162036   3.039   1.258  16.017 -1.0865  0.2810  0.4001
13515TIP3    H262037   3.013   1.111  16.037 -2.5699  0.8151  2.8490
13516TIP3   OH262038   0.305   0.860  14.654 -0.4166 -0.4167  0.0394
13516TIP3    H162039   0.210   0.871  14.661 -0.1909  1.2803  1.1653
13516TIP3    H262040   0.333   0.831  14.741  0.1189 -0.7398 -0.2319
13517TIP3   OH262041   2.363   4.681  12.836 -0.0756 -0.3322 -0.5739
13517TIP3    H162042   2.300   4.639  12.777  0.3491 -3.1740  0.8341
13517TIP3    H262043   2.316   4.689  12.919  0.7494 -0.6219 -0.0693
13518TIP3   OH262044   4.323   5.736   2.454  0.0401 -0.2534  0.0361
13518TIP3    H162045   4.416   5.721   2.471 -0.2730 -1.4213  0.8519
13518TIP3    H262046   4.312   5.713   2.361  0.6847  0.5642 -0.2513
13519TIP3   OH262047   6.212   1.613  15.983  0.1546 -0.3301  0.2088
13519TIP3    H162048   6.234   1.601  16.075  1.0280  1.1695  0.2275
13519TIP3    H262049   6.155   1.690  15.982 -2.3710 -2.0592 -0.2342
13520TIP3   OH262050   2.459   2.180  14.163  0.0665 -0.1879  0.1706
13520TIP3    H162051   2.376   2.134  14.149  1.0069 -1.3528 -2.2540
13520TIP3    H262052   2.447   2.266  14.123  0.0971 -0.4636 -0.4431
13521TIP3   OH262053   4.947   4.734   5.814  0.4385 -0.5366  0.2036
13521TIP3    H162054   4.928   4.758   5.724  2.2941 -0.9200 -0.3133
13521TIP3    H262055   5.018   4.792   5.841 -0.4328 -0.0659  1.6223
13522TIP3   OH262056   4.847   2.453  12.401  0.1132  0.0914  0.2178
13522TIP3    H162057   4.931   2.454  12.447  1.6591 -0.8307 -2.3508
13522TIP3    H262058   4.801   2.377  12.437  1.2403 -0.5674  0.3134
13523TIP3   OH262059   3.278   4.644   0.701 -0.2598 -0.0234 -0.0134
13523TIP3    H162060   3.242   4.691   0.777 -0.2861  0.1674 -0.1444
13523TIP3    H262061   3.210   4.581   0.679 -0.8836  0.8878 -0.7706
13524TIP3   OH262062   0.697   5.148  13.027 -0.2366 -0.4857  0.3740
13524TIP3    H162063   0.685   5.241  13.005 -1.8958 -0.7301  0.1163
13524TIP3    H262064   0.658   5.140  13.115  0.3970 -0.8350  0.6250
13525TIP3   OH262065   5.882   0.228  16.708 -0.2710 -0.3126 -0.1458
13525TIP3    H162066   5.821   0.174  16.758 -0.8291 -1.9927 -2.4710
13525TIP3    H262067   5.860   0.318  16.732 -2.2653 -0.9492  0.6279
13526TIP3   OH262068   6.264   5.387   2.908  0.2832  0.3939 -0.2816
13526TIP3    H162069   6.243   5.370   2.816 -1.3094 -0.1845  0.1465
13526TIP3    H262070   6.254   5.302   2.950  3.2125  0.1374  0.1072
13527TIP3   OH262071   3.771   1.462   3.523  0.2904  0.0368  0.0889
13527TIP3    H162072   3.742   1.529   3.586  2.7477  0.2592  1.0907
13527TIP3    H262073   3.724   1.383   3.550 -0.1192  0.5800  1.0335
13528TIP3   OH262074   0.068   2.221   5.030 -0.4739  0.4939 -0.5046
13528TIP3    H162075  -0.019   2.252   5.057 -0.1613  1.9890 -1.1050
13528TIP3    H262076   0.125   2.242   5.104 -0.8940 -2.2957  0.7522
13529TIP3   OH262077   0.074   2.060   0.424 -0.1475  0.5242 -0.2120
13529TIP3    H162078   0.007   2.012   0.375  0.2747 -0.3265  0.0151
13529TIP3    H262079   0.071   2.149   0.389 -1.6002  0.5889  0.0039
13530TIP3   OH262080   3.057   5.011   1.289 -0.2772 -0.3243 -0.0488
13530TIP3    H162081   3.101   4.957   1.224  0.1436  0.8575 -0.7871
13530TIP3    H262082   3.087   4.977   1.374 -0.9909 -2.0168 -0.4295
13531TIP3   OH262083   1.903   0.200   1.117 -0.2939  0.4146  0.1038
13531TIP3    H162084   1.944   0.184   1.202 -0.2114  0.7723  0.1339
13531TIP3    H262085   1.864   0.288   1.125 -1.7670 -0.2296  0.3469
13532TIP3   OH262086   5.401   1.274  14.193  0.9218 -0.4570 -0.2103
13532TIP3    H162087   5.319   1.305  14.232  1.5715  0.1080  0.7554
13532TIP3    H262088   5.383   1.184  14.168 -0.6375  0.2748 -1.9730
13533TIP3   OH262089   0.198   2.283  12.780 -0.4839 -0.1643 -0.3603
13533TIP3    H162090   0.193   2.192  12.808  0.0535 -0.1837 -0.3049
13533TIP3    H262091   0.291   2.306  12.791 -0.1239 -0.3381 -2.6977
13534TIP3   OH262092   1.767   3.791  15.192  0.5159  0.0671 -0.4247
13534TIP3    H162093   1.766   3.753  15.104  2.0489  3.0172 -1.8753
13534TIP3    H262094   1.699   3.860  15.188 -0.2580 -0.5603  1.1578
13535TIP3   OH262095   0.404   4.089  12.000 -0.2957 -0.0510 -0.2604
13535TIP3    H162096   0.395   4.137  11.918 -2.2241 -1.3110 -0.8629
13535TIP3    H262097   0.370   4.148  12.067  0.2249  0.5571 -0.5255
13536TIP3   OH262098   4.157   0.234  14.839  0.2414 -0.3558  0.1274
13536TIP3    H162099   4.222   0.302  14.857 -0.7106  0.8940 -0.9859
13536TIP3    H262100   4.083   0.256  14.896  0.6466 -1.6294  1.2089
13537TIP3   OH262101   6.168   2.502   3.767  0.3789 -0.2341 -0.0979
13537TIP3    H162102   6.231   2.475   3.833  0.6193  3.2573  1.3141
13537TIP3    H262103   6.083   2.499   3.812  0.2441  0.1193 -0.3236
13538TIP3   OH262104   0.338   3.969   5.083 -0.1516 -0.4308  0.0629
13538TIP3    H162105   0.247   3.960   5.055  0.2156  0.5943 -1.5623
13538TIP3    H262106   0.333   4.025   5.160 -0.9696 -1.2412  0.6262
13539TIP3   OH262107   6.595   5.095   3.695  0.0050 -0.1239  0.1081
13539TIP3    H162108   6.641   5.134   3.769 -0.8907  1.3877 -0.0796
13539TIP3    H262109   6.662   5.083   3.628  1.0030 -2.3385  1.4225
13540TIP3   OH262110   0.357   5.834  17.311 -0.2236 -0.4179 -0.0516
13540TIP3    H162111   0.415   5.795  17.376 -1.8732 -2.3086  0.3925
13540TIP3    H262112   0.352   5.769  17.241 -1.4932 -0.1502 -0.2294
13541TIP3   OH262113   5.357   5.193   5.862  0.3576 -0.0453  0.2927
13541TIP3    H162114   5.320   5.221   5.946  1.0842 -0.2881  0.7029
13541TIP3    H262115   5.281   5.183   5.805 -0.2290 -0.6737  1.1516
13542TIP3   OH262116   4.324   4.464  13.238  0.5536 -0.1723  0.2836
13542TIP3    H162117   4.394   4.400  13.228  1.1332  0.2034  1.6779
13542TIP3    H262118   4.369   4.546  13.255 -0.2093  0.3830 -0.3260
13543TIP3   OH262119   6.778   0.478  15.800 -0.2376  0.1821 -0.2346
13543TIP3    H162120   6.684   0.483  15.783 -0.1910 -1.0563 -1.0191
13543TIP3    H262121   6.799   0.560  15.844 -1.6477  0.5617 -0.2134
13544TIP3   OH262122   0.473   0.276  15.453 -0.2727 -0.5064  0.1990
13544TIP3    H162123   0.565   0.293  15.433 -0.4316 -1.1803 -1.2027
13544TIP3    H262124   0.451   0.341  15.520  0.3525  1.7432 -1.6610
13545TIP3   OH262125   3.136   4.143  16.604 -0.0813  0.2511  0.1369
13545TIP3    H162126   3.113   4.124  16.513 -1.1938 -1.2494  0.7033
13545TIP3    H262127   3.056   4.123  16.654  0.5201  1.0127  1.4625
13546TIP3   OH262128   2.099   4.275   2.596  0.4809  0.1377 -0.7316
13546TIP3    H162129   2.115   4.256   2.503  0.3492  0.0644 -0.7399
13546TIP3    H262130   2.010   4.309   2.598  0.4038 -0.0735 -0.6021
13547TIP3   OH262131   2.348   2.740  14.942 -0.0516 -0.6309  0.1796
13547TIP3    H162132   2.280   2.804  14.963  0.9874  0.3344  0.6959
13547TIP3    H262133   2.303   2.656  14.947 -1.5866  0.0569 -1.0777
13548TIP3   OH262134   4.822   6.743  15.586  0.0124  1.0152 -0.4271
13548TIP3    H162135   4.804   6.713  15.675 -0.1582 -1.5268 -1.2362
13548TIP3    H262136   4.738   6.733  15.540  0.7646 -0.5278 -1.5532
13549TIP3   OH262137   0.174   4.657  11.690 -0.1645 -0.5753  0.3396
13549TIP3    H162138   0.181   4.571  11.732  0.5224 -0.6436  0.1051
13549TIP3    H262139   0.227   4.715  11.745 -0.8706 -0.2282  0.6673
13550TIP3   OH262140   1.657   5.331  15.338  0.0570 -0.5184 -0.3544
13550TIP3    H162141   1.598   5.331  15.413 -0.0780  1.0595 -0.4181
13550TIP3    H262142   1.607   5.289  15.268 -0.4836 -0.3980 -0.0470
13551TIP3   OH262143   1.048   0.593   5.314  0.2550 -0.1149 -0.1409
13551TIP3    H162144   1.114   0.524   5.306  1.3087  0.9327 -0.9094
13551TIP3    H262145   0.985   0.574   5.245  0.3796 -0.4789 -0.1575
13552TIP3   OH262146   6.761   1.609  14.044  0.6375 -0.1854  0.1584
13552TIP3    H162147   6.816   1.654  14.109 -0.1042  0.6435  0.2174
13552TIP3    H262148   6.683   1.583  14.093 -0.3087  1.1842 -0.5653
13553TIP3   OH262149   6.638   3.881   0.780  0.5459  0.5136  0.2698
13553TIP3    H162150   6.609   3.960   0.824  1.0901  0.2856  1.0521
13553TIP3    H262151   6.725   3.903   0.747  0.1490  0.6794 -0.6997
13554TIP3   OH262152   4.719   6.427   5.086 -0.0981  0.5790  0.2374
13554TIP3    H162153   4.656   6.388   5.146  0.2723 -1.7827 -0.7794
13554TIP3    H262154   4.786   6.464   5.143  0.0657 -1.2749  1.3548
13555TIP3   OH262155   2.067   5.949   5.675 -0.0082 -0.1364 -0.1365
13555TIP3    H162156   2.009   6.008   5.723 -0.8752 -1.3602  0.3574
13555TIP3    H262157   2.016   5.869   5.663  0.7677 -0.4399 -1.6965
13556TIP3   OH262158   1.322   6.460   0.486 -0.5548  0.3006 -0.0568
13556TIP3    H162159   1.297   6.507   0.566 -0.1066  1.8000 -0.7595
13556TIP3    H262160   1.296   6.518   0.415  0.4323 -0.3240 -0.9533
13557TIP3   OH262161   5.329   4.354   2.925  0.4895 -0.6171 -0.6256
13557TIP3    H162162   5.342   4.334   2.832  0.3481 -2.1149 -0.3463
13557TIP3    H262163   5.266   4.289   2.955  1.5917 -1.0666  0.8394
13558TIP3   OH262164   5.155   6.518  13.262  0.6519  0.1651 -0.1836
13558TIP3    H162165   5.195   6.587  13.210  0.2864  0.0189 -0.6654
13558TIP3    H262166   5.211   6.510  13.339  0.3326  1.4714  0.2191
13559TIP3   OH262167   4.943   3.226   4.502 -0.1991  0.3283  0.4792
13559TIP3    H162168   5.015   3.181   4.546  0.4419 -0.6788 -1.4704
13559TIP3    H262169   4.870   3.165   4.508 -0.6965  1.0397  1.8294
13560TIP3   OH262170   1.557   3.609   5.223 -0.0295 -0.3428  0.0747
13560TIP3    H162171   1.643   3.611   5.180  0.3570 -0.3325  0.8229
13560TIP3    H262172   1.555   3.524   5.267 -0.9406 -0.8868 -0.9845
13561TIP3   OH262173   6.271   1.248   3.262  0.5217 -0.7804 -0.6328
13561TIP3    H162174   6.239   1.278   3.347 -0.3422  0.2544 -1.3114
13561TIP3    H262175   6.366   1.261   3.266  0.6608 -1.9217  0.6143
13562TIP3   OH262176   4.635   2.685   3.701 -0.2029 -0.0854 -0.5462
13562TIP3    H162177   4.591   2.656   3.621 -0.1256  1.3057 -1.1046
13562TIP3    H262178   4.617   2.779   3.707  0.1353 -0.0760  0.8616
13563TIP3   OH262179   2.781   5.309  13.515 -0.9248  0.0456 -0.2055
13563TIP3    H162180   2.853   5.246  13.513 -1.4834 -0.6381  0.5311
13563TIP3    H262181   2.824   5.394  13.526 -0.2455 -0.3766  0.4894
13564TIP3   OH262182   6.384   0.841   5.151 -0.2471  0.4193  0.5614
13564TIP3    H162183   6.302   0.886   5.131 -0.7766 -1.0643 -0.8928
13564TIP3    H262184   6.374   0.755   5.110  1.9262  0.0958  0.6073
13565TIP3   OH262185   2.150   4.259   3.473 -0.6180  0.3103 -0.6937
13565TIP3    H162186   2.077   4.292   3.419  0.5115  1.8577 -1.3421
13565TIP3    H262187   2.221   4.322   3.458  1.2066 -1.6871 -0.8606
13566TIP3   OH262188   5.044   3.225  14.395 -0.2768 -0.0939  0.2208
13566TIP3    H162189   5.055   3.131  14.376  1.7346  0.2080 -0.3011
13566TIP3    H262190   5.108   3.243  14.464 -0.1405  1.0559 -0.1921
13567TIP3   OH262191   6.727   4.183   2.193  0.1008  0.1753 -0.2031
13567TIP3    H162192   6.670   4.192   2.269 -2.1679  3.9106 -2.0435
13567TIP3    H262193   6.679   4.127   2.132  0.2600  0.0748 -0.2369
13568TIP3   OH262194   5.363   3.278  12.506  0.1423  0.1302  0.3801
13568TIP3    H162195   5.393   3.186  12.504 -0.1560  0.0010  1.2312
13568TIP3    H262196   5.377   3.305  12.597  0.4722  1.0215  0.0751
13569TIP3   OH262197   3.965   1.517   3.722  0.4363 -0.0673 -0.1959
13569TIP3    H162198   4.011   1.575   3.661 -0.8778  0.3103 -0.8739
13569TIP3    H262199   3.906   1.466   3.666  0.2642 -0.7636  0.6041
13570TIP3   OH262200   0.649   3.234   5.472  0.2807  0.4408  0.4555
13570TIP3    H162201   0.595   3.311   5.454  1.2017  0.8562 -0.6661
13570TIP3    H262202   0.723   3.268   5.522 -0.7615 -0.2305  2.5778
13571TIP3   OH262203   0.662   2.880   3.833 -0.2232  0.0635 -0.2464
13571TIP3    H162204   0.675   2.973   3.815 -0.4150 -0.1773 -1.7695
13571TIP3    H262205   0.650   2.840   3.746 -0.5047 -1.3225  0.4011
13572TIP3   OH262206   1.004   0.603  11.737  0.4261 -0.2322 -0.6893
13572TIP3    H162207   1.009   0.516  11.776  0.1068  0.6954  1.5201
13572TIP3    H262208   1.096   0.628  11.723  0.6049 -0.1527  0.5197
13573TIP3   OH262209   5.342   1.227   1.353 -0.7629  0.0244 -0.3454
13573TIP3    H162210   5.280   1.250   1.422 -0.4656 -0.0203 -0.0604
13573TIP3    H262211   5.356   1.308   1.304  1.0152  0.7377  1.2324
13574TIP3   OH262212   1.287   4.612  12.721  0.6847 -0.0569 -0.1017
13574TIP3    H162213   1.279   4.707  12.721 -0.8525 -0.1459  0.5700
13574TIP3    H262214   1.283   4.586  12.629  0.9465  0.5108 -0.2726
13575TIP3   OH262215   6.235   2.715   2.550  0.0211  0.0912  0.1312
13575TIP3    H162216   6.302   2.673   2.496  0.8121  1.2946  0.1304
13575TIP3    H262217   6.258   2.808   2.548 -1.3038  0.4561  0.6350
13576TIP3   OH262218   6.507   3.011   4.043 -0.1846  0.2224  0.3413
13576TIP3    H162219   6.523   2.943   4.109  0.5374 -0.4958 -0.5447
13576TIP3    H262220   6.567   3.082   4.067  0.7998 -0.4415 -0.0954
13577TIP3   OH262221   0.121   5.872  15.031 -0.2058 -0.3668  0.6646
13577TIP3    H162222   0.091   5.884  14.941  0.8952 -1.4500  0.1339
13577TIP3    H262223   0.084   5.788  15.058  2.3188 -1.8273 -0.0622
13578TIP3   OH262224   4.836   6.556   3.375  0.1944 -0.2958  0.5189
13578TIP3    H162225   4.763   6.496   3.359  0.3159 -0.6762  1.3655
13578TIP3    H262226   4.794   6.639   3.399  0.0385 -0.2199  0.0082
13579TIP3   OH262227   2.197   0.679   3.258  0.1525 -0.3970  0.3947
13579TIP3    H162228   2.273   0.690   3.315  1.1705  0.9999 -1.1215
13579TIP3    H262229   2.122   0.709   3.311  1.1557  1.5754  0.8032
13580TIP3   OH262230   3.329   6.761  11.157 -0.4162  0.2422  0.7842
13580TIP3    H162231   3.422   6.743  11.172 -0.4739 -1.4357 -0.5484
13580TIP3    H262232   3.299   6.685  11.107 -2.2837  1.2394  0.3513
13581TIP3   OH262233   0.689   1.722   5.178 -0.6225 -0.1330 -0.2584
13581TIP3    H162234   0.609   1.761   5.214  0.1640  0.2532  1.1616
13581TIP3    H262235   0.747   1.713   5.254  0.8558  0.0134 -1.3353
13582TIP3   OH262236   6.520   5.927  16.680 -0.1173  0.3634  0.1216
13582TIP3    H162237   6.484   5.848  16.721 -0.9531  1.0811  0.7973
13582TIP3    H262238   6.614   5.922  16.697 -0.5371  1.4141  3.6410
13583TIP3   OH262239   5.792   0.177   6.109 -0.1421 -0.0135  0.8135
13583TIP3    H162240   5.758   0.226   6.034 -1.2720  1.3251  2.1391
13583TIP3    H262241   5.768   0.230   6.185 -0.1065 -1.9293  2.2215
13584TIP3   OH262242   3.315   2.504  15.053  0.2204 -0.3968  0.0807
13584TIP3    H162243   3.316   2.563  15.128 -0.5922  1.3314 -1.1881
13584TIP3    H262244   3.226   2.513  15.018  0.3189 -1.8233 -0.5870
13585TIP3   OH262245   0.100   6.157  15.037 -0.1347 -0.5806 -0.8031
13585TIP3    H162246   0.160   6.127  15.106  0.6202 -0.8117 -1.5421
13585TIP3    H262247   0.080   6.078  14.987 -0.0064 -0.2694 -1.3504
13586TIP3   OH262248   4.229   2.241  13.488 -0.0695 -0.4686  0.3624
13586TIP3    H162249   4.311   2.281  13.519  0.7341 -1.3994 -0.4725
13586TIP3    H262250   4.257   2.159  13.448 -1.2729 -0.1535 -1.2013
13587TIP3   OH262251   3.695   2.390  14.230 -0.0899 -0.3500 -0.8252
13587TIP3    H162252   3.619   2.333  14.242 -1.6460  1.4638 -1.6029
13587TIP3    H262253   3.661   2.479  14.239  1.7006  0.5685 -2.3530
13588TIP3   OH262254   4.286   3.467  16.896  0.4972 -0.2299 -0.5358
13588TIP3    H162255   4.359   3.416  16.933  0.4952  0.4607  0.4611
13588TIP3    H262256   4.242   3.503  16.973  0.2427  0.9085 -1.2085
13589TIP3   OH262257   4.637   1.365   4.991 -0.1285  0.5927  0.3480
13589TIP3    H162258   4.638   1.425   5.065 -0.6003  1.5350 -0.3867
13589TIP3    H262259   4.604   1.417   4.918 -1.1640 -0.7293 -0.1742
13590TIP3   OH262260   2.893   6.342   2.846  0.3816 -0.5212 -0.3148
13590TIP3    H162261   2.968   6.335   2.787  0.0294 -1.4900 -0.6635
13590TIP3    H262262   2.921   6.296   2.926  0.5479  0.0542 -0.0376
13591TIP3   OH262263   6.137   2.325   2.820 -0.4984  0.1220 -0.4315
13591TIP3    H162264   6.144   2.326   2.724 -0.1575  1.1088 -0.4103
13591TIP3    H262265   6.046   2.349   2.837 -0.9521 -1.4549 -0.5195
13592TIP3   OH262266   5.395   4.712   0.684 -0.5682  0.0118 -0.3560
13592TIP3    H162267   5.316   4.718   0.630 -1.0030 -0.9944  0.1402
13592TIP3    H262268   5.430   4.625   0.665  0.7377  0.6587 -0.9782
13593TIP3   OH262269   2.839   5.575  17.145 -0.1125 -0.9700  0.1538
13593TIP3    H162270   2.784   5.651  17.128 -0.3227 -1.0897  0.3025
13593TIP3    H262271   2.783   5.499  17.129  0.1834 -1.1006 -0.2886
13594TIP3   OH262272   2.218   4.532   3.852  0.3759  0.0622  0.2749
13594TIP3    H162273   2.164   4.586   3.910  0.3197  1.7093 -1.2437
13594TIP3    H262274   2.155   4.474   3.808  0.2170 -0.0223  0.6064
13595TIP3   OH262275   0.092   4.574  14.005  0.5444 -0.3612 -0.3138
13595TIP3    H162276   0.049   4.641  14.059  1.6409 -0.9457  1.3708
13595TIP3    H262277   0.021   4.515  13.979 -0.1549  0.4552 -0.2925
13596TIP3   OH262278   4.554   2.632  10.472 -0.3147 -0.4371 -0.6177
13596TIP3    H162279   4.470   2.588  10.483 -0.1614 -1.0281 -1.6555
13596TIP3    H262280   4.536   2.701  10.408 -0.1317 -0.2203 -0.4342
13597TIP3   OH262281   6.355   2.055  17.076 -0.1289  0.0796  0.3512
13597TIP3    H162282   6.298   1.997  17.124  0.0467 -0.4815 -0.1065
13597TIP3    H262283   6.362   2.133  17.131  1.1007 -1.0333  1.8614
13598TIP3   OH262284   4.044   4.311   0.045 -0.0442  0.5707 -0.1205
13598TIP3    H162285   4.125   4.318   0.095  0.1120 -1.5637 -0.0001
13598TIP3    H262286   3.980   4.279   0.109 -0.7957  1.4449 -0.4108
13599TIP3   OH262287   2.132   2.558  13.885 -0.4923 -0.4796  0.4350
13599TIP3    H162288   2.087   2.635  13.920  0.5483 -0.0347  0.8483
13599TIP3    H262289   2.170   2.588  13.803 -1.7478 -1.1297 -0.4097
13600TIP3   OH262290   5.772   1.305  14.900 -0.2759 -0.5855  0.3015
13600TIP3    H162291   5.715   1.275  14.970 -1.5819  1.7752  0.3426
13600TIP3    H262292   5.829   1.369  14.941 -0.4138  0.1244 -0.5843
13601TIP3   OH262293   0.189   5.900  16.699 -0.3875  0.0817 -0.1764
13601TIP3    H162294   0.201   5.995  16.693  2.0034 -0.1147  0.1764
13601TIP3    H262295   0.220   5.867  16.615  0.0668 -0.4437  0.1888
13602TIP3   OH262296   2.491   2.249   2.190 -0.3213 -0.1082 -0.0477
13602TIP3    H162297   2.419   2.290   2.239  1.5289  3.1664  0.2208
13602TIP3    H262298   2.450   2.214   2.111 -2.2529  1.4847  0.1764
13603TIP3   OH262299   1.052   3.260   4.449 -0.5696 -0.2627  0.1403
13603TIP3    H162300   1.135   3.254   4.495  0.1906  3.1676 -0.5509
13603TIP3    H262301   0.988   3.282   4.517  0.3676  3.7023 -0.0320
13604TIP3   OH262302   4.219   5.508  13.283 -0.1406  0.2928 -0.2761
13604TIP3    H162303   4.188   5.490  13.373  1.4344 -1.2684  0.0072
13604TIP3    H262304   4.138   5.524  13.234 -1.3696 -2.1333  0.7405
13605TIP3   OH262305   0.355   5.227  13.084  0.0736 -0.1801  0.4765
13605TIP3    H162306   0.425   5.191  13.138  0.1279 -0.3602  0.2863
13605TIP3    H262307   0.392   5.230  12.995 -0.2995 -0.6611  0.3034
13606TIP3   OH262308   6.443   6.176  13.756  0.1727 -0.1772  0.2109
13606TIP3    H162309   6.523   6.222  13.730  0.0212  1.1135  1.8515
13606TIP3    H262310   6.419   6.215  13.840 -2.0261 -0.7300 -0.0871
13607TIP3   OH262311   4.748   0.858  14.943 -0.5066 -1.4102 -0.0375
13607TIP3    H162312   4.708   0.774  14.920 -0.1378 -1.9118  1.0825
13607TIP3    H262313   4.677   0.922  14.933 -0.9799 -1.9579 -0.2334
13608TIP3   OH262314   2.838   3.988   0.658 -0.8993 -0.3769  0.0499
13608TIP3    H162315   2.779   3.955   0.725 -2.1901  0.2928 -0.7244
13608TIP3    H262316   2.784   3.995   0.580  0.8479 -2.4578 -1.4992
13609TIP3   OH262317   5.004   4.408  11.571 -0.2002  0.1028  0.9202
13609TIP3    H162318   5.012   4.343  11.501 -1.1706  1.2704 -0.3178
13609TIP3    H262319   5.000   4.356  11.652 -2.3891 -1.4888 -0.1111
13610TIP3   OH262320   3.748   2.443  11.159 -0.1882 -0.1966  0.2441
13610TIP3    H162321   3.821   2.392  11.124 -0.7005 -0.5686 -0.3092
13610TIP3    H262322   3.670   2.399  11.125 -0.6367  1.1319 -0.4821
13611TIP3   OH262323   3.559   2.496  11.404 -0.0000  0.4765  0.4459
13611TIP3    H162324   3.485   2.527  11.457  0.4815  0.5767  1.0819
13611TIP3    H262325   3.538   2.405  11.384  0.4463 -0.0096  2.0200
13612TIP3   OH262326   2.334   2.053  13.065 -0.0350  0.1661  0.1748
13612TIP3    H162327   2.267   1.993  13.099 -2.4433  2.4378 -0.2213
13612TIP3    H262328   2.318   2.057  12.971 -1.9960  3.5214  0.4801
13613TIP3   OH262329   2.124   2.743   2.988 -0.0862 -0.5370  0.1475
13613TIP3    H162330   2.035   2.708   2.985 -0.7410  0.9549  0.9777
13613TIP3    H262331   2.143   2.750   3.081  0.3901  0.3548 -0.0079
13614TIP3   OH262332   4.006   3.387   4.641  0.0713 -0.8705 -0.5640
13614TIP3    H162333   4.078   3.345   4.595 -0.1905 -1.2454 -0.6392
13614TIP3    H262334   3.959   3.315   4.683  0.3155 -0.5293  0.3038
13615TIP3   OH262335   3.324   3.701   4.694 -0.2765 -0.4933 -0.3572
13615TIP3    H162336   3.262   3.774   4.697 -0.1598 -0.3543 -1.1175
13615TIP3    H262337   3.370   3.713   4.612  1.3098 -0.1487  0.5438
13616TIP3   OH262338   3.251   0.027  12.195  0.5280  0.3087  0.2662
13616TIP3    H162339   3.189   0.092  12.228 -1.6625 -0.3495 -2.2074
13616TIP3    H262340   3.322   0.078  12.158  1.0679  1.1101  2.2809
13617TIP3   OH262341   4.959   6.610   1.670  0.4766  0.2359  0.3996
13617TIP3    H162342   4.956   6.514   1.677  0.4305  0.2133  0.1132
13617TIP3    H262343   5.043   6.628   1.628 -0.2755  0.1975 -1.2182
13618TIP3   OH262344   4.121   1.208  12.160 -0.0781 -0.2646 -0.0374
13618TIP3    H162345   4.114   1.138  12.095  0.6134  0.6485 -1.1289
13618TIP3    H262346   4.216   1.223  12.168 -0.1206 -0.6332  1.4996
13619TIP3   OH262347   1.000   4.401   4.281 -0.2934 -0.0949 -0.1755
13619TIP3    H162348   0.936   4.379   4.349  0.4997 -2.0102  0.0426
13619TIP3    H262349   0.956   4.380   4.198 -0.4586  0.0056 -0.1120
13620TIP3   OH262350   4.677   2.680  10.714 -0.6992 -0.0642 -0.0473
13620TIP3    H162351   4.629   2.657  10.634 -1.5265 -0.0395  0.4353
13620TIP3    H262352   4.722   2.599  10.738 -1.4313 -0.4253  0.1363
13621TIP3   OH262353   5.385   0.442   5.179 -0.0990 -0.4174 -0.0030
13621TIP3    H162354   5.376   0.533   5.208  0.9190 -0.2264 -0.2419
13621TIP3    H262355   5.306   0.425   5.128  1.0454  1.3708 -2.6383
13622TIP3   OH262356   2.767   0.179   2.566  0.2275  0.1765  0.3349
13622TIP3    H162357   2.792   0.146   2.479  0.4231 -1.3862  0.9484
13622TIP3    H262358   2.676   0.206   2.556  0.2684  0.0684 -0.3813
13623TIP3   OH262359   0.750   6.207  11.342 -0.0650  0.2806  0.3587
13623TIP3    H162360   0.701   6.172  11.267  0.1685  1.4352 -0.3512
13623TIP3    H262361   0.771   6.297  11.318  2.1804 -0.0712  0.7513
13624TIP3   OH262362   5.071   6.205  15.445  0.6524 -0.0261  0.1532
13624TIP3    H162363   5.107   6.290  15.420  0.1279  0.0188 -0.4833
13624TIP3    H262364   5.123   6.141  15.397 -1.1583  0.1141 -2.1862
13625TIP3   OH262365   0.190   1.023  12.242 -0.5464 -0.0595  0.4889
13625TIP3    H162366   0.235   1.058  12.165  0.0692 -1.5917  0.1017
13625TIP3    H262367   0.097   1.032  12.222 -0.4858  2.7547  1.1059
13626TIP3   OH262368   1.117   4.406   5.403  0.5620 -0.1266  0.1121
13626TIP3    H162369   1.109   4.345   5.330  0.3266  1.8148 -1.5888
13626TIP3    H262370   1.209   4.434   5.400 -0.0754  2.0873 -1.3565
13627TIP3   OH262371   0.391   0.245   1.545  0.3019 -0.2852 -0.1531
13627TIP3    H162372   0.326   0.253   1.474  1.0382 -0.8339 -0.9178
13627TIP3    H262373   0.473   0.226   1.499  0.4037 -2.8041  0.9287
13628TIP3   OH262374   0.976   3.645  11.521 -0.9657 -0.2737  0.0296
13628TIP3    H162375   0.898   3.595  11.543 -0.8881 -1.7035 -2.5603
13628TIP3    H262376   0.990   3.629  11.428  1.8417  0.7637  0.1664
13629TIP3   OH262377   4.592   4.295   3.168  0.4853  0.1691  0.2800
13629TIP3    H162378   4.593   4.390   3.165  0.1251  0.1702 -0.0385
13629TIP3    H262379   4.500   4.273   3.184 -0.0094 -0.1590 -2.3789
13630TIP3   OH262380   3.383   1.787  12.144  0.4011 -0.0483  0.4676
13630TIP3    H162381   3.294   1.819  12.158 -0.0159 -1.1448  0.4232
13630TIP3    H262382   3.434   1.865  12.125 -0.7052  0.5257 -0.2299
13631TIP3   OH262383   4.338   2.776  13.195  0.0911  0.1254 -0.4545
13631TIP3    H162384   4.291   2.812  13.271  0.1189  1.8012 -1.1870
13631TIP3    H262385   4.392   2.705  13.231 -0.6401  0.2363  0.9144
13632TIP3   OH262386   3.184   1.861   2.657  0.0793  0.1773 -0.1244
13632TIP3    H162387   3.129   1.915   2.600 -0.6126  0.2151  0.5554
13632TIP3    H262388   3.231   1.924   2.712  0.4376  0.1309 -0.3790
13633TIP3   OH262389   4.753   3.775   0.390 -0.1914  0.5766 -0.1735
13633TIP3    H162390   4.750   3.680   0.398  0.5194  0.4855 -0.8238
13633TIP3    H262391   4.771   3.791   0.297  0.3902  1.3255  0.0536
13634TIP3   OH262392   4.811   4.424  11.796 -0.7869  0.0100 -0.0921
13634TIP3    H162393   4.858   4.467  11.868 -0.5655 -0.7009  0.2026
13634TIP3    H262394   4.816   4.486  11.724 -0.2041  0.3477  0.2246
13635TIP3   OH262395   1.014   0.579   1.228 -0.4343 -0.1526  0.3065
13635TIP3    H162396   0.964   0.656   1.256  0.2790  0.0227  1.1422
13635TIP3    H262397   0.950   0.524   1.184 -1.4114 -0.0092  1.4931
13636TIP3   OH262398   1.433   6.441   2.904 -0.4014  0.5674  0.5921
13636TIP3    H162399   1.514   6.462   2.858 -0.9248  0.7157 -0.2752
13636TIP3    H262400   1.455   6.364   2.957 -0.2181 -0.6867 -1.2008
13637TIP3   OH262401   5.332   1.641  13.697  0.2299  0.1470 -0.0437
13637TIP3    H162402   5.321   1.614  13.788  0.8156 -0.2419 -0.0834
13637TIP3    H262403   5.356   1.560  13.651 -1.4498  0.0433 -0.8098
13638TIP3   OH262404   3.105   4.799  13.342  0.2514  0.0805  0.1195
13638TIP3    H162405   3.061   4.862  13.285 -3.2150 -1.6219  0.6410
13638TIP3    H262406   3.180   4.769  13.290  0.2387  2.3187 -1.3565
13639TIP3   OH262407   2.775   0.405  13.555 -0.3642 -0.2862 -0.2034
13639TIP3    H162408   2.756   0.458  13.478  0.5084 -2.3534 -1.9474
13639TIP3    H262409   2.696   0.354  13.569 -0.1017 -0.7874 -0.5114
13640TIP3   OH262410   6.417   3.153  15.078 -0.1900  0.5427 -0.1642
13640TIP3    H162411   6.459   3.124  15.159  1.9961  0.4106 -1.2572
13640TIP3    H262412   6.377   3.236  15.100  0.0984  0.3537  1.1414
13641TIP3   OH262413   2.748   1.372   2.421  0.0128  0.1935  0.1098
13641TIP3    H162414   2.672   1.424   2.396 -0.1744 -0.7398 -1.3607
13641TIP3    H262415   2.801   1.432   2.474 -1.5207  0.9877  0.8246
13642TIP3   OH262416   0.591   6.018   0.140  0.1016  0.4314  0.2099
13642TIP3    H162417   0.499   6.029   0.163 -0.1609 -0.3980 -0.4365
13642TIP3    H262418   0.616   5.935   0.179 -0.2070 -0.7477 -1.9403
13643TIP3   OH262419   2.061   5.061   2.988 -0.3211  0.3512 -0.3573
13643TIP3    H162420   1.985   5.093   2.939 -1.3474  1.2261  1.6590
13643TIP3    H262421   2.028   5.049   3.077  1.7418  0.0010  0.4143
13644TIP3   OH262422   3.398   4.694   2.900 -0.2487 -0.3716 -0.1345
13644TIP3    H162423   3.330   4.687   2.967  0.2219 -0.9841  0.2920
13644TIP3    H262424   3.394   4.610   2.853  1.2826 -1.0935  0.9551
13645TIP3   OH262425   4.344   2.357   1.704 -0.4065  0.2642 -0.2970
13645TIP3    H162426   4.424   2.332   1.659 -0.3798  0.7968 -0.5550
13645TIP3    H262427   4.364   2.342   1.797  1.1119  3.2110 -0.0248
13646TIP3   OH262428   0.454   3.376  15.589  0.2252  0.0772 -0.5375
13646TIP3    H162429   0.459   3.462  15.632  0.3780  0.4355 -1.2690
13646TIP3    H262430   0.385   3.386  15.523  0.5563 -0.2294 -0.9329
13647TIP3   OH262431   3.107   2.751   0.099  0.1680  0.1898 -0.0388
13647TIP3    H162432   3.134   2.835   0.136  2.5161  0.2494 -1.6873
13647TIP3    H262433   3.157   2.742   0.018  0.4288 -3.0437  0.3252
13648TIP3   OH262434   6.663   1.289  12.975  0.2861 -0.7410 -0.1202
13648TIP3    H162435   6.659   1.263  12.883  1.0161 -2.3321  0.2601
13648TIP3    H262436   6.732   1.355  12.978 -0.5851  0.2306 -0.8922
13649TIP3   OH262437   2.810   6.362  14.323  0.1051 -0.0668 -0.2817
13649TIP3    H162438   2.876   6.408  14.271 -0.4577  0.2828 -0.7062
13649TIP3    H262439   2.759   6.432  14.365 -0.3702 -0.3095 -0.4414
13650TIP3   OH262440   2.077   0.144  15.757 -0.2441 -0.0282 -0.3145
13650TIP3    H162441   2.071   0.135  15.662  0.5506  2.8364 -0.7099
13650TIP3    H262442   2.011   0.208  15.780 -1.7523 -2.0487  1.4153
13651TIP3   OH262443   2.227   4.308  15.384 -0.1964  0.1024  0.0061
13651TIP3    H162444   2.151   4.291  15.328  0.4935  3.2155 -2.1085
13651TIP3    H262445   2.299   4.261  15.342 -0.0150  1.0663 -0.7712
13652TIP3   OH262446   5.914   0.042  14.455 -0.0021 -0.5385 -0.1168
13652TIP3    H162447   5.924   0.062  14.548 -0.4529  2.7452 -0.6549
13652TIP3    H262448   6.002   0.018  14.426  0.6605  0.7424  0.7262
13653TIP3   OH262449   5.789   5.603  12.717 -0.1324  0.3804  0.4437
13653TIP3    H162450   5.870   5.571  12.677 -0.0769  0.5256  0.4400
13653TIP3    H262451   5.817   5.656  12.791 -0.2278  0.3205  0.5218
13654TIP3   OH262452   1.529   1.974  10.996  0.1972  0.0504 -0.0712
13654TIP3    H162453   1.499   1.934  10.914  3.1372  0.9049 -1.7151
13654TIP3    H262454   1.466   2.044  11.013 -0.0324  0.3929 -2.1016
13655TIP3   OH262455   6.289   2.838  15.856 -0.2236 -0.1876 -0.0871
13655TIP3    H162456   6.222   2.775  15.828 -0.1874 -0.6601  0.8545
13655TIP3    H262457   6.371   2.798  15.828 -0.1134 -1.1304  1.5026
13656TIP3   OH262458   6.208   6.091   4.871  0.6472  0.5673 -0.2304
13656TIP3    H162459   6.240   6.066   4.785 -2.5407 -0.3616 -1.3202
13656TIP3    H262460   6.209   6.009   4.921 -2.8056 -0.3916 -1.3925
13657TIP3   OH262461   0.472   0.819   6.438  0.5761 -0.5068 -0.1685
13657TIP3    H162462   0.406   0.751   6.428 -1.1070  1.1798 -1.2632
13657TIP3    H262463   0.552   0.781   6.401 -0.5789 -1.5167 -1.7574
13658TIP3   OH262464   4.971   2.420   5.749 -0.0146 -0.7755  0.1399
13658TIP3    H162465   4.920   2.480   5.696  0.7793 -0.3628 -0.1639
13658TIP3    H262466   4.962   2.454   5.838  2.4975  1.3604 -0.3159
13659TIP3   OH262467   2.707   6.033   2.190 -0.0666 -0.1603  0.1182
13659TIP3    H162468   2.623   6.080   2.186 -1.1323 -2.0473 -0.9139
13659TIP3    H262469   2.770   6.095   2.154 -1.4330  0.5063 -1.2492
13660TIP3   OH262470   6.489   5.519   5.003 -0.4644  0.1750 -0.1010
13660TIP3    H162471   6.480   5.530   4.908  1.0314  1.9309 -0.0959
13660TIP3    H262472   6.426   5.450   5.025 -1.3302  0.1894 -2.2573
13661TIP3   OH262473   2.752   5.438   3.979 -0.5009  0.3659 -0.2859
13661TIP3    H162474   2.759   5.346   4.002  1.3814  0.5199 -0.0790
13661TIP3    H262475   2.750   5.484   4.063 -1.7476  0.5302 -0.3797
13662TIP3   OH262476   5.898   4.792  11.557 -0.3179 -0.2703  0.9082
13662TIP3    H162477   5.894   4.878  11.515 -0.4778 -0.5159  0.4152
13662TIP3    H262478   5.876   4.809  11.648 -0.1518  0.2418  0.8577
13663TIP3   OH262479   1.840   5.144   1.039 -0.3235 -0.0193  0.4849
13663TIP3    H162480   1.849   5.137   1.134  1.9607  0.1331  0.3243
13663TIP3    H262481   1.874   5.231   1.018  0.1381 -0.4390 -0.5596
13664TIP3   OH262482   4.312   6.590   2.987 -0.2799 -0.2286  0.1870
13664TIP3    H162483   4.306   6.505   3.032 -1.0848 -1.2909 -1.7847
13664TIP3    H262484   4.256   6.648   3.039 -2.4587 -1.8209 -0.2056
13665TIP3   OH262485   1.553   5.255  13.262  0.3300  0.5852 -0.7304
13665TIP3    H162486   1.491   5.320  13.229 -0.2214  0.5181  0.1380
13665TIP3    H262487   1.513   5.224  13.343  1.1958  0.0675 -0.4977
13666TIP3   OH262488   6.204   6.018  15.588 -0.0766 -0.4192  0.1881
13666TIP3    H162489   6.299   6.029  15.588  0.1696 -2.1539 -0.7085
13666TIP3    H262490   6.186   5.963  15.664 -0.3807 -0.1178  0.3393
13667TIP3   OH262491   3.877   3.527  11.751  0.9650 -0.1947  0.0047
13667TIP3    H162492   3.789   3.491  11.769  0.4513  0.9358 -0.1870
13667TIP3    H262493   3.891   3.591  11.820  1.3752  0.0902 -0.3436
13668TIP3   OH262494   2.703   0.738   6.108  0.3080  1.0099 -0.7722
13668TIP3    H162495   2.677   0.821   6.069  1.7185  2.1453  0.5882
13668TIP3    H262496   2.673   0.743   6.198  1.4488  0.5605 -0.3504
13669TIP3   OH262497   0.417   2.585  10.657  0.4873 -0.3786 -0.3020
13669TIP3    H162498   0.496   2.532  10.651  1.5122  0.9494  0.9917
13669TIP3    H262499   0.447   2.675  10.652 -1.1319  0.1415 -1.4636
13670TIP3   OH262500   0.892   0.151  16.254  0.0839 -0.5840 -0.0264
13670TIP3    H162501   0.961   0.111  16.201 -0.4209 -0.7147 -0.5858
13670TIP3    H262502   0.928   0.150  16.343  0.5349 -1.2596 -0.2065
13671TIP3   OH262503   1.852   1.085   2.823  0.6359 -0.6070  0.2125
13671TIP3    H162504   1.915   1.030   2.778 -0.0570 -2.7894  1.7192
13671TIP3    H262505   1.900   1.120   2.898  0.8454  0.1497 -0.2730
13672TIP3   OH262506   4.960   0.910  16.389  0.6180  0.3513  0.3775
13672TIP3    H162507   4.899   0.956  16.446  0.0348  1.7488 -1.2545
13672TIP3    H262508   5.021   0.978  16.360 -1.8554  1.0235 -4.2472
13673TIP3   OH262509   2.882   6.251  16.304 -0.0353  0.6408  0.0620
13673TIP3    H162510   2.787   6.241  16.307  0.1187 -1.1244 -0.3559
13673TIP3    H262511   2.899   6.331  16.355 -1.5761 -0.1062  1.8527
13674TIP3   OH262512   2.461   3.900   6.574 -0.4077  0.1072 -0.1228
13674TIP3    H162513   2.545   3.880   6.532  0.3134 -0.0054  1.3192
13674TIP3    H262514   2.474   3.986   6.613 -0.5851 -0.3634  1.0143
13675TIP3   OH262515   5.822   2.852   3.908 -0.4134  0.3094  0.4149
13675TIP3    H162516   5.794   2.791   3.841 -3.1183  2.0324 -0.1653
13675TIP3    H262517   5.773   2.826   3.987  0.7875 -0.1324  1.0396
13676TIP3   OH262518   3.314   2.485  14.224 -0.1785  0.5595 -0.0730
13676TIP3    H162519   3.231   2.475  14.177  0.3136 -0.2563 -0.8039
13676TIP3    H262520   3.347   2.571  14.198 -0.3759  0.5127 -0.4764
13677TIP3   OH262521   0.255   4.832  12.433  0.4926 -0.4695 -0.4722
13677TIP3    H162522   0.275   4.925  12.443 -0.8309 -0.3336  1.5913
13677TIP3    H262523   0.329   4.787  12.475 -0.1589 -0.2029  1.0408
13678TIP3   OH262524   1.038   3.694   1.997  0.3209 -0.2085  0.1548
13678TIP3    H162525   1.112   3.681   1.936 -0.0446 -0.0417 -0.3270
13678TIP3    H262526   0.974   3.628   1.971 -0.0568  0.2090  0.0180
13679TIP3   OH262527   5.992   6.735   2.950 -0.2373 -0.0935  0.6833
13679TIP3    H162528   5.922   6.706   3.010  0.0348 -0.4576  0.8318
13679TIP3    H262529   5.961   6.710   2.863  0.3869 -1.6834  0.8857
13680TIP3   OH262530   4.557   3.926   4.548  0.4089 -0.5926  0.3992
13680TIP3    H162531   4.541   3.896   4.638  1.0466 -0.5225  0.5352
13680TIP3    H262532   4.558   4.021   4.554  0.4169 -0.5870  0.3062
13681TIP3   OH262533   2.660   4.442  11.598  0.3672  0.0539 -0.0974
13681TIP3    H162534   2.626   4.531  11.610 -0.6139 -0.4106  0.8362
13681TIP3    H262535   2.723   4.431  11.670 -0.9468 -0.6295  1.0119
13682TIP3   OH262536   3.565   2.294   5.365  0.1701 -0.1556 -0.0894
13682TIP3    H162537   3.507   2.308   5.440  2.2203  3.0525  1.0916
13682TIP3    H262538   3.506   2.266   5.294 -2.0876 -1.4762  2.1550
13683TIP3   OH262539   1.544   3.214   5.508  0.2302  0.0774  0.1817
13683TIP3    H162540   1.524   3.261   5.427  0.6269 -0.0774 -0.0059
13683TIP3    H262541   1.612   3.266   5.550  0.2475 -0.0108  0.2626
13684TIP3   OH262542   4.487   6.377   6.070 -0.3271 -0.0140  0.4995
13684TIP3    H162543   4.493   6.445   6.136 -0.0275  1.9886 -1.4776
13684TIP3    H262544   4.400   6.386   6.033  0.1231  0.1038 -0.5828
13685TIP3   OH262545   1.683   6.129  13.370  0.2155  0.0057 -0.5040
13685TIP3    H162546   1.630   6.112  13.449  0.2934 -0.1932 -0.4929
13685TIP3    H262547   1.773   6.120  13.399  0.2493  0.1177 -0.5742
13686TIP3   OH262548   2.582   0.839  14.780 -0.3975 -0.3113  0.2768
13686TIP3    H162549   2.571   0.832  14.875  0.0283 -3.4888  0.1890
13686TIP3    H262550   2.677   0.841  14.768 -0.4529  0.0266 -0.1223
13687TIP3   OH262551   3.343   2.740  14.131  0.4422 -0.1762  0.7975
13687TIP3    H162552   3.260   2.777  14.104  1.5622  0.9578 -1.3107
13687TIP3    H262553   3.377   2.802  14.196  0.2337  0.0405  0.6994
13688TIP3   OH262554   6.765   5.580   0.788  0.3573  0.1023 -0.3305
13688TIP3    H162555   6.836   5.625   0.743  1.8030 -1.2640  0.5183
13688TIP3    H262556   6.733   5.644   0.852  0.8169  0.7259 -0.7166
13689TIP3   OH262557   4.335   6.155  12.821  0.2017 -0.0567 -0.1011
13689TIP3    H162558   4.298   6.139  12.908 -1.1592  0.5282 -0.5504
13689TIP3    H262559   4.405   6.090  12.812  0.4971  0.0076  1.5006
13690TIP3   OH262560   5.466   4.129  10.773  0.4854  0.3858  0.5990
13690TIP3    H162561   5.416   4.049  10.756  1.0875  0.1082  0.0411
13690TIP3    H262562   5.423   4.170  10.848  0.6324 -0.8608  1.3879
13691TIP3   OH262563   5.705   5.115   1.128 -0.1707 -0.3042  0.1513
13691TIP3    H162564   5.617   5.103   1.093  0.2164  0.0729 -1.0205
13691TIP3    H262565   5.708   5.207   1.155 -0.2344 -0.4028  0.4988
13692TIP3   OH262566   2.226   0.681   0.475 -0.6715 -0.5227  0.3903
13692TIP3    H162567   2.296   0.712   0.532 -1.2876 -0.3537  1.0578
13692TIP3    H262568   2.242   0.725   0.391  0.2987 -0.8573  0.3911
13693TIP3   OH262569   4.772   6.192   0.821  0.1462 -0.2353  0.4013
13693TIP3    H162570   4.811   6.122   0.768 -0.3170 -0.5911  0.5288
13693TIP3    H262571   4.745   6.258   0.757 -0.7199 -0.8144  0.1530
13694TIP3   OH262572   5.807   6.736   5.463 -0.5426 -0.2119 -0.4079
13694TIP3    H162573   5.895   6.711   5.434 -0.3280  1.0224 -0.8853
13694TIP3    H262574   5.812   6.734   5.559  0.8286  2.3577 -0.3396
13695TIP3   OH262575   1.519   6.079  14.038 -0.3052 -0.2443  0.3089
13695TIP3    H162576   1.444   6.138  14.035 -1.0323 -1.1390 -1.9291
13695TIP3    H262577   1.571   6.108  14.113 -1.1784  2.5142 -0.0450
13696TIP3   OH262578   1.905   3.859   1.288 -0.4837  0.4530  0.1729
13696TIP3    H162579   1.920   3.796   1.359 -0.9519 -0.9969 -0.9829
13696TIP3    H262580   1.811   3.878   1.293 -0.4313  0.6991  0.2208
13697TIP3   OH262581   2.090   4.020   5.300 -0.5768 -0.2574  0.1164
13697TIP3    H162582   2.088   3.980   5.213  1.4601 -1.0991  0.3972
13697TIP3    H262583   2.139   3.958   5.354 -0.6112  0.8844  1.5313
13698TIP3   OH262584   1.969   0.017  17.270  0.8922  0.2801  0.2021
13698TIP3    H162585   1.962   0.005  17.365 -0.0410  2.7703  0.5246
13698TIP3    H262586   1.881  -0.001  17.238  1.2431 -0.7044 -0.2509
13699TIP3   OH262587   3.510   0.500  15.428 -0.3623  0.3528  0.2390
13699TIP3    H162588   3.465   0.452  15.497  0.0319 -0.6680 -0.1941
13699TIP3    H262589   3.584   0.543  15.473 -0.5201  0.2820  0.5676
13700TIP3   OH262590   1.463   3.036   3.791 -0.1225 -0.3513 -0.2322
13700TIP3    H162591   1.463   3.115   3.736 -1.5354  0.5064  0.9269
13700TIP3    H262592   1.398   3.054   3.859  0.2278 -2.1397  0.6368
13701TIP3   OH262593   2.149   6.195   1.777 -0.2475 -0.4740  0.1864
13701TIP3    H162594   2.170   6.266   1.837  2.0699  0.0244 -1.1104
13701TIP3    H262595   2.069   6.224   1.732 -0.1272  0.6462  0.6757
13702TIP3   OH262596   1.555   3.001  14.966 -0.1728 -0.3774  0.1927
13702TIP3    H162597   1.631   2.991  14.908  1.0251  2.5186  1.0778
13702TIP3    H262598   1.498   3.063  14.921  0.5939  1.6193  1.8125
13703TIP3   OH262599   6.757   6.182   1.365  0.3455 -0.6368  0.5623
13703TIP3    H162600   6.729   6.132   1.441  0.7394 -1.0738  0.4279
13703TIP3    H262601   6.708   6.264   1.370 -0.3787 -1.0773  0.7308
13704TIP3   OH262602   2.730   0.873  16.739 -0.0693 -0.4885 -0.3420
13704TIP3    H162603   2.765   0.945  16.793  2.7333 -0.2292 -2.3064
13704TIP3    H262604   2.722   0.911  16.651 -1.3470 -1.8235 -0.8430
13705TIP3   OH262605   2.647   5.128   1.627  0.2607  0.0106  0.3923
13705TIP3    H162606   2.595   5.061   1.583  0.5832 -0.6981  1.0477
13705TIP3    H262607   2.608   5.211   1.601 -0.0358 -0.4250 -0.5887
13706TIP3   OH262608   5.701   3.987  12.436  0.0916 -0.2041  0.3003
13706TIP3    H162609   5.768   3.933  12.478  1.9355  3.0030  1.8843
13706TIP3    H262610   5.749   4.042  12.375 -1.8370 -0.8590 -1.9525
13707TIP3   OH262611   1.765   0.608   5.049  0.3331 -0.1110 -0.2861
13707TIP3    H162612   1.842   0.552   5.035 -0.2429 -0.8292 -0.6392
13707TIP3    H262613   1.714   0.599   4.969 -0.6523 -0.4910  0.3668
13708TIP3   OH262614   5.658   1.702   0.350  0.2999  0.2204 -0.1899
13708TIP3    H162615   5.696   1.619   0.324  1.7495  0.7400  0.1566
13708TIP3    H262616   5.585   1.716   0.290 -2.3152 -2.9526  1.8962
13709TIP3   OH262617   3.888   4.048  13.733 -0.8889  0.5205 -0.4618
13709TIP3    H162618   3.841   3.979  13.686  1.3843 -0.1168 -1.9706
13709TIP3    H262619   3.861   4.039  13.824 -0.0382 -2.9848 -0.4296
13710TIP3   OH262620   5.132   2.551   6.029 -0.5224 -0.6301  0.4757
13710TIP3    H162621   5.142   2.486   6.099  0.8554  0.8700  1.7376
13710TIP3    H262622   5.196   2.619   6.049 -0.6124  0.2451 -1.8458
13711TIP3   OH262623   4.282   0.016  13.031 -0.6269  0.5443 -0.0282
13711TIP3    H162624   4.304   0.109  13.037  0.1409  0.2847  1.7633
13711TIP3    H262625   4.330  -0.025  13.103 -2.2421 -0.9995  0.2360
13712TIP3   OH262626   0.916   5.570   1.218  0.3836 -0.0456 -0.4860
13712TIP3    H162627   0.999   5.525   1.235  1.1256  1.1575 -0.8155
13712TIP3    H262628   0.872   5.516   1.153  0.6598 -0.9805  0.0819
13713TIP3   OH262629   3.844   4.229  15.298 -1.0958  0.5585  0.7826
13713TIP3    H162630   3.749   4.238  15.300 -1.1583  1.3689 -1.8138
13713TIP3    H262631   3.872   4.289  15.228  1.0618 -1.4387 -0.2091
13714TIP3   OH262632   5.896   3.927  13.890 -0.7126 -0.6587 -0.0712
13714TIP3    H162633   5.809   3.906  13.856 -0.3867  0.1438 -1.4910
13714TIP3    H262634   5.939   3.842  13.903 -1.1282 -1.0063 -0.9462
13715TIP3   OH262635   1.242   3.454   5.616 -0.4018 -0.1964 -0.3665
13715TIP3    H162636   1.253   3.544   5.585 -0.5576 -0.6294 -1.7812
13715TIP3    H262637   1.299   3.402   5.558  0.4558 -0.9091  1.0614
13716TIP3   OH262638   3.094   6.366  11.538 -0.0889 -0.1595 -0.3911
13716TIP3    H162639   3.074   6.435  11.601  0.4418  0.5141 -0.9506
13716TIP3    H262640   3.185   6.380  11.515  0.3294 -1.6709  0.2358
13717TIP3   OH262641   4.241   0.560   3.231 -0.7952 -0.1003  0.4172
13717TIP3    H162642   4.196   0.570   3.147 -0.5554 -0.1092  0.2868
13717TIP3    H262643   4.262   0.650   3.258 -0.9194 -0.0936  0.4960
13718TIP3   OH262644   0.020   1.058  15.578 -0.1264 -0.0379 -0.1266
13718TIP3    H162645  -0.050   0.994  15.561  0.6900 -0.8876 -0.3908
13718TIP3    H262646   0.020   1.068  15.673 -0.3740 -0.3159 -0.0932
13719TIP3   OH262647   2.739   3.244   5.650 -0.3603 -0.4606  0.1581
13719TIP3    H162648   2.834   3.246   5.635 -0.1394 -1.1321  1.3252
13719TIP3    H262649   2.728   3.282   5.737 -1.1137 -0.7843  0.2118
13720TIP3   OH262650   0.084   1.271  12.725  0.5270 -0.0823  0.1616
13720TIP3    H162651   0.017   1.223  12.677  0.7030 -1.6159  1.3974
13720TIP3    H262652   0.151   1.206  12.744  0.2895  0.3597  2.8250
13721TIP3   OH262653   0.997   6.173  15.617 -0.3568 -0.1555 -0.0143
13721TIP3    H162654   0.998   6.237  15.688 -0.5713 -0.6365  0.4315
13721TIP3    H262655   0.912   6.185  15.575 -0.7135 -0.6463  0.5434
13722TIP3   OH262656   5.366   3.057  15.897 -0.2775  0.1411 -0.7117
13722TIP3    H162657   5.339   3.128  15.955 -0.4807  0.9582 -1.7971
13722TIP3    H262658   5.349   3.089  15.809  1.5886 -0.4246 -1.3182
13723TIP3   OH262659   1.897   2.132   2.506 -0.3548  0.4355 -0.2691
13723TIP3    H162660   1.880   2.186   2.583  0.5333  0.0950  0.1854
13723TIP3    H262661   1.987   2.153   2.482 -0.6596  0.6039 -1.2772
13724TIP3   OH262662   5.381   5.663  15.544 -0.2019 -0.0992 -0.3241
13724TIP3    H162663   5.433   5.629  15.617  3.6213  0.3082 -2.5874
13724TIP3    H262664   5.367   5.756  15.565  1.1341  0.0890 -0.1955
13725TIP3   OH262665   0.202   0.488  14.355  0.5039  0.1868 -0.2671
13725TIP3    H162666   0.161   0.555  14.411 -1.7329 -0.7671 -0.6381
13725TIP3    H262667   0.130   0.455  14.301  2.2652 -0.0449 -2.6287
13726TIP3   OH262668   5.072   5.258  14.976 -0.5745 -0.0696  0.3999
13726TIP3    H162669   5.022   5.218  14.904 -1.6314  1.0723  0.4696
13726TIP3    H262670   5.156   5.281  14.936 -1.6339  1.8259 -0.9112
13727TIP3   OH262671   1.203   5.867  11.336  0.2092  0.3698 -0.2170
13727TIP3    H162672   1.153   5.873  11.418  0.0410 -1.6283 -0.1351
13727TIP3    H262673   1.163   5.933  11.279 -0.4840  0.9325  0.8801
13728TIP3   OH262674   5.078   2.267  15.723 -0.2885 -1.0818 -0.0462
13728TIP3    H162675   5.149   2.210  15.753  0.9506  0.3747 -0.0772
13728TIP3    H262676   5.114   2.355  15.731 -1.9744 -0.3231 -0.4538
13729TIP3   OH262677   5.282   3.522   0.727 -0.3270 -0.1753 -0.0143
13729TIP3    H162678   5.317   3.481   0.648 -0.9392  2.1596 -1.6059
13729TIP3    H262679   5.247   3.607   0.697 -0.2687  0.9698  2.8241
13730TIP3   OH262680   6.319   1.603  13.610  0.1875 -0.3500  0.4349
13730TIP3    H162681   6.232   1.641  13.605  0.7703  1.1039  0.7519
13730TIP3    H262682   6.342   1.606  13.703  0.4452 -1.0178  0.3972
13731TIP3   OH262683   5.224   5.401   3.347 -0.0744 -0.4819  0.4213
13731TIP3    H162684   5.227   5.467   3.278 -1.3582 -0.3299  0.4981
13731TIP3    H262685   5.250   5.448   3.426  2.3429 -0.8673 -0.0623
13732TIP3   OH262686   0.062   4.082  11.801 -0.3775 -0.3365  0.4282
13732TIP3    H162687   0.009   4.059  11.724 -0.2343 -2.1019  0.8217
13732TIP3    H262688  -0.001   4.117  11.864 -0.7718 -0.5842  0.1754
13733TIP3   OH262689   4.598   3.538  16.271 -0.2320  0.1681  0.0267
13733TIP3    H162690   4.683   3.562  16.308 -0.4133  0.8106  0.0316
13733TIP3    H262691   4.568   3.465  16.325  1.0224 -1.1164 -0.9248
13734TIP3   OH262692   4.811   5.501   3.208  0.1819  0.3367 -0.1630
13734TIP3    H162693   4.806   5.584   3.161 -1.1585  0.8320  0.7920
13734TIP3    H262694   4.799   5.525   3.300  0.6329 -0.8273  0.2137
13735TIP3   OH262695   2.960   6.682  16.982 -0.0373  0.4355  0.1689
13735TIP3    H162696   2.866   6.695  16.995 -0.5748 -2.4433 -0.1228
13735TIP3    H262697   2.981   6.733  16.904 -0.6774  3.3185  1.7191
13736TIP3   OH262698   3.908   3.310   5.570 -0.6310  0.0090 -0.0036
13736TIP3    H162699   3.860   3.381   5.615 -1.0816  0.3267 -0.9679
13736TIP3    H262700   3.887   3.232   5.622 -0.1007  0.5652  1.0946
13737TIP3   OH262701   1.628   4.630   3.972  0.0650  0.0456  0.1291
13737TIP3    H162702   1.558   4.632   4.038 -0.4251 -1.3576 -0.3121
13737TIP3    H262703   1.708   4.641   4.022 -0.3692  0.1269  0.8294
13738TIP3   OH262704   2.028   0.590   2.046 -0.1378  0.1918 -0.2302
13738TIP3    H162705   1.937   0.563   2.033  0.3788 -1.9349  0.2227
13738TIP3    H262706   2.075   0.555   1.971  0.3323  1.3281 -0.4888
13739TIP3   OH262707   0.015   2.439   1.053 -0.2176  0.1966  0.5033
13739TIP3    H162708  -0.034   2.472   0.977 -2.1064 -2.0672  0.6060
13739TIP3    H262709   0.041   2.517   1.101 -0.7311  1.6205 -1.4262
13740TIP3   OH262710   2.878   4.738  15.487 -0.0786  0.1157  0.1993
13740TIP3    H162711   2.947   4.704  15.430  0.0592 -0.8283  0.9111
13740TIP3    H262712   2.900   4.704  15.574 -2.1571 -1.3467  0.2179
13741TIP3   OH262713   1.292   3.942  13.714 -0.1651 -0.7972  0.5495
13741TIP3    H162714   1.283   3.995  13.794  0.8209 -1.4045  1.0828
13741TIP3    H262715   1.383   3.955  13.687 -0.1066 -1.6907  0.3065
13742TIP3   OH262716   6.404   4.016  16.514  0.1925 -0.3435 -0.2425
13742TIP3    H162717   6.462   4.074  16.465 -0.9836  0.3767 -0.8372
13742TIP3    H262718   6.445   3.930  16.509  2.1186  0.4408  0.8881
13743TIP3   OH262719   4.511   0.725   6.054 -0.2875  0.2492 -0.0949
13743TIP3    H162720   4.604   0.703   6.062 -0.4275 -0.2232  0.3209
13743TIP3    H262721   4.472   0.648   6.013 -0.6077  0.1647  0.3647
13744TIP3   OH262722   3.478   3.889  12.251  0.1072 -0.0676  0.2848
13744TIP3    H162723   3.545   3.820  12.245 -0.8213 -1.0528  0.9523
13744TIP3    H262724   3.455   3.892  12.344 -1.1423 -0.1109 -0.0082
13745TIP3   OH262725   4.102   3.105  11.242  0.3848 -0.2115 -0.5812
13745TIP3    H162726   4.085   3.083  11.151  1.1197  0.4610 -0.8949
13745TIP3    H262727   4.197   3.105  11.250  0.3717  0.9525 -0.1362
13746TIP3   OH262728   2.174   0.321  12.899  0.5005  0.8174 -0.5020
13746TIP3    H162729   2.185   0.310  12.994  1.4509  0.7932 -0.6051
13746TIP3    H262730   2.086   0.289  12.882  1.0034 -1.0367  0.1122
13747TIP3   OH262731   0.506   3.226   2.216  0.1944 -0.0246 -0.3402
13747TIP3    H162732   0.417   3.252   2.194  0.6193 -0.6102 -3.1359
13747TIP3    H262733   0.500   3.189   2.304 -2.4361 -0.6503 -0.7157
13748TIP3   OH262734   0.759   6.305  14.929  0.0081  0.0017  0.0463
13748TIP3    H162735   0.681   6.274  14.974  0.1275  1.1087  1.0746
13748TIP3    H262736   0.741   6.398  14.912  0.4530 -0.1117 -1.1514
13749TIP3   OH262737   5.398   3.408   5.981 -0.2136  0.2832  0.6097
13749TIP3    H162738   5.407   3.477   6.047 -1.1440  0.8571  0.1665
13749TIP3    H262739   5.305   3.407   5.960  0.2222  1.0957 -1.6923
13750TIP3   OH262740   6.554   0.676   2.935  0.3662  0.2652 -0.0354
13750TIP3    H162741   6.461   0.677   2.959  0.5067  0.6115  0.5226
13750TIP3    H262742   6.599   0.697   3.017  0.8693  1.5301 -0.6159
13751TIP3   OH262743   5.055   4.137   3.455  0.6806  0.6528  0.3319
13751TIP3    H162744   5.081   4.226   3.431  0.1734  0.9126  0.7217
13751TIP3    H262745   5.009   4.148   3.538  1.8876 -0.1573  1.1282
13752TIP3   OH262746   0.912   0.456  11.519 -0.3676 -0.3029  0.6358
13752TIP3    H162747   0.901   0.509  11.598  1.3766  0.3709  0.4714
13752TIP3    H262748   1.006   0.445  11.511 -0.3976  0.6529 -1.9921
13753TIP3   OH262749   6.739   2.736   0.782 -0.6239  0.2930  0.2662
13753TIP3    H162750   6.683   2.787   0.723 -1.5167 -0.0690  0.7901
13753TIP3    H262751   6.695   2.740   0.867  1.3373  1.9638  1.2973
13754TIP3   OH262752   6.360   4.959  16.273  0.0315 -0.4055 -0.2749
13754TIP3    H162753   6.419   4.888  16.249  0.8472  0.3065 -0.4151
13754TIP3    H262754   6.382   4.979  16.364 -1.7138 -1.7810  0.5145
13755TIP3   OH262755   0.027   5.974   0.719  0.0147 -0.2305 -0.2624
13755TIP3    H162756  -0.065   5.974   0.746 -0.3776  1.8305 -1.4397
13755TIP3    H262757   0.075   5.992   0.800 -0.8000  1.1091 -0.0468
13756TIP3   OH262758   5.276   1.676   3.669  0.2777  0.0214  0.6145
13756TIP3    H162759   5.326   1.595   3.675 -0.6376 -0.5384  0.8351
13756TIP3    H262760   5.279   1.713   3.757  0.8191  0.3108  0.4788
13757TIP3   OH262761   4.998   5.778  12.507  0.1884 -0.4748 -0.4432
13757TIP3    H162762   5.032   5.738  12.426  1.0608 -1.8053  0.5409
13757TIP3    H262763   5.073   5.826  12.542 -0.1020 -0.1550 -0.2594
13758TIP3   OH262764   0.353   0.643  14.162  0.1968 -0.3093  0.0994
13758TIP3    H162765   0.289   0.604  14.221 -0.8902  2.0280  0.5839
13758TIP3    H262766   0.318   0.625  14.074 -1.2106  0.9521  0.3544
13759TIP3   OH262767   3.051   5.845  13.389  0.2594 -0.3455 -0.1740
13759TIP3    H162768   3.045   5.753  13.415 -0.8145 -0.6042 -1.2708
13759TIP3    H262769   3.135   5.874  13.424  0.8814 -1.9037 -0.3023
13760TIP3   OH262770   4.325   1.512   6.411 -0.1088  0.1788  0.3552
13760TIP3    H162771   4.325   1.505   6.315 -2.3323  0.8849  0.2446
13760TIP3    H262772   4.415   1.489   6.436  0.7559  0.7141 -1.9340
13761TIP3   OH262773   5.132   2.450  12.864  0.0758 -0.5383  0.1519
13761TIP3    H162774   5.172   2.454  12.950  0.8270 -0.0839 -0.2090
13761TIP3    H262775   5.197   2.406  12.809  0.5311  1.0776 -0.6700
13762TIP3   OH262776   6.569   4.965  15.434  0.2654  0.2445  0.4360
13762TIP3    H162777   6.567   4.929  15.345  1.6785 -0.6864  0.7441
13762TIP3    H262778   6.575   4.889  15.491 -0.1777  0.8518  1.3078
13763TIP3   OH262779   6.497   2.622  12.950 -0.2242  1.2056 -0.0115
13763TIP3    H162780   6.587   2.603  12.923 -0.9502 -1.8657 -0.7123
13763TIP3    H262781   6.455   2.656  12.871 -0.1729  0.5856 -0.3156
13764TIP3   OH262782   1.092   3.014  15.554 -0.0530 -0.2916  0.2035
13764TIP3    H162783   1.067   3.013  15.462  0.5972  1.3630 -0.0307
13764TIP3    H262784   1.120   2.924  15.573  1.4763 -0.2807 -1.7090
13765TIP3   OH262785   6.447   5.635   5.369  1.0928  0.2455 -0.1566
13765TIP3    H162786   6.530   5.613   5.326  1.1875  0.5773 -0.1524
13765TIP3    H262787   6.461   5.724   5.403  0.6202  0.4443 -0.4631
13766TIP3   OH262788   6.115   3.878  11.534  0.5067  0.1099 -0.2131
13766TIP3    H162789   6.135   3.901  11.443  1.2558  0.6244  0.0718
13766TIP3    H262790   6.190   3.825  11.562  0.0189 -0.5006 -0.0654
13767TIP3   OH262791   5.244   6.055   1.497 -0.2133  0.1817  0.6138
13767TIP3    H162792   5.163   6.014   1.526 -0.4775  0.2367 -0.0233
13767TIP3    H262793   5.224   6.088   1.409  0.2975  0.7829  0.7135
13768TIP3   OH262794   3.950   1.316  16.458 -0.6990  0.4591 -0.4076
13768TIP3    H162795   3.986   1.281  16.377 -0.5504  1.1464 -0.6427
13768TIP3    H262796   3.882   1.377  16.430 -2.9360 -1.6827  0.0282
13769TIP3   OH262797   4.699   0.927  14.422  0.4071 -0.7867  0.7450
13769TIP3    H162798   4.777   0.892  14.380  1.7064  3.5277 -1.0582
13769TIP3    H262799   4.730   0.961  14.506  0.6871  1.1899 -0.0954
13770TIP3   OH262800   1.474   0.750   0.075  0.6255 -0.1342  0.6059
13770TIP3    H162801   1.505   0.761   0.165 -0.0802  1.6028  0.6868
13770TIP3    H262802   1.545   0.783   0.021 -0.1683  1.9729  0.7167
13771TIP3   OH262803   3.450   0.362  15.697  0.2367  0.4585  0.4078
13771TIP3    H162804   3.444   0.440  15.752  1.3252  1.2875 -0.6246
13771TIP3    H262805   3.363   0.354  15.658  0.0512  1.0027  0.7002
13772TIP3   OH262806   5.196   2.323  13.501  0.7294 -0.0648 -0.2610
13772TIP3    H162807   5.246   2.275  13.567  1.3919  1.0083  0.0398
13772TIP3    H262808   5.166   2.255  13.440 -1.0223 -1.2707  1.8011
13773TIP3   OH262809   0.759   1.583   4.472 -0.3817 -0.0968 -0.3612
13773TIP3    H162810   0.824   1.652   4.487  0.8531 -1.2273 -0.2803
13773TIP3    H262811   0.744   1.584   4.378 -1.0643  0.8624 -0.2552
13774TIP3   OH262812   6.590   6.344  12.978 -0.1202  0.4726  0.1137
13774TIP3    H162813   6.537   6.330  12.900  0.4993  1.4014 -0.4989
13774TIP3    H262814   6.677   6.365  12.945 -0.2456  2.6222  0.9507
13775TIP3   OH262815   5.047   3.098  12.109  0.3789 -0.3989 -0.4642
13775TIP3    H162816   5.006   3.058  12.186  1.0681  1.5637  1.0203
13775TIP3    H262817   5.115   3.036  12.083  0.2407 -1.0313  0.6198
13776TIP3   OH262818   2.991   1.803  13.862 -0.3321 -0.6270  0.4332
13776TIP3    H162819   2.964   1.891  13.889 -0.3647 -1.1990  2.4304
13776TIP3    H262820   2.916   1.768  13.815 -0.0860  0.6131 -0.9639
13777TIP3   OH262821   0.766   3.298   4.290 -0.1220  0.0026  0.1649
13777TIP3    H162822   0.763   3.338   4.377 -0.3146  1.1964 -0.3652
13777TIP3    H262823   0.684   3.249   4.283 -0.9018  1.2676  0.0545
13778TIP3   OH262824   1.615   0.272   1.349  0.3887  0.4783 -0.2171
13778TIP3    H162825   1.669   0.233   1.418 -0.9864 -2.2299 -0.5649
13778TIP3    H262826   1.675   0.331   1.303  1.9345  0.6558  1.8507
13779TIP3   OH262827   2.193   4.215  14.690 -0.1950  0.0046 -0.1394
13779TIP3    H162828   2.188   4.127  14.654 -0.5836  0.4573 -1.2260
13779TIP3    H262829   2.280   4.221  14.728 -0.1496 -0.8265 -0.0970
13780TIP3   OH262830   0.641   1.764  10.833 -0.4096 -0.0108 -0.1680
13780TIP3    H162831   0.656   1.858  10.826  5.4499 -0.4429  1.1040
13780TIP3    H262832   0.595   1.741  10.753 -2.6123  3.8762 -0.2738
13781TIP3   OH262833   1.841   2.294   5.304  0.3215  0.1048 -0.0045
13781TIP3    H162834   1.815   2.202   5.307 -0.0592  0.1970 -0.3735
13781TIP3    H262835   1.760   2.341   5.283  0.1581  0.6916  1.7659
13782TIP3   OH262836   1.523   3.197  12.406  0.2665 -0.5091 -0.5071
13782TIP3    H162837   1.493   3.201  12.315 -1.2325 -2.5871 -0.1685
13782TIP3    H262838   1.512   3.105  12.431  1.8594 -0.2546  1.4024
13783TIP3   OH262839   2.602   6.467   6.440  0.1036  0.1416  0.4011
13783TIP3    H162840   2.698   6.462   6.450 -0.0327 -0.3671  1.7240
13783TIP3    H262841   2.571   6.496   6.525 -0.8518  1.7410 -0.4532
13784TIP3   OH262842   3.562   5.184   4.093  0.3662 -0.2973  0.4071
13784TIP3    H162843   3.557   5.175   3.998  1.1676  1.3145  0.1862
13784TIP3    H262844   3.511   5.110   4.127 -0.5668 -0.4700 -1.2773
13785TIP3   OH262845   2.706   0.322  17.094  0.5327 -0.1088  0.2968
13785TIP3    H162846   2.692   0.411  17.126  1.9491  1.3905 -2.8320
13785TIP3    H262847   2.790   0.296  17.132  0.6863  0.3732  0.2928
13786TIP3   OH262848   2.056   4.360  16.535  0.4378 -0.1781  0.1479
13786TIP3    H162849   2.036   4.371  16.442 -2.2103 -1.4563  0.4762
13786TIP3    H262850   2.141   4.403  16.546  0.8826 -0.0544 -2.8454
13787TIP3   OH262851   2.816   3.203   5.341 -0.4383 -0.4113  0.5014
13787TIP3    H162852   2.829   3.298   5.345 -1.4912 -0.1232 -1.7149
13787TIP3    H262853   2.755   3.190   5.268  0.6002 -2.8771 -0.0107
13788TIP3   OH262854   6.327   3.429   1.042 -0.2943  0.0792  0.0453
13788TIP3    H162855   6.287   3.500   0.992  2.5522  1.3055 -0.6553
13788TIP3    H262856   6.325   3.354   0.982 -1.5769  0.0324  0.0994
13789TIP3   OH262857   6.779   0.449   2.220  0.5450  0.3771 -0.6984
13789TIP3    H162858   6.744   0.527   2.264  0.9456 -0.1920  0.6638
13789TIP3    H262859   6.746   0.375   2.271  0.0228 -0.3815 -2.0806
13790TIP3   OH262860   6.525   0.812  13.232  0.4302 -0.0379  0.4623
13790TIP3    H162861   6.545   0.889  13.179  0.3097 -0.2624  0.0786
13790TIP3    H262862   6.485   0.751  13.170  0.2452 -0.2915  0.8242
13791TIP3   OH262863   4.412   0.515  14.911 -0.3438 -0.3119  0.1236
13791TIP3    H162864   4.455   0.455  14.972  0.5193 -1.5320 -1.6225
13791TIP3    H262865   4.426   0.477  14.825  0.9000  2.7621 -1.1862
13792TIP3   OH262866   0.289   1.575  16.367  0.3806  0.2719  0.2746
13792TIP3    H162867   0.299   1.617  16.282  1.2693 -0.2108  0.1293
13792TIP3    H262868   0.258   1.644  16.425  3.5303  1.6708  0.4836
13793TIP3   OH262869   4.453   4.840   5.781 -0.2068 -0.0728  0.0625
13793TIP3    H162870   4.435   4.871   5.870  1.9760 -0.0959  0.5642
13793TIP3    H262871   4.396   4.893   5.725 -2.2018 -0.6024  1.4947
13794TIP3   OH262872   2.290   3.547   5.751 -0.1976  0.1805  0.6112
13794TIP3    H162873   2.249   3.487   5.813 -1.7625 -0.7101 -1.1616
13794TIP3    H262874   2.217   3.586   5.703  0.9172  0.1545 -1.2352
13795TIP3   OH262875   3.270   4.438   6.545 -0.1267  0.4238 -0.0406
13795TIP3    H162876   3.268   4.344   6.561 -1.2270  0.5407  0.6754
13795TIP3    H262877   3.182   4.459   6.514 -0.1955  1.3507  0.7170
13796TIP3   OH262878   1.681   1.221  16.061 -0.5560  0.0381  0.3938
13796TIP3    H162879   1.614   1.162  16.095  0.6154 -1.1312  0.7465
13796TIP3    H262880   1.686   1.292  16.125  0.6286 -1.4095  1.9951
13797TIP3   OH262881   0.065   4.354  10.892  0.3567 -0.1473 -0.0905
13797TIP3    H162882  -0.004   4.375  10.829 -1.8546 -1.1455  1.8560
13797TIP3    H262883   0.062   4.425  10.956  2.3554  0.6869 -0.8518
13798TIP3   OH262884   4.999   3.006  13.479  0.0228 -0.3793  0.3081
13798TIP3    H162885   5.035   2.954  13.550  1.3936  1.9042  1.3997
13798TIP3    H262886   4.937   3.065  13.521  0.6746  0.8538 -0.4034
13799TIP3   OH262887   0.796   3.441  16.340  0.5710  0.3856  0.1054
13799TIP3    H162888   0.784   3.355  16.381 -0.5733 -0.3902 -1.7263
13799TIP3    H262889   0.731   3.497  16.383  2.3050  0.8168  2.3613
13800TIP3   OH262890   3.467   6.051   3.768 -0.5523 -0.1665  0.1589
13800TIP3    H162891   3.408   6.076   3.839  0.8754 -0.6941  1.5882
13800TIP3    H262892   3.526   5.987   3.807  0.8697  0.2174 -1.2595
13801TIP3   OH262893   5.060   1.720   1.681 -0.5940 -0.2263 -0.0280
13801TIP3    H162894   5.097   1.808   1.684 -1.6988  0.2886 -0.8180
13801TIP3    H262895   4.993   1.724   1.612 -1.0800 -1.5204  0.3337
13802TIP3   OH262896   1.682   2.922  14.708 -0.4525 -0.5986 -0.1966
13802TIP3    H162897   1.646   2.986  14.647 -0.1179 -0.0519  0.1751
13802TIP3    H262898   1.633   2.841  14.690 -0.5273 -0.3764 -1.0129
13803TIP3   OH262899   6.533   4.147   2.884 -1.0253  0.5534 -0.1707
13803TIP3    H162900   6.453   4.189   2.853 -2.1542 -1.2688  0.0846
13803TIP3    H262901   6.558   4.196   2.962 -1.5070  1.5473 -0.6261
13804TIP3   OH262902   5.997   0.496  14.508  0.7501 -0.4091  0.4852
13804TIP3    H162903   5.975   0.453  14.590 -0.7784  0.0043  0.3077
13804TIP3    H262904   5.970   0.433  14.440  0.6442 -0.1370  0.2731
13805TIP3   OH262905   6.121   4.919   1.402 -0.0530  0.5923  0.0191
13805TIP3    H162906   6.216   4.915   1.405 -0.1103 -0.4317  0.9822
13805TIP3    H262907   6.096   4.859   1.331 -0.0120  0.4372  0.1375
13806TIP3   OH262908   1.421   4.913  15.947  0.6571  0.3599 -0.2825
13806TIP3    H162909   1.340   4.879  15.909  0.4136 -0.0315  0.5719
13806TIP3    H262910   1.414   5.008  15.937 -0.8882  0.5014  1.6503
13807TIP3   OH262911   3.500   5.955   2.415 -0.1199  0.2002 -0.2002
13807TIP3    H162912   3.417   6.001   2.407 -0.1101 -0.0103 -1.6710
13807TIP3    H262913   3.519   5.922   2.327  2.8167  2.5060 -0.6048
13808TIP3   OH262914   0.794   0.541  16.101 -0.4734 -0.0597 -0.2836
13808TIP3    H162915   0.827   0.544  16.011  1.4058 -0.2574  0.3569
13808TIP3    H262916   0.826   0.623  16.141  0.6439 -0.9812  0.8037
13809TIP3   OH262917   3.277   1.163   4.974 -0.2040 -0.4932  0.0696
13809TIP3    H162918   3.228   1.188   5.052  0.2704 -1.3983  0.6630
13809TIP3    H262919   3.293   1.246   4.929 -0.2331  0.0716  1.0773
13810TIP3   OH262920   5.945   3.999   4.959  0.0762  0.1675  0.0764
13810TIP3    H162921   5.966   4.063   4.891  1.3992 -0.2226  0.0752
13810TIP3    H262922   5.850   3.990   4.955  0.1178  0.0671 -1.8060
13811TIP3   OH262923   2.309   0.321  15.573 -0.2535  0.0922 -0.5240
13811TIP3    H162924   2.372   0.393  15.583  1.7653 -1.3112 -2.2008
13811TIP3    H262925   2.248   0.333  15.645  0.3277  3.1306 -0.3798
13812TIP3   OH262926   2.562   0.733   0.151  0.2875 -1.0997  0.1118
13812TIP3    H162927   2.642   0.733   0.204 -0.4201  0.2590  1.2312
13812TIP3    H262928   2.588   0.772   0.068  0.8152 -0.8180  0.4063
13813TIP3   OH262929   2.714   3.749   5.816 -0.0867  0.2825  0.0744
13813TIP3    H162930   2.689   3.749   5.723  0.3652 -0.7206 -0.0575
13813TIP3    H262931   2.658   3.815   5.855 -1.1821 -0.1537 -0.6897
13814TIP3   OH262932   2.258   1.162  11.927  0.2900  0.3445  0.2480
13814TIP3    H162933   2.252   1.075  11.888  0.7806  0.2292  0.4271
13814TIP3    H262934   2.202   1.157  12.005 -0.3604  0.4510 -0.2036
13815TIP3   OH262935   1.008   4.376   4.657  0.4332  0.2370 -0.2600
13815TIP3    H162936   0.967   4.427   4.728 -0.4076 -0.4888 -0.2142
13815TIP3    H262937   1.037   4.442   4.594  1.9009  0.9565  1.1011
13816TIP3   OH262938   5.263   2.255  12.359 -0.1303  0.0960  0.1150
13816TIP3    H162939   5.247   2.315  12.432  0.2919 -0.4897  0.7016
13816TIP3    H262940   5.245   2.307  12.281 -0.5772  0.7390  0.6317
13817TIP3   OH262941   4.434   4.757  16.697  0.0065 -0.2072 -0.0834
13817TIP3    H162942   4.397   4.762  16.608 -1.0050 -0.2244  0.3270
13817TIP3    H262943   4.508   4.696  16.688 -0.3711 -0.5749 -0.8193
13818TIP3   OH262944   2.066   0.131  14.351 -0.4905  0.3781 -0.0798
13818TIP3    H162945   2.080   0.180  14.432  0.6522 -0.7452  0.4428
13818TIP3    H262946   1.980   0.159  14.320 -1.4414  0.0642  2.0926
13819TIP3   OH262947   1.864   3.666  11.690 -0.6427 -0.2803 -0.5724
13819TIP3    H162948   1.939   3.613  11.662 -0.7124 -1.4274  1.2297
13819TIP3    H262949   1.876   3.675  11.785 -1.4150  1.7544 -0.6237
13820TIP3   OH262950   2.293   6.095   6.558 -0.0094  0.2756 -0.1860
13820TIP3    H162951   2.289   6.187   6.533 -0.9771  0.5903  1.0327
13820TIP3    H262952   2.355   6.093   6.631  0.5742 -0.1608 -0.6891
13821TIP3   OH262953   5.936   5.467   1.585 -0.8074 -0.7051 -0.1661
13821TIP3    H162954   5.908   5.378   1.605 -0.9510 -0.7901 -0.7132
13821TIP3    H262955   5.937   5.512   1.669  1.0315 -1.6993  0.4024
13822TIP3   OH262956   1.521   5.002   6.097  0.4458 -0.1034 -0.4106
13822TIP3    H162957   1.526   4.908   6.082 -1.2130 -0.3091  0.1470
13822TIP3    H262958   1.489   5.011   6.187  1.3841  1.0112 -0.1586
13823TIP3   OH262959   6.562   6.002   0.203  0.2036 -0.1579  0.0457
13823TIP3    H162960   6.476   5.963   0.187  0.0563 -0.0475  0.5348
13823TIP3    H262961   6.594   5.958   0.282  0.3248  0.2289  0.2174
13824TIP3   OH262962   3.201   3.061  12.438 -0.3307  0.1554  0.0499
13824TIP3    H162963   3.283   3.025  12.404  0.7002  0.6601  1.8809
13824TIP3    H262964   3.157   2.986  12.478 -1.1362 -0.2611 -1.5481
13825TIP3   OH262965   0.663   6.110  12.263 -0.3738  0.1322  0.4756
13825TIP3    H162966   0.744   6.061  12.246  1.0740  2.4061  0.4926
13825TIP3    H262967   0.690   6.182  12.319 -2.6289  0.4238  1.2819
13826TIP3   OH262968   2.080   6.413  11.465 -0.0054  0.9232  0.4240
13826TIP3    H162969   2.101   6.328  11.427  0.6159  1.0420  0.4963
13826TIP3    H262970   2.055   6.467  11.390  0.6165  0.9771  0.2477
13827TIP3   OH262971   6.584   3.707  15.865 -0.5441 -0.4530 -0.5264
13827TIP3    H162972   6.533   3.665  15.797 -0.3209  1.0560 -1.6677
13827TIP3    H262973   6.657   3.748  15.819  0.1451 -0.1836  0.7388
13828TIP3   OH262974   1.807   1.623  11.323  0.0389 -0.4006  0.0058
13828TIP3    H162975   1.860   1.555  11.281 -0.9458 -0.7202 -0.7497
13828TIP3    H262976   1.844   1.705  11.289  2.1436 -0.4339  1.9996
13829TIP3   OH262977   4.432   6.776  11.915 -0.2071 -0.3333 -0.0858
13829TIP3    H162978   4.507   6.717  11.902 -0.0496 -0.2497  0.4541
13829TIP3    H262979   4.461   6.838  11.981  0.2806  1.4675 -1.8768
13830TIP3   OH262980   1.526   1.438   4.740  0.3521  0.0737  0.4632
13830TIP3    H162981   1.452   1.448   4.680 -0.4935  0.9109  1.6033
13830TIP3    H262982   1.501   1.364   4.796  1.0710 -0.6099 -0.1036
13831TIP3   OH262983   4.985   5.907   1.395 -0.4592  0.0181 -0.2219
13831TIP3    H162984   5.045   5.914   1.321  0.0405  1.1127  0.2698
13831TIP3    H262985   4.897   5.916   1.356 -0.5256 -3.3472 -1.2065
13832TIP3   OH262986   5.513   2.794   6.188 -0.1684  0.7188 -0.0216
13832TIP3    H162987   5.601   2.829   6.175 -0.2549  0.0253 -3.4326
13832TIP3    H262988   5.464   2.866   6.227  1.3529  1.9171 -0.2438
13833TIP3   OH262989   6.271   3.558  11.784  0.1870 -0.1123 -0.1637
13833TIP3    H162990   6.185   3.572  11.825  0.4785 -1.3962  0.9363
13833TIP3    H262991   6.281   3.633  11.725 -0.4172  1.6287  1.8099
13834TIP3   OH262992   5.568   3.131   3.659  0.1344 -0.1025 -0.5215
13834TIP3    H162993   5.482   3.150   3.695  1.0485  1.9760  0.7427
13834TIP3    H262994   5.556   3.141   3.564 -0.5189  2.7756 -0.2386
13835TIP3   OH262995   1.923   3.536   2.548 -0.7832  1.1097  0.3647
13835TIP3    H162996   1.895   3.590   2.622 -0.8227  1.5557  0.0235
13835TIP3    H262997   1.887   3.580   2.471 -3.7426 -1.1549  0.2458
13836TIP3   OH262998   5.440   1.116  16.656 -0.2229 -0.1422  0.4318
13836TIP3    H162999   5.405   1.083  16.573  0.5233  0.2354 -0.0492
13836TIP3    H263000   5.485   1.041  16.695  1.1184  0.1567 -0.4628
13837TIP3   OH263001   0.404   5.482  13.258 -0.5811  0.0095 -0.0040
13837TIP3    H163002   0.340   5.436  13.314  0.9505  1.3692  3.1240
13837TIP3    H263003   0.392   5.574  13.279  0.9710  0.4641 -0.9643
13838TIP3   OH263004   6.420   6.347  16.343  0.0381 -0.2045  0.3184
13838TIP3    H163005   6.387   6.409  16.408  2.9688  0.9714  0.8275
13838TIP3    H263006   6.501   6.312  16.381  0.2772 -1.7719 -1.4449
13839TIP3   OH263007   3.817   5.745   0.619  0.4540  0.3271  0.3451
13839TIP3    H163008   3.845   5.815   0.678  0.1147  0.4017  0.4202
13839TIP3    H263009   3.735   5.713   0.656  1.4125 -1.2166  1.2096
13840TIP3   OH263010   3.734   3.586   3.419  0.3110  0.3179  0.1879
13840TIP3    H163011   3.770   3.499   3.403  0.3281  0.4028 -0.2424
13840TIP3    H263012   3.725   3.591   3.514 -0.9605 -0.6693  0.1480
13841TIP3   OH263013   2.506   2.243  12.820  0.2265 -0.5050 -0.1471
13841TIP3    H163014   2.413   2.219  12.822 -0.1541  0.6457 -1.7674
13841TIP3    H263015   2.540   2.201  12.741  0.8618 -0.1965 -0.0406
13842TIP3   OH263016   3.738   1.212   5.806 -0.1539 -0.4847 -0.4173
13842TIP3    H163017   3.750   1.265   5.885 -0.7943  0.1574 -0.7322
13842TIP3    H263018   3.780   1.129   5.826  1.0357  0.1989  0.0304
13843TIP3   OH263019   2.308   5.616  16.125 -0.0572  0.2727  0.0903
13843TIP3    H163020   2.232   5.675  16.133  1.4677  2.1444  2.5500
13843TIP3    H263021   2.345   5.614  16.214  0.8222 -3.3845 -0.2059
13844TIP3   OH263022   1.628   6.233   1.606 -0.2495 -0.6127  0.2320
13844TIP3    H163023   1.614   6.255   1.698 -2.2328  3.0221 -0.7122
13844TIP3    H263024   1.545   6.198   1.576 -0.9952  1.8412 -0.8893
13845TIP3   OH263025   3.124   3.121   6.058  0.3537  0.9351  0.2222
13845TIP3    H163026   3.035   3.108   6.025 -0.2306 -0.0966  2.0589
13845TIP3    H263027   3.114   3.187   6.126  0.5284 -0.7918  2.0200
13846TIP3   OH263028   5.002   1.695  13.789 -0.0217 -0.1465 -0.2265
13846TIP3    H163029   5.000   1.612  13.741  1.5673 -0.4583  0.1988
13846TIP3    H263030   5.092   1.727  13.777 -0.8037  1.9072 -1.0170
13847TIP3   OH263031   1.529   3.457  17.280  0.6989  0.4822 -0.4502
13847TIP3    H163032   1.439   3.438  17.256  0.4073 -0.6001  1.3030
13847TIP3    H263033   1.583   3.403  17.222  0.2654  1.3393 -1.6892
13848TIP3   OH263034   3.604   3.476   4.627 -0.8428  0.2891 -0.2904
13848TIP3    H163035   3.627   3.516   4.710 -2.1254  1.0909 -0.3095
13848TIP3    H263036   3.676   3.501   4.568  0.7697 -1.3868  0.8501
13849TIP3   OH263037   4.456   3.675  15.270 -0.2737  0.3436  0.5140
13849TIP3    H163038   4.381   3.623  15.241 -0.6466  0.1461  1.7680
13849TIP3    H263039   4.500   3.620  15.335  2.0863 -0.3351 -1.5272
13850TIP3   OH263040   0.251   3.833  15.748  0.0889 -1.4234 -0.1025
13850TIP3    H163041   0.164   3.814  15.711 -0.2337  0.1829 -0.2207
13850TIP3    H263042   0.311   3.784  15.691 -0.5631 -0.6432 -1.5234
13851TIP3   OH263043   2.713   1.760   0.285  0.4617 -0.2882  0.2402
13851TIP3    H163044   2.685   1.687   0.231 -0.8628  2.2288 -2.7946
13851TIP3    H263045   2.777   1.722   0.346  1.4050 -3.5474 -2.4741
13852TIP3   OH263046   5.934   6.292   0.144  0.2364 -0.1957 -0.1503
13852TIP3    H163047   5.993   6.269   0.072  1.3169 -0.3256  0.7360
13852TIP3    H263048   5.885   6.212   0.161 -0.4911  0.0268 -1.1539
13853TIP3   OH263049   5.978   4.751  12.087  0.6121  0.0118  0.8162
13853TIP3    H163050   5.992   4.679  12.026 -3.3396 -0.2774  0.0162
13853TIP3    H263051   5.989   4.712  12.173  1.2555 -0.8074  0.3769
13854TIP3   OH263052   4.371   3.021   2.758 -0.0660 -0.3852  0.4714
13854TIP3    H163053   4.376   3.039   2.664  1.6027 -1.3028  0.3331
13854TIP3    H263054   4.294   2.966   2.767 -0.5159  0.1028 -0.2950
13855TIP3   OH263055   2.118   2.644  14.702  0.8231  0.1524  0.4753
13855TIP3    H163056   2.181   2.699  14.655  1.3053  0.0328  0.9710
13855TIP3    H263057   2.170   2.571  14.735  0.3635 -0.1088  0.6310
13856TIP3   OH263058   4.992   5.090  12.909  0.0000 -0.6371 -0.4062
13856TIP3    H163059   5.038   5.016  12.948 -0.6308 -0.7248  0.1962
13856TIP3    H263060   4.899   5.068  12.918 -0.2706  0.8808  1.1769
13857TIP3   OH263061   6.305   4.854  11.047 -0.4995 -0.1663 -0.5135
13857TIP3    H163062   6.310   4.766  11.085  0.1248  0.8805  2.0607
13857TIP3    H263063   6.381   4.900  11.084 -1.7599  1.9407 -0.3682
13858TIP3   OH263064   0.833   0.488  16.452 -0.2526  0.2826 -0.1562
13858TIP3    H163065   0.806   0.574  16.420 -0.3756 -0.0815 -1.0570
13858TIP3    H263066   0.897   0.457  16.388 -0.3459 -0.3757  0.0568
13859TIP3   OH263067   3.400   3.382   1.333  0.1642 -0.2408  0.1834
13859TIP3    H163068   3.437   3.294   1.341 -0.9743 -0.7624 -0.1345
13859TIP3    H263069   3.438   3.417   1.252  2.1015  0.3264  1.2564
13860TIP3   OH263070   1.479   2.060  12.920  0.0235 -0.1048  0.6005
13860TIP3    H163071   1.402   2.076  12.867 -0.2930  0.7282  1.2885
13860TIP3    H263072   1.552   2.092  12.867  0.2540 -2.9713 -1.0652
13861TIP3   OH263073   3.376   3.465   4.846 -0.0364 -0.3503 -0.3742
13861TIP3    H163074   3.429   3.432   4.773 -0.1597 -1.4374 -0.0004
13861TIP3    H263075   3.349   3.552   4.819 -2.8954 -1.8812 -3.2121
13862TIP3   OH263076   6.264   3.139  14.831  0.2740 -0.3693 -0.1307
13862TIP3    H163077   6.170   3.127  14.818  0.1047  0.0302  0.6751
13862TIP3    H263078   6.271   3.193  14.910  1.1584  0.2284 -0.5951
13863TIP3   OH263079   4.214   3.194  12.937 -0.3465  0.2316  0.3065
13863TIP3    H163080   4.276   3.126  12.962  0.4762  0.7062 -0.3581
13863TIP3    H263081   4.266   3.274  12.933 -1.0655  0.7033  0.0239
13864TIP3   OH263082   2.899   5.027  16.152  0.4107 -0.2667 -0.3832
13864TIP3    H163083   2.847   5.039  16.073  0.9856  2.3748 -0.4479
13864TIP3    H263084   2.926   4.935  16.150 -1.0639 -0.7088 -2.2964
13865TIP3   OH263085   5.163   2.918   0.987  0.1191 -0.1163  0.3428
13865TIP3    H163086   5.150   2.922   1.081  3.3492  0.1057  0.9083
13865TIP3    H263087   5.095   2.858   0.956 -0.5489 -0.8223  2.9217
13866TIP3   OH263088   5.408   5.963  14.158 -0.0286 -0.6415  0.0690
13866TIP3    H163089   5.327   5.920  14.130 -0.3891  1.0566 -1.6365
13866TIP3    H263090   5.477   5.902  14.131 -0.4538  0.1906 -3.3873
13867TIP3   OH263091   1.229   6.348   6.076 -0.5488 -0.8800 -0.3877
13867TIP3    H163092   1.321   6.333   6.055 -0.6572 -2.0022 -0.1226
13867TIP3    H263093   1.229   6.362   6.171 -0.3709  1.6372 -0.6882
13868TIP3   OH263094   6.559   1.113   1.845  0.1864 -0.0407  0.3030
13868TIP3    H163095   6.503   1.048   1.802 -0.1925  0.1956  0.4419
13868TIP3    H263096   6.498   1.174   1.887  0.5541 -0.0673  0.8765
13869TIP3   OH263097   4.208   0.985  12.824  0.0587 -0.1615  0.1994
13869TIP3    H163098   4.179   0.897  12.847  0.8009 -0.2978  0.6352
13869TIP3    H263099   4.215   0.984  12.729 -0.8552 -0.2748  0.1218
13870TIP3   OH263100   2.943   0.523   4.071  0.4983  0.3498  0.2285
13870TIP3    H163101   2.906   0.438   4.094  0.0761  0.4572 -0.0419
13870TIP3    H263102   2.957   0.567   4.155  0.9624 -0.0843  0.3827
13871TIP3   OH263103   3.037   6.153  16.638  0.3708  0.0157 -0.8210
13871TIP3    H163104   2.996   6.102  16.568 -2.5493  1.8123 -0.5781
13871TIP3    H263105   3.046   6.241  16.601 -0.4649  0.8062  0.7637
13872TIP3   OH263106   0.205   2.465   6.256  0.4453 -0.3406  0.2982
13872TIP3    H163107   0.145   2.452   6.329  0.8141 -2.1551  0.3128
13872TIP3    H263108   0.287   2.491   6.298  0.6248 -1.2682  0.5400
13873TIP3   OH263109   0.837   1.560  14.888 -0.1314  0.7924 -0.2615
13873TIP3    H163110   0.930   1.538  14.884 -0.5328 -0.7814 -3.1535
13873TIP3    H263111   0.833   1.652  14.863  0.7747  1.7020  2.5438
13874TIP3   OH263112   4.479   5.147   0.885  0.3107  0.4049 -0.2570
13874TIP3    H163113   4.567   5.163   0.919  0.7566 -0.3299 -1.0276
13874TIP3    H263114   4.477   5.053   0.867 -0.2878  0.5784 -1.1891
13875TIP3   OH263115   2.401   1.036  15.317 -0.4257  0.3026  0.0796
13875TIP3    H163116   2.371   0.947  15.339 -0.4504  0.2857 -0.0203
13875TIP3    H263117   2.334   1.069  15.257  0.9340 -0.6179 -2.0881
13876TIP3   OH263118   6.206   2.055  13.363 -0.6385 -0.3460 -0.3089
13876TIP3    H163119   6.195   2.044  13.457  0.1393  1.0589 -0.0145
13876TIP3    H263120   6.124   2.096  13.334 -0.9387 -0.9172 -0.2763
13877TIP3   OH263121   5.481   0.079  15.306  0.1826  0.3230 -0.0100
13877TIP3    H163122   5.576   0.069  15.313  0.2735  2.0048  2.8237
13877TIP3    H263123   5.463   0.075  15.212  3.1183  0.5500 -0.6793
13878TIP3   OH263124   6.642   6.600   4.089 -0.2150  0.2170 -0.1570
13878TIP3    H163125   6.617   6.644   4.170  0.2512  0.2276 -0.0139
13878TIP3    H263126   6.580   6.632   4.024  0.1287  1.1163 -0.0570
13879TIP3   OH263127   3.656   4.701   2.033  0.2528  0.1712 -0.1314
13879TIP3    H163128   3.618   4.727   2.117 -0.5293 -1.6540  0.1242
13879TIP3    H263129   3.646   4.606   2.031  2.2763 -0.0698 -1.3229
13880TIP3   OH263130   4.391   1.320   3.064 -0.0999 -0.2699 -0.0058
13880TIP3    H163131   4.474   1.352   3.100 -1.1650  0.5578  1.8871
13880TIP3    H263132   4.370   1.382   2.994 -0.6015  1.3891  1.5594
13881TIP3   OH263133   3.593   1.369  13.374  0.3073  0.9117 -0.6585
13881TIP3    H163134   3.683   1.376  13.405 -0.2926 -0.1816  1.4826
13881TIP3    H263135   3.563   1.460  13.370  1.0721  1.2109 -0.0262
13882TIP3   OH263136   3.091   0.987  15.803  0.2471  0.4334  0.1519
13882TIP3    H163137   3.014   1.041  15.818  1.6693  2.1027  1.9451
13882TIP3    H263138   3.116   0.954  15.889  0.8802 -1.0809 -0.5498
13883TIP3   OH263139   1.424   3.547   1.798  0.0795  0.0457 -0.4308
13883TIP3    H163140   1.416   3.541   1.703 -1.4003 -0.7065 -0.2847
13883TIP3    H263141   1.474   3.469   1.823 -0.2516 -0.1979 -0.5229
13884TIP3   OH263142   1.456   3.831   0.427 -0.1465 -0.4088 -0.0057
13884TIP3    H163143   1.451   3.911   0.374 -1.6183 -0.6404 -0.2660
13884TIP3    H263144   1.487   3.860   0.512 -2.9189  0.8988  0.6832
13885TIP3   OH263145   4.518   6.522  11.186  0.3183 -0.0886 -0.3731
13885TIP3    H163146   4.574   6.450  11.216  0.8103  0.2439 -0.4813
13885TIP3    H263147   4.526   6.520  11.090 -2.5913 -2.2422 -0.7090
13886TIP3   OH263148   4.474   5.541   4.923  0.2606 -0.0036  0.1197
13886TIP3    H163149   4.406   5.555   4.857  0.5306  0.9444  0.0305
13886TIP3    H263150   4.426   5.532   5.006 -0.0693 -1.0833 -0.1745
13887TIP3   OH263151   2.188   4.706  11.830 -0.5000  0.0551 -0.4076
13887TIP3    H163152   2.171   4.637  11.766  2.0297 -0.0743 -1.0584
13887TIP3    H263153   2.167   4.665  11.914  1.3909 -1.7884 -0.7314
13888TIP3   OH263154   3.938   0.354  14.293  0.2087  0.2374  0.4564
13888TIP3    H163155   3.918   0.331  14.384 -0.0861  0.3004  0.4070
13888TIP3    H263156   3.935   0.450  14.292  0.6204  0.2542  0.4729
13889TIP3   OH263157   4.089   2.193  15.290  0.0666 -0.1766  0.2769
13889TIP3    H163158   4.064   2.102  15.273 -1.1228 -0.1233  1.5463
13889TIP3    H263159   4.113   2.194  15.383  0.3878  0.7413  0.1925
13890TIP3   OH263160   5.278   5.971  12.023  0.9152  0.1339  0.3655
13890TIP3    H163161   5.275   6.045  11.962 -0.4742  0.3088  0.6247
13890TIP3    H263162   5.242   6.005  12.104  0.2572 -0.8149  0.4923
13891TIP3   OH263163   1.797   3.876   4.591  0.5612  0.1833  0.3797
13891TIP3    H163164   1.798   3.869   4.686 -3.7660 -0.9317  0.5182
13891TIP3    H263165   1.730   3.941   4.572  0.5775 -0.3814 -1.9231
13892TIP3   OH263166   6.690   1.645   5.473 -0.6734 -0.1787 -0.1600
13892TIP3    H163167   6.704   1.568   5.417  0.1467  0.6303 -1.0961
13892TIP3    H263168   6.689   1.719   5.412  1.4383  0.8588  0.9853
13893TIP3   OH263169   1.563   1.564   3.280  0.3214 -0.3618 -0.0639
13893TIP3    H163170   1.606   1.497   3.228  2.2347 -0.2571  1.2437
13893TIP3    H263171   1.561   1.641   3.223  0.2257 -0.8916 -0.7825
13894TIP3   OH263172   3.469   2.449   4.629  0.1374  0.2643  0.4237
13894TIP3    H163173   3.553   2.493   4.643 -0.4850  1.8861 -0.6229
13894TIP3    H263174   3.407   2.501   4.680 -0.6630  0.8133 -1.0446
13895TIP3   OH263175   1.518   0.378   4.132 -0.0857  0.5811 -0.4355
13895TIP3    H163176   1.572   0.310   4.172  0.1132  0.3871 -1.0210
13895TIP3    H263177   1.434   0.372   4.178  0.2380  0.5808  0.1669
13896TIP3   OH263178   3.254   1.546  13.255  0.3906  0.1934  0.3709
13896TIP3    H163179   3.188   1.593  13.204  0.2491  0.3326  0.6821
13896TIP3    H263180   3.330   1.540  13.197 -0.5041 -1.6182 -0.7238
13897TIP3   OH263181   1.640   1.067  15.813  0.4446  0.2404  0.4607
13897TIP3    H163182   1.656   1.109  15.898 -0.3897 -0.5583  1.0194
13897TIP3    H263183   1.711   1.003  15.805  0.4739  0.2531  0.5982
13898TIP3   OH263184   5.724   1.754  15.361 -0.0920  0.0164  0.1102
13898TIP3    H163185   5.695   1.675  15.406 -0.8092  0.0679 -0.2469
13898TIP3    H263186   5.648   1.781  15.309  1.1984 -0.9310 -2.4048
13899TIP3   OH263187   0.804   3.802   6.666  0.0142 -0.6390 -0.4062
13899TIP3    H163188   0.875   3.866   6.667  1.2404 -1.9390 -1.4500
13899TIP3    H263189   0.807   3.762   6.753  0.8115 -0.9453 -0.5667
13900TIP3   OH263190   3.537   4.072   5.714 -0.5009  0.0032 -0.6709
13900TIP3    H163191   3.612   4.013   5.722 -1.1910 -0.9166 -0.7835
13900TIP3    H263192   3.574   4.155   5.685  0.7854  0.3343  1.7392
13901TIP3   OH263193   1.786   4.259   2.299 -0.3317 -0.0425  0.0566
13901TIP3    H163194   1.735   4.245   2.219  1.6530 -0.1332 -1.2535
13901TIP3    H263195   1.775   4.352   2.318 -0.6430  0.0277 -0.4421
13902TIP3   OH263196   6.005   3.871  14.653  0.2369 -0.3178  0.0009
13902TIP3    H163197   6.002   3.905  14.564 -1.2205 -2.1431 -0.7203
13902TIP3    H263198   6.077   3.807  14.651  0.6879  0.1713  0.3588
13903TIP3   OH263199   3.955   6.053   0.765 -0.3252 -0.0439 -0.2180
13903TIP3    H163200   3.954   6.143   0.796  0.5016 -0.0101 -0.2609
13903TIP3    H263201   3.962   6.059   0.670  1.2746 -0.1371 -0.1264
13904TIP3   OH263202   5.999   5.882   3.459  0.4603  0.6771  0.4078
13904TIP3    H163203   5.995   5.804   3.513 -1.6791 -0.0023 -0.6190
13904TIP3    H263204   6.029   5.951   3.518  1.3696 -0.6818  1.5919
13905TIP3   OH263205   3.964   0.322   3.598  0.1991  0.1983 -0.5893
13905TIP3    H163206   4.052   0.283   3.600 -0.6572 -1.9900  2.4478
13905TIP3    H263207   3.915   0.267   3.537  0.1430 -0.6647  0.2197
13906TIP3   OH263208   0.701   6.450   1.215  0.2918  0.3221  0.3976
13906TIP3    H163209   0.633   6.484   1.273 -1.0536  0.6264 -1.2703
13906TIP3    H263210   0.660   6.451   1.128  1.7709 -1.3581 -0.3642
13907TIP3   OH263211   4.487   4.242   1.732 -0.9485 -0.1543 -0.3121
13907TIP3    H163212   4.482   4.171   1.797  6.0340 -2.6389 -1.5862
13907TIP3    H263213   4.427   4.215   1.662 -2.4178 -1.8813  1.5091
13908TIP3   OH263214   5.970   1.270   0.692 -0.9162  0.2391  0.0615
13908TIP3    H163215   5.957   1.364   0.685  1.2038  0.5197 -0.8373
13908TIP3    H263216   5.938   1.248   0.780  1.4407  2.4127  1.6363
13909TIP3   OH263217   2.641   6.355   1.184 -0.2905  0.0120  0.0258
13909TIP3    H163218   2.629   6.325   1.094  0.3964 -0.0450 -0.0512
13909TIP3    H263219   2.567   6.319   1.231 -0.4665 -0.2517 -0.4462
13910TIP3   OH263220   1.133   3.803  12.184  0.1316 -0.2792  0.0832
13910TIP3    H163221   1.048   3.760  12.184 -0.9372  1.6477 -1.5052
13910TIP3    H263222   1.175   3.772  12.104  1.5457 -2.2104  1.4854
13911TIP3   OH263223   4.746   4.067  16.993  0.1055  0.0529 -0.7611
13911TIP3    H163224   4.698   3.988  16.970  2.1160 -1.2676 -0.7495
13911TIP3    H263225   4.738   4.073  17.088 -2.0620  1.3015 -0.9684
13912TIP3   OH263226   2.880   4.635  15.817  0.3040  0.0459  0.0664
13912TIP3    H163227   2.800   4.667  15.859  1.1879  0.3948  1.5802
13912TIP3    H263228   2.928   4.592  15.888  0.3184 -2.4601 -1.3503
13913TIP3   OH263229   4.127   1.875  10.206  0.2382  0.3942 -0.1579
13913TIP3    H163230   4.140   1.965  10.177  0.6997  0.4664  0.2769
13913TIP3    H263231   4.109   1.826  10.125 -4.1574  1.5524 -0.1203
13914TIP3   OH263232   6.680   3.644   4.792  0.4441 -0.1098 -0.1461
13914TIP3    H163233   6.746   3.702   4.830 -0.2437  0.9640 -0.5619
13914TIP3    H263234   6.596   3.681   4.819 -0.0397 -0.0352 -1.6722
13915TIP3   OH263235   5.874   4.073   3.115  0.3333  0.1899 -0.1126
13915TIP3    H163236   5.942   4.074   3.182 -0.0140  2.0289  0.2804
13915TIP3    H263237   5.818   4.148   3.137  0.1592  0.7998 -2.3801
13916TIP3   OH263238   4.940   5.833  14.288  0.3458 -0.5777 -0.2845
13916TIP3    H163239   4.986   5.891  14.349 -0.6848 -0.5767  0.5173
13916TIP3    H263240   4.880   5.782  14.343 -2.1506  0.8769 -1.4618
13917TIP3   OH263241   2.554   6.167  13.318 -0.5559 -0.1605  0.6416
13917TIP3    H163242   2.573   6.109  13.244  0.0249  0.0923  0.5828
13917TIP3    H263243   2.623   6.148  13.382 -2.0445 -1.6085  1.8763
13918TIP3   OH263244   3.360   4.839  15.325  0.5329  0.8154 -0.1935
13918TIP3    H163245   3.384   4.931  15.328  0.2082  0.8772  1.2187
13918TIP3    H263246   3.356   4.812  15.416 -1.1568 -0.1269 -0.4998
13919TIP3   OH263247   5.390   2.338   4.633  0.7666 -0.4154  0.4863
13919TIP3    H163248   5.336   2.259   4.626 -0.7622  0.6912 -1.6080
13919TIP3    H263249   5.445   2.337   4.554  2.3095 -0.4435  1.5262
13920TIP3   OH263250   4.007   1.218  12.747 -0.0832  0.2183  0.1139
13920TIP3    H163251   4.072   1.148  12.757  0.4469  0.4413 -1.4996
13920TIP3    H263252   4.018   1.272  12.825  1.5879  0.1685 -0.0503
13921TIP3   OH263253   0.433   5.288  12.733  0.4437 -0.6348  0.3960
13921TIP3    H163254   0.400   5.310  12.646  0.8057  1.4929  0.7256
13921TIP3    H263255   0.521   5.326  12.734  0.2306 -0.1254  1.8590
13922TIP3   OH263256   1.669   1.971  15.738 -0.0884  0.3733  0.4070
13922TIP3    H163257   1.662   2.042  15.674 -0.9016  0.7148  0.8672
13922TIP3    H263258   1.753   1.929  15.718  1.5581  2.8807  1.5669
13923TIP3   OH263259   3.422   6.484   4.264 -0.2610  0.4120  0.2171
13923TIP3    H163260   3.431   6.418   4.333  1.0328  1.3494  0.9851
13923TIP3    H263261   3.423   6.433   4.183 -0.2336 -0.5886  0.8206
13924TIP3   OH263262   0.519   1.060   3.745  0.7723 -0.0173 -0.3656
13924TIP3    H163263   0.529   1.017   3.660  2.6741  2.8885 -1.7824
13924TIP3    H263264   0.439   1.113   3.736  0.7470 -0.0236 -0.1876
13925TIP3   OH263265   4.944   2.717  16.032 -0.1090  0.0756  0.6561
13925TIP3    H163266   4.939   2.729  16.127 -0.9661 -1.3089  0.8173
13925TIP3    H263267   4.967   2.625  16.021 -1.8697 -0.2674 -0.4687
13926TIP3   OH263268   4.362   0.739   6.289 -0.8795  0.3875 -0.1170
13926TIP3    H163269   4.415   0.745   6.210 -0.5940 -0.1500  0.0294
13926TIP3    H263270   4.298   0.670   6.269 -1.2440  0.7222 -0.1279
13927TIP3   OH263271   5.723   1.496  15.509 -0.1970 -0.1629 -0.0305
13927TIP3    H163272   5.805   1.464  15.545  0.5807  3.3536  1.7378
13927TIP3    H263273   5.672   1.522  15.585 -2.6689 -1.4203 -1.1326
13928TIP3   OH263274   0.099   0.762  16.838  0.6253 -0.3484  0.6703
13928TIP3    H163275   0.168   0.791  16.778  1.1035 -2.3530  0.1831
13928TIP3    H263276   0.018   0.771  16.787  0.9812 -1.6446 -0.1586
13929TIP3   OH263277   1.755   5.976   1.997  0.9467  0.3105 -0.6472
13929TIP3    H163278   1.700   5.898   2.009 -0.5842  1.5723  1.2082
13929TIP3    H263279   1.730   6.010   1.912 -1.6566  1.1150  0.3398
13930TIP3   OH263280   3.592   0.140   3.146 -0.2884  0.1156 -0.0068
13930TIP3    H163281   3.637   0.123   3.229  0.3907 -0.1143 -0.4207
13930TIP3    H263282   3.619   0.229   3.122 -1.0076  0.4383  0.3440
13931TIP3   OH263283   4.244   6.688  11.273  0.1238 -0.3941  0.3293
13931TIP3    H163284   4.291   6.767  11.298  0.0415 -0.8661  2.0845
13931TIP3    H263285   4.303   6.644  11.212  1.3498 -0.2653  1.3820
13932TIP3   OH263286   4.565   1.945   2.685 -0.4067  0.1549 -0.1901
13932TIP3    H163287   4.486   1.934   2.738  0.2924 -1.3806  0.5820
13932TIP3    H263288   4.615   1.865   2.699  0.8114  0.6475 -1.4955
13933TIP3   OH263289   6.408   4.312  15.297 -0.2670 -0.2356 -0.0085
13933TIP3    H163290   6.382   4.357  15.378 -1.4520 -1.2494  0.2094
13933TIP3    H263291   6.460   4.377  15.249 -2.2244  1.5136  0.0987
13934TIP3   OH263292   5.787   5.212  15.196 -0.0357 -0.3686  0.1700
13934TIP3    H163293   5.874   5.250  15.206 -0.7700  1.1978  1.0374
13934TIP3    H263294   5.755   5.202  15.286 -0.8179 -0.7404 -0.1392
13935TIP3   OH263295   5.320   2.874  16.114 -0.6609  0.5485  0.1716
13935TIP3    H163296   5.308   2.929  16.036  1.9159  1.7706  0.5064
13935TIP3    H263297   5.415   2.872  16.126 -0.9436 -0.4011  2.7549
13936TIP3   OH263298   4.535   4.742   0.148  0.0623 -0.0606 -0.1115
13936TIP3    H163299   4.449   4.717   0.114  0.8486 -1.0486 -1.4685
13936TIP3    H263300   4.554   4.677   0.216  0.6163 -1.1602 -1.2723
13937TIP3   OH263301   2.984   1.050  11.552  0.6740  0.3606 -0.0621
13937TIP3    H163302   2.941   1.062  11.468  0.0612  1.6471  0.4167
13937TIP3    H263303   2.927   0.990  11.600  0.5291  0.3723 -0.2196
13938TIP3   OH263304   6.371   3.790   1.057  0.5187  0.0490  0.0438
13938TIP3    H163305   6.399   3.731   1.127  0.2337 -1.8173 -1.3266
13938TIP3    H263306   6.280   3.812   1.080  0.0220 -1.5247 -0.3249
13939TIP3   OH263307   0.024   3.809  10.730  0.8645 -0.2235 -0.1374
13939TIP3    H163308   0.109   3.791  10.689  0.8927  2.6122 -1.6201
13939TIP3    H263309   0.017   3.905  10.729 -2.5308 -0.3512 -0.4788
13940TIP3   OH263310   4.918   4.784   2.327 -0.9156  0.1958 -0.2532
13940TIP3    H163311   4.850   4.782   2.259 -1.1936  1.9347 -0.0948
13940TIP3    H263312   4.997   4.752   2.284 -1.0917  1.2693 -1.4212
13941TIP3   OH263313   2.320   5.910  16.327  0.8192 -0.5248 -0.0183
13941TIP3    H163314   2.340   5.818  16.341 -0.7446 -0.6854  1.5972
13941TIP3    H263315   2.225   5.914  16.324  0.8097  1.1254  0.8696
13942TIP3   OH263316   0.449   2.338   4.267 -0.7852  0.2470  0.2136
13942TIP3    H163317   0.418   2.370   4.352 -1.7959  0.1422 -0.0969
13942TIP3    H263318   0.504   2.408   4.233  1.3681 -0.5627  1.8586
13943TIP3   OH263319   6.337   0.125   4.593  0.7675  0.5316 -0.4898
13943TIP3    H163320   6.260   0.143   4.646  0.8194  1.1004 -0.5983
13943TIP3    H263321   6.375   0.047   4.631  0.7656  0.8940  0.2606
13944TIP3   OH263322   6.016   6.090   1.090  0.5625 -0.0667 -0.3047
13944TIP3    H163323   5.989   6.137   1.169 -1.0362 -0.4812 -0.5810
13944TIP3    H263324   6.110   6.109   1.082  0.4411  1.1661  0.8748
13945TIP3   OH263325   3.204   3.648   6.003  0.1903  0.6674  0.2665
13945TIP3    H163326   3.130   3.705   5.987  0.1674  0.5001 -0.2126
13945TIP3    H263327   3.242   3.681   6.085 -0.6062  0.5396  0.6937
13946TIP3   OH263328   0.374   3.857   2.084 -0.6809  0.1572 -0.2085
13946TIP3    H163329   0.413   3.891   2.003 -1.1903 -0.6531 -0.8038
13946TIP3    H263330   0.281   3.849   2.065 -0.5275 -2.0588 -0.2979
13947TIP3   OH263331   0.402   3.796  12.704 -0.6423  0.0419 -0.0941
13947TIP3    H163332   0.409   3.812  12.798  2.0845 -1.3958  0.0295
13947TIP3    H263333   0.383   3.703  12.697 -2.4872  0.4254 -1.0235
13948TIP3   OH263334   6.212   2.836  11.701 -0.3213 -0.0768  0.1475
13948TIP3    H163335   6.151   2.908  11.687 -0.7212 -0.3389  0.5194
13948TIP3    H263336   6.156   2.761  11.722  0.1261 -0.3146  0.5061
13949TIP3   OH263337   1.517   2.376   1.049 -0.0500  0.3808 -0.0862
13949TIP3    H163338   1.475   2.461   1.044 -2.1000 -0.6646 -2.4866
13949TIP3    H263339   1.446   2.313   1.040  1.4359 -1.6279  1.3167
13950TIP3   OH263340   4.660   3.476  14.536  0.3414 -0.0280 -0.2881
13950TIP3    H163341   4.700   3.449  14.453  0.2751  0.0597 -0.3490
13950TIP3    H263342   4.696   3.563  14.552 -0.2326  0.2810 -0.6192
13951TIP3   OH263343   1.842   3.143  12.813  0.1538  0.3547  0.1406
13951TIP3    H163344   1.889   3.224  12.833 -0.0477  0.9700 -1.6936
13951TIP3    H263345   1.756   3.172  12.783  0.2670 -0.4900 -1.0596
13952TIP3   OH263346   5.207   2.895  16.399 -0.6248 -0.1375  0.2637
13952TIP3    H163347   5.208   2.909  16.304  0.9735 -0.4702  0.2070
13952TIP3    H263348   5.299   2.884  16.422 -0.9405  0.5626  1.9586
13953TIP3   OH263349   4.565   1.220   0.612 -0.1785 -0.5432  0.3108
13953TIP3    H163350   4.613   1.302   0.618  1.5061 -1.4894  0.3631
13953TIP3    H263351   4.526   1.208   0.699 -0.1508  0.0244  0.4019
13954TIP3   OH263352   5.355   4.918  13.376 -0.1954 -0.1521 -0.2366
13954TIP3    H163353   5.293   4.846  13.392 -0.0885 -0.1310  0.3078
13954TIP3    H263354   5.319   4.965  13.301 -1.5870  0.6792  0.8904
13955TIP3   OH263355   5.508   2.791   1.172 -0.1395 -0.4800  0.7039
13955TIP3    H163356   5.494   2.824   1.083 -1.9102 -0.7726  0.8565
13955TIP3    H263357   5.513   2.870   1.226  0.6901 -0.3136  0.4102
13956TIP3   OH263358   0.182   1.520  15.056 -0.2852 -0.1318 -0.3053
13956TIP3    H163359   0.138   1.501  14.973  0.4580 -3.3473 -0.1036
13956TIP3    H263360   0.139   1.462  15.119  1.0747  0.1486  0.9199
13957TIP3   OH263361   1.770   4.772  17.260  0.0137 -0.1311  0.7566
13957TIP3    H163362   1.760   4.839  17.328 -2.1391  0.7864 -0.3818
13957TIP3    H263363   1.759   4.820  17.178  1.4620 -1.4066 -0.2424
13958TIP3   OH263364   1.348   2.405   3.425  0.1802  0.3099 -0.4041
13958TIP3    H163365   1.408   2.410   3.351  0.2130 -2.0618 -0.6306
13958TIP3    H263366   1.331   2.311   3.435 -0.6093  0.6376  1.9659
13959TIP3   OH263367   3.031   1.802   0.953 -0.1840  0.6465  0.7916
13959TIP3    H163368   2.982   1.719   0.950 -1.6574  1.4702  0.9138
13959TIP3    H263369   3.078   1.805   0.869 -0.9831  0.1821  0.3117
13960TIP3   OH263370   2.679   0.968  11.919 -0.0683  0.7229  0.0231
13960TIP3    H163371   2.620   1.023  11.971  0.0604  1.7055 -0.8346
13960TIP3    H263372   2.739   0.931  11.983  0.2274  2.0813  0.5756
13961TIP3   OH263373   0.377   0.002  16.402 -0.3816  0.2257  0.0564
13961TIP3    H163374   0.459   0.017  16.354 -0.0478  0.0324  0.5539
13961TIP3    H263375   0.336  -0.071  16.357  0.1886 -0.3066  0.3820
13962TIP3   OH263376   1.131   2.557   0.605 -0.2570  0.3264  0.0041
13962TIP3    H163377   1.164   2.576   0.693 -3.1809  1.1078  1.0569
13962TIP3    H263378   1.109   2.463   0.609 -0.3021  0.3398  0.0933
13963TIP3   OH263379   1.118   5.585   4.496 -0.1869 -0.4059  0.2169
13963TIP3    H163380   1.169   5.513   4.459  3.4275  2.6893 -1.5435
13963TIP3    H263381   1.052   5.605   4.429 -0.2035 -1.1169  0.0177
13964TIP3   OH263382   4.267   4.775  16.896  0.4428  0.4871  0.7846
13964TIP3    H163383   4.286   4.798  16.805 -1.6799  0.3248  0.2446
13964TIP3    H263384   4.353   4.758  16.935  1.3318 -1.5861 -1.7504
13965TIP3   OH263385   2.755   5.152  16.910  0.6621  0.1194  0.3020
13965TIP3    H163386   2.713   5.159  16.824 -0.1824 -2.6369  0.3811
13965TIP3    H263387   2.830   5.210  16.905 -0.1458  1.0883 -1.7938
13966TIP3   OH263388   0.133   6.683  10.995  0.5457  0.0839 -0.1574
13966TIP3    H163389   0.095   6.721  11.074  0.8140  2.9232 -1.2925
13966TIP3    H263390   0.198   6.620  11.028  0.3925  0.9000  1.8646
13967TIP3   OH263391   4.138   1.879  14.142  0.2081  0.7982 -0.6701
13967TIP3    H163392   4.213   1.842  14.095 -0.2122 -0.8366 -0.1389
13967TIP3    H263393   4.067   1.875  14.079 -0.0022 -0.0095 -0.4008
13968TIP3   OH263394   3.381   6.296   2.853  0.5943  0.2779  0.8410
13968TIP3    H163395   3.322   6.299   2.928 -0.2916  0.5450  0.1483
13968TIP3    H263396   3.447   6.362   2.871  1.4179 -0.8516  2.1974
13969TIP3   OH263397   1.966   3.930   6.145  0.2674 -0.5080  0.5605
13969TIP3    H163398   2.005   4.001   6.197  0.1849  0.2293 -0.3623
13969TIP3    H263399   1.952   3.859   6.208  0.8772  0.0858  1.3880
13970TIP3   OH263400   6.177   5.364  13.092  0.6311  0.4088 -0.6680
13970TIP3    H163401   6.091   5.393  13.062 -0.4172 -0.7928  1.0332
13970TIP3    H263402   6.226   5.446  13.106  0.0101  1.0943 -2.1625
13971TIP3   OH263403   3.650   0.460  12.276  0.1254  0.3284 -0.4286
13971TIP3    H163404   3.718   0.419  12.330  0.6080  1.1656 -0.3893
13971TIP3    H263405   3.587   0.390  12.260  0.9092 -0.4199 -0.3212
13972TIP3   OH263406   4.655   1.673  11.957  0.0399  0.5202  0.1140
13972TIP3    H163407   4.640   1.638  11.870 -0.5971  0.5582  0.2018
13972TIP3    H263408   4.592   1.626  12.013 -1.1353  2.0963  0.1597
13973TIP3   OH263409   4.433   4.662   5.125  0.4086  0.1171 -0.8236
13973TIP3    H163410   4.436   4.610   5.045  0.2291 -2.1285  0.5505
13973TIP3    H263411   4.340   4.667   5.147  0.5627 -0.8714  0.1697
13974TIP3   OH263412   5.469   0.968   5.421 -0.4307 -0.4120  0.3457
13974TIP3    H163413   5.432   0.961   5.332 -2.6902 -0.6348  1.2320
13974TIP3    H263414   5.411   1.030   5.466  0.1460 -0.9676  1.9203
13975TIP3   OH263415   2.882   0.338   2.980  0.4643 -0.4846  0.0249
13975TIP3    H163416   2.825   0.296   2.916  0.9066 -0.9185 -0.0904
13975TIP3    H263417   2.864   0.293   3.062 -0.4030  0.3448  0.3122
13976TIP3   OH263418   2.716   1.665  12.486  0.3918  0.5892 -0.5053
13976TIP3    H163419   2.682   1.586  12.527  0.6197  0.6307 -0.2335
13976TIP3    H263420   2.725   1.727  12.558  0.0911  0.9062 -0.7372
13977TIP3   OH263421   5.243   6.339  12.384  0.0056  0.1338  0.3901
13977TIP3    H163422   5.324   6.315  12.429  0.3086 -0.7819 -0.5955
13977TIP3    H263423   5.175   6.285  12.424  0.0748  0.1278  0.4968
13978TIP3   OH263424   2.924   4.382  15.108 -0.3095  0.4782 -0.3856
13978TIP3    H163425   2.888   4.362  15.194  1.6036  1.8427  0.8154
13978TIP3    H263426   2.864   4.448  15.072 -0.7086  0.4550  0.2158
13979TIP3   OH263427   6.822   4.189  13.580 -0.6851 -0.2401  0.1203
13979TIP3    H163428   6.832   4.122  13.513 -1.5469  2.6788 -3.2439
13979TIP3    H263429   6.733   4.175  13.615 -0.0722 -2.0441  1.1028
13980TIP3   OH263430   0.803   6.709  16.500 -0.6488 -0.5003  0.0591
13980TIP3    H163431   0.863   6.692  16.427 -0.3613  0.0786  0.1598
13980TIP3    H263432   0.730   6.648  16.485 -0.0362 -1.2269 -0.0522
13981TIP3   OH263433   3.968   0.583  11.742  0.0249  0.3543 -0.4602
13981TIP3    H163434   4.014   0.615  11.665 -0.7819  1.0207 -0.6881
13981TIP3    H263435   3.879   0.566  11.711 -0.1706  0.1389  0.2029
13982TIP3   OH263436   3.972   4.892  17.084  0.6370 -0.4293 -0.0796
13982TIP3    H163437   4.043   4.892  17.020  2.2358  0.0779  1.5924
13982TIP3    H263438   4.004   4.948  17.155  0.4115 -3.4499  2.6562
13983TIP3   OH263439   3.378   0.372   0.441  0.5201 -0.5039  0.6539
13983TIP3    H163440   3.394   0.331   0.526 -3.5149 -1.9336  0.9433
13983TIP3    H263441   3.358   0.463   0.461 -1.1456 -0.9953  1.4470
13984TIP3   OH263442   1.983   5.333   0.658 -0.0405  0.4825  0.4389
13984TIP3    H163443   1.994   5.428   0.659  0.0199  0.5305 -1.5689
13984TIP3    H263444   2.051   5.302   0.599  0.1755 -0.8717  1.3582
13985TIP3   OH263445   3.478   3.721   1.410  0.2532 -0.1234 -0.2131
13985TIP3    H163446   3.434   3.682   1.334 -1.2767  0.7983  0.1615
13985TIP3    H263447   3.417   3.709   1.482  1.5372 -0.6617  0.8227
13986TIP3   OH263448   3.550   0.310  16.840  0.2590  0.3068 -0.5477
13986TIP3    H163449   3.519   0.374  16.904 -0.8572 -1.0843  0.3737
13986TIP3    H263450   3.501   0.330  16.760  0.4918  1.0820 -0.4987
13987TIP3   OH263451   0.654   2.571   6.642  0.1058 -0.0705  0.2747
13987TIP3    H163452   0.590   2.528   6.585  1.4995 -0.5085 -1.0303
13987TIP3    H263453   0.672   2.508   6.711  0.8295 -0.9044 -0.6516
13988TIP3   OH263454   5.917   2.479   5.901 -0.1382  0.0789  0.0781
13988TIP3    H163455   5.927   2.559   5.850 -2.6174 -0.0955 -0.8538
13988TIP3    H263456   5.860   2.503   5.973 -0.5416 -0.7171  0.0447
13989TIP3   OH263457   4.140   5.387  13.797 -0.2370  0.3064 -0.0130
13989TIP3    H163458   4.118   5.454  13.733 -0.4584  0.1915 -0.0575
13989TIP3    H263459   4.095   5.413  13.877  1.1944  1.2396  0.5361
13990TIP3   OH263460   3.424   1.962   1.002  0.1244 -0.2291 -0.1737
13990TIP3    H163461   3.375   1.916   1.070  0.3680  1.2833  1.0925
13990TIP3    H263462   3.411   1.910   0.923 -2.4872 -0.5494  0.3868
13991TIP3   OH263463   5.256   6.654   2.205 -0.2918  0.0958 -0.3919
13991TIP3    H163464   5.345   6.646   2.172  0.2141  0.2941  0.8912
13991TIP3    H263465   5.254   6.737   2.252 -0.4834 -0.9606  1.5446
13992TIP3   OH263466   5.756   2.185  12.615 -0.0506 -0.7078 -0.3994
13992TIP3    H163467   5.671   2.167  12.655 -0.1837  2.5801  1.1054
13992TIP3    H263468   5.752   2.277  12.590  3.1333 -0.3590 -0.0265
13993TIP3   OH263469   6.478   2.756  15.518 -0.3169  0.7212  0.7513
13993TIP3    H163470   6.414   2.791  15.456 -0.3118  0.6710  0.7182
13993TIP3    H263471   6.563   2.775  15.479 -0.3205  0.2421  0.4980
13994TIP3   OH263472   4.408   1.062   4.387  0.4950  0.8074  0.2445
13994TIP3    H163473   4.488   1.105   4.418  0.1038  0.9526  1.0823
13994TIP3    H263474   4.372   1.020   4.466  1.3609 -1.9275 -0.6859
13995TIP3   OH263475   1.035   0.678   4.938 -0.3357 -0.0286  0.0812
13995TIP3    H163476   0.954   0.665   4.887 -0.7599  0.1720  0.6937
13995TIP3    H263477   1.050   0.594   4.981  0.5795 -0.5168 -1.1447
13996TIP3   OH263478   5.680   1.347   4.811  0.3850  0.8488  0.0866
13996TIP3    H163479   5.607   1.407   4.826 -0.0318  0.1681  0.8576
13996TIP3    H263480   5.698   1.354   4.717 -1.2196  0.4217 -0.2836
13997TIP3   OH263481   6.805   0.302  16.246  0.1913  0.1757  0.3937
13997TIP3    H163482   6.778   0.299  16.155 -1.1063 -2.3155  0.7494
13997TIP3    H263483   6.735   0.256  16.293 -0.1253  2.9714  2.9384
13998TIP3   OH263484   6.354   6.690  11.869  0.0100  0.0262 -0.2169
13998TIP3    H163485   6.376   6.618  11.928  0.5415 -2.0932 -2.8307
13998TIP3    H263486   6.277   6.661  11.822 -2.3026  2.9667  1.3790
13999TIP3   OH263487   0.534   3.377   3.129 -0.2166  0.9102  0.3507
13999TIP3    H163488   0.488   3.303   3.091  1.5010 -0.1705  0.2372
13999TIP3    H263489   0.466   3.440   3.152 -1.6957 -0.5813  0.1766
14000TIP3   OH263490   4.843   4.116   4.590  0.0666 -0.6880  0.1538
14000TIP3    H163491   4.758   4.071   4.588  0.3851 -1.2920 -0.0650
14000TIP3    H263492   4.842   4.166   4.672 -0.2607 -1.1681  0.4484
14001TIP3   OH263493   0.061   5.161  16.322 -0.4421 -0.1130  0.3260
14001TIP3    H163494   0.060   5.257  16.321  0.3757 -0.0759  1.1702
14001TIP3    H263495   0.010   5.137  16.399 -0.9625 -0.3712 -0.0967
14002TIP3   OH263496   2.080   4.242  12.984 -0.1348 -0.3780  0.2858
14002TIP3    H163497   2.018   4.205  13.048  0.2885 -0.6154  0.5656
14002TIP3    H263498   2.064   4.336  12.987  0.6481 -0.2605  1.5882
14003TIP3   OH263499   5.916   3.498   3.173 -0.1478  0.4446 -0.1916
14003TIP3    H163500   5.846   3.434   3.158  0.0614  0.4807 -1.4067
14003TIP3    H263501   5.996   3.446   3.171 -0.0219  0.6499 -0.5132
14004TIP3   OH263502   5.036   3.935   4.507  0.0055  0.4310  0.1052
14004TIP3    H163503   4.992   3.998   4.565 -1.1015  2.3922 -2.6536
14004TIP3    H263504   4.965   3.879   4.476  0.5253 -0.3566  0.3349
14005TIP3   OH263505   0.220   6.053  15.560  0.2278 -0.0840  0.3546
14005TIP3    H163506   0.244   5.984  15.499  0.3759  0.3735 -0.1148
14005TIP3    H263507   0.261   6.132  15.524  0.7448  0.1005  1.3236
14006TIP3   OH263508   3.454   5.889  14.182 -0.3936  0.4831  0.7114
14006TIP3    H163509   3.534   5.939  14.196 -0.3990  0.3821  1.1135
14006TIP3    H263510   3.449   5.877  14.087  0.1621  0.3314  0.6992
14007TIP3   OH263511   2.226   0.712   5.293 -0.1703 -0.7248 -0.0531
14007TIP3    H163512   2.136   0.742   5.276 -0.3295 -1.7694 -1.1467
14007TIP3    H263513   2.278   0.752   5.223 -0.3838 -2.8696 -1.5433
14008TIP3   OH263514   5.703   0.417   6.557 -0.3941  0.1505  0.3984
14008TIP3    H163515   5.699   0.430   6.652  1.9457  2.7241  0.2978
14008TIP3    H263516   5.795   0.400   6.539 -0.9976 -1.6649 -1.3600
14009TIP3   OH263517   5.820   1.426   2.263  0.5095 -0.3509  0.4252
14009TIP3    H163518   5.800   1.430   2.356 -1.6147  0.6204 -0.0255
14009TIP3    H263519   5.907   1.386   2.259  0.7932 -0.1076  2.8216
14010TIP3   OH263520   4.057   3.229  13.443  0.2999  0.7462  0.1418
14010TIP3    H163521   3.984   3.276  13.483 -0.7271 -0.6401 -0.0198
14010TIP3    H263522   4.029   3.213  13.353  0.1627 -1.0015  0.4559
14011TIP3   OH263523   5.788   4.068   4.265 -0.1036  0.0524  0.5835
14011TIP3    H163524   5.799   4.119   4.185  0.2457  0.2402  0.7465
14011TIP3    H263525   5.715   4.009   4.247  0.0996 -0.0398  0.0644
14012TIP3   OH263526   2.186   2.896   1.266  0.2007 -0.3943  0.2936
14012TIP3    H163527   2.160   2.810   1.231  1.9790 -0.9470  0.2357
14012TIP3    H263528   2.168   2.889   1.360 -3.8113  0.8082 -0.1968
14013TIP3   OH263529   6.408   1.930  14.550  0.4224 -0.2834  0.2102
14013TIP3    H163530   6.401   1.999  14.484 -1.3323 -0.2833  0.3527
14013TIP3    H263531   6.414   1.977  14.633 -0.6281 -0.2896  0.2961
14014TIP3   OH263532   2.894   2.964  16.127 -0.2220 -0.4508  0.2815
14014TIP3    H163533   2.824   3.001  16.074 -0.6924 -1.5993  0.0653
14014TIP3    H263534   2.964   2.944  16.065 -0.7498 -1.7405  0.0676
14015TIP3   OH263535   0.502   5.471   1.661  0.0931  0.2580 -0.2104
14015TIP3    H163536   0.592   5.473   1.628  0.2454  0.4897  0.2068
14015TIP3    H263537   0.510   5.500   1.752  0.0683 -2.7954  0.9006
14016TIP3   OH263538   4.227   1.529  16.798  0.1831 -0.3802  0.2597
14016TIP3    H163539   4.313   1.490  16.782 -0.0061 -0.2888 -1.1160
14016TIP3    H263540   4.242   1.591  16.869  0.9051 -1.4980  1.1211
14017TIP3   OH263541   5.466   3.780  16.719  0.0913 -0.5601 -0.2230
14017TIP3    H163542   5.427   3.832  16.789  0.9083  0.3801 -0.4507
14017TIP3    H263543   5.392   3.736  16.678 -0.4808 -0.5387  0.7472
14018TIP3   OH263544   4.177   4.004   4.150 -0.3100  0.1078  0.4834
14018TIP3    H163545   4.217   4.005   4.237  1.0037  1.6264 -0.0844
14018TIP3    H263546   4.228   3.941   4.101 -0.7899 -0.4452  0.6856
14019TIP3   OH263547   5.523   2.899  12.053  0.4967 -0.8944  0.1075
14019TIP3    H163548   5.564   2.957  11.988  0.5405 -1.7199 -0.6244
14019TIP3    H263549   5.549   2.811  12.025  0.0334 -1.2924  0.9192
14020TIP3   OH263550   1.340   3.409  11.156 -0.5035  0.1517 -0.1687
14020TIP3    H163551   1.422   3.457  11.147 -0.4591  0.3738  1.1934
14020TIP3    H263552   1.274   3.466  11.117 -0.3531  1.0471  0.8481
14021TIP3   OH263553   2.951   4.742  11.319 -0.2845 -0.2536 -0.1767
14021TIP3    H163554   2.982   4.655  11.343  1.5167  1.1453  3.3513
14021TIP3    H263555   2.855   4.735  11.322 -0.1916 -2.2693 -0.8863
14022TIP3   OH263556   5.479   1.475   0.346 -0.7756  0.1462 -0.2620
14022TIP3    H163557   5.547   1.419   0.384  0.2185  0.8967 -0.8968
14022TIP3    H263558   5.466   1.544   0.410  1.7350  2.0691 -1.6803
14023TIP3   OH263559   1.803   4.981  14.313 -0.0891 -0.1033  0.3419
14023TIP3    H163560   1.811   5.057  14.256  1.6767  0.1572  0.8635
14023TIP3    H263561   1.805   5.017  14.402 -2.3104 -0.5414  0.6278
14024TIP3   OH263562   4.136   0.573   5.169  0.1602  0.2758  0.0235
14024TIP3    H163563   4.060   0.569   5.111  1.0585 -0.1846 -1.1767
14024TIP3    H263564   4.158   0.666   5.175  2.9802  0.2329 -4.5052
14025TIP3   OH263565   3.555   3.524   4.259 -0.0722  0.1268  0.3859
14025TIP3    H163566   3.588   3.596   4.205  0.4375  0.4971  1.1744
14025TIP3    H263567   3.630   3.498   4.312 -0.4471 -0.5246  0.6064
14026TIP3   OH263568   2.906   1.255  11.997 -0.6282  0.1480 -0.3608
14026TIP3    H163569   2.959   1.333  12.011  0.0403 -0.1768 -0.9961
14026TIP3    H263570   2.820   1.288  11.971 -0.2295  0.6690 -1.0376
14027TIP3   OH263571   1.669   3.442   0.279 -0.0942 -0.1935  0.5007
14027TIP3    H163572   1.650   3.452   0.373 -0.9109  0.5039  0.2761
14027TIP3    H263573   1.588   3.469   0.236  0.3062 -0.4377 -0.4097
14028TIP3   OH263574   1.467   2.157  10.518  0.2620  0.3517  0.2842
14028TIP3    H163575   1.514   2.172  10.600  1.3488 -1.1295 -0.0225
14028TIP3    H263576   1.458   2.062  10.513 -0.0357  0.4370 -1.1825
14029TIP3   OH263577   2.592   5.035   2.545 -0.0431 -0.3255  0.4088
14029TIP3    H163578   2.644   5.030   2.625  0.3026 -2.2685  0.1195
14029TIP3    H263579   2.643   4.985   2.480  0.8312  3.0604 -1.7525
14030TIP3   OH263580   3.414   1.955  13.756  0.6156 -0.2173 -0.5981
14030TIP3    H163581   3.459   1.901  13.691 -1.9112 -1.7629 -1.2176
14030TIP3    H263582   3.329   1.976  13.715  0.1600  1.3616  1.0142
14031TIP3   OH263583   3.995   0.254  15.494  0.2645  0.1959 -0.1107
14031TIP3    H163584   3.909   0.254  15.537 -0.3178 -2.1831 -1.1319
14031TIP3    H263585   3.985   0.315  15.421 -1.4164 -1.7714 -1.6480
14032TIP3   OH263586   4.040   0.958  14.501 -0.2395 -0.3118 -0.4196
14032TIP3    H163587   4.046   1.039  14.552 -2.5554 -0.9987  1.1037
14032TIP3    H263588   4.022   0.988  14.412  2.1063  0.8616 -0.5852
14033TIP3   OH263589   3.030   1.766  13.224 -0.7343  0.1872 -0.5015
14033TIP3    H163590   2.982   1.722  13.294  0.4595  0.0882  0.2794
14033TIP3    H263591   2.966   1.777  13.154 -1.4035 -1.6322 -0.2198
14034TIP3   OH263592   2.193   4.872  11.628 -0.3088  0.7456 -0.9933
14034TIP3    H163593   2.105   4.911  11.622 -0.9587 -0.5135 -0.1886
14034TIP3    H263594   2.183   4.802  11.693  0.6115 -1.2246 -2.8588
14035TIP3   OH263595   4.370   1.140   3.787 -0.1001  0.0202 -0.0029
14035TIP3    H163596   4.354   1.234   3.778 -2.2148  0.0631  2.9340
14035TIP3    H263597   4.298   1.098   3.740 -0.0039 -0.1119 -0.0337
14036TIP3   OH263598   1.413   3.993  17.082 -0.7144 -0.3892  0.4836
14036TIP3    H163599   1.469   3.962  17.153  1.7280  2.1193 -0.1661
14036TIP3    H263600   1.407   3.919  17.021  4.0776 -0.1717 -0.6061
14037TIP3   OH263601   2.013   5.237  15.146 -0.5210 -0.3488 -0.0027
14037TIP3    H163602   1.993   5.199  15.232 -1.1077 -0.2531 -0.0967
14037TIP3    H263603   1.945   5.302  15.132  0.1385  0.3268 -0.1128
14038TIP3   OH263604   2.966   4.435   3.205 -0.0350  0.3387 -0.1661
14038TIP3    H163605   2.936   4.354   3.165  2.4893  0.2130 -2.0490
14038TIP3    H263606   3.019   4.407   3.280 -0.6554  0.3692  0.2964
14039TIP3   OH263607   5.381   6.659  16.594  0.3226 -0.8650  0.1276
14039TIP3    H163608   5.408   6.631  16.681 -0.1088  0.6752  0.7849
14039TIP3    H263609   5.428   6.600  16.534  3.6152  0.4082  1.2535
14040TIP3   OH263610   1.447   0.776  13.004  0.3691  0.5315  0.3675
14040TIP3    H163611   1.451   0.851  12.944  3.0225  0.2264  0.0253
14040TIP3    H263612   1.421   0.814  13.088 -1.0442  1.3506 -0.4010
14041TIP3   OH263613   4.822   2.536   5.579  0.1618 -0.2682  0.2436
14041TIP3    H163614   4.854   2.556   5.491 -1.0712 -1.5509 -0.5384
14041TIP3    H263615   4.735   2.500   5.565 -0.0654 -0.4887  2.0073
14042TIP3   OH263616   2.728   5.764   1.981 -0.7375  0.4456  0.6526
14042TIP3    H163617   2.758   5.687   2.030 -1.1034 -0.8117 -0.9774
14042TIP3    H263618   2.803   5.823   1.980  0.4678 -1.0226 -0.2045
14043TIP3   OH263619   0.789   1.967  11.690 -0.3931 -0.2942  0.3871
14043TIP3    H163620   0.821   1.975  11.780 -1.2890 -0.0726  0.6943
14043TIP3    H263621   0.717   2.031  11.684 -0.5652 -0.5470 -0.3828
14044TIP3   OH263622   4.225   6.346  15.302  0.2493  0.1765 -0.6368
14044TIP3    H163623   4.302   6.399  15.282 -1.2841  2.1778 -1.6584
14044TIP3    H263624   4.243   6.261  15.263  1.4600  0.9771 -1.9126
14045TIP3   OH263625   6.142   5.322   5.318  0.0656  0.2242 -0.1682
14045TIP3    H163626   6.078   5.284   5.377  2.6552 -0.9306  2.0925
14045TIP3    H263627   6.122   5.416   5.317 -1.2499 -0.0301  0.9722
14046TIP3   OH263628   6.502   5.473   0.833  0.2066 -0.0205  0.5885
14046TIP3    H163629   6.540   5.511   0.753 -0.8647  1.6192  0.7971
14046TIP3    H263630   6.572   5.479   0.898  0.9873 -1.0819 -0.1245
14047TIP3   OH263631   1.497   1.394  12.581 -0.0080  0.2462  0.4393
14047TIP3    H163632   1.469   1.481  12.611 -1.5024  1.1128 -3.0602
14047TIP3    H263633   1.420   1.356  12.539  1.0209 -2.2306  0.6116
14048TIP3   OH263634   4.456   6.335  16.918  0.1567 -0.2714 -0.3426
14048TIP3    H163635   4.471   6.249  16.956  0.0745 -0.8147 -1.4777
14048TIP3    H263636   4.543   6.370  16.900  0.2072  0.1958  0.7651
14049TIP3   OH263637   2.852   1.226   5.621 -0.3282  0.1663 -0.1660
14049TIP3    H163638   2.851   1.228   5.716 -1.3813  0.2625 -0.1669
14049TIP3    H263639   2.943   1.244   5.597 -0.2273  0.9966  0.8019
14050TIP3   OH263640   1.977   1.395  13.484 -0.6899  0.4397 -0.0224
14050TIP3    H163641   1.991   1.306  13.452  3.5238  0.6009  0.8809
14050TIP3    H263642   1.982   1.449  13.405 -0.5307  0.0821 -0.2647
14051TIP3   OH263643   5.192   2.320  10.829  0.1162 -0.5363 -0.0876
14051TIP3    H163644   5.112   2.328  10.776 -0.1437  0.1228  0.3912
14051TIP3    H263645   5.263   2.321  10.765 -0.2607 -1.2684 -0.5333
14052TIP3   OH263646   6.366   4.527   5.032 -0.1533 -0.2362 -0.5408
14052TIP3    H163647   6.276   4.501   5.053 -0.9255  2.2899 -0.2885
14052TIP3    H263648   6.391   4.584   5.105  1.3944 -0.3344 -0.9676
14053TIP3   OH263649   3.509   0.103  10.732 -0.0921  0.1800  0.5233
14053TIP3    H163650   3.490   0.079  10.641  1.9469  1.5814 -0.3601
14053TIP3    H263651   3.464   0.187  10.744  0.7635  0.6932  0.2916
14054TIP3   OH263652   1.416   3.325   4.995 -0.0833  0.0496  0.1368
14054TIP3    H163653   1.500   3.370   4.991 -1.8690  3.6741 -2.2439
14054TIP3    H263654   1.430   3.242   4.951  2.7468 -0.6913  2.1651
14055TIP3   OH263655   3.091   5.864   2.498  0.4371  0.5541  0.0380
14055TIP3    H163656   3.052   5.944   2.533 -0.0293  2.0600 -3.4634
14055TIP3    H263657   3.029   5.835   2.431  1.1471 -2.1501  0.4443
14056TIP3   OH263658   3.664   2.670  15.904 -0.6339  0.5773 -0.0020
14056TIP3    H163659   3.716   2.669  15.825 -0.5154 -0.9978  0.0635
14056TIP3    H263660   3.703   2.739  15.958 -1.7377  2.8527 -1.9195
14057TIP3   OH263661   3.811   3.423  11.076  0.1603  0.1600 -0.3868
14057TIP3    H163662   3.893   3.462  11.046 -0.7893  0.9406 -2.0543
14057TIP3    H263663   3.768   3.492  11.126  0.2978 -0.0920  0.0843
14058TIP3   OH263664   3.397   2.733  13.860  0.4603  0.1462 -0.4809
14058TIP3    H163665   3.391   2.711  13.953 -0.1297 -0.1967 -0.5958
14058TIP3    H263666   3.476   2.689  13.830 -0.3961 -1.3609 -0.5784
14059TIP3   OH263667   6.140   4.730   3.589 -0.3407 -0.2586  0.6240
14059TIP3    H163668   6.221   4.775   3.564 -0.8626  0.6400  0.4912
14059TIP3    H263669   6.099   4.789   3.652  0.1738 -1.7407  2.4574
14060TIP3   OH263670   4.901   3.014  12.351  0.3918  0.0909  0.0753
14060TIP3    H163671   4.930   2.973  12.433 -1.3294  0.5348  0.9472
14060TIP3    H263672   4.842   2.949  12.312  0.4209  0.2979 -0.3146
14061TIP3   OH263673   3.736   3.903  13.942  0.3817 -0.3816 -0.1165
14061TIP3    H163674   3.709   3.971  14.004  0.9954 -1.0764  0.9368
14061TIP3    H263675   3.746   3.824  13.996  0.1877 -1.1871 -1.2299
14062TIP3   OH263676   3.754   4.415   0.516 -0.1666  0.6324  0.5663
14062TIP3    H163677   3.678   4.357   0.507 -0.2376  0.7626  0.3412
14062TIP3    H263678   3.828   4.355   0.523 -0.2755  0.5074  0.6700
14063TIP3   OH263679   0.809   6.092  16.184 -0.4189 -0.5997  0.1062
14063TIP3    H163680   0.869   6.085  16.109 -1.0557  1.6611 -0.7135
14063TIP3    H263681   0.823   6.012  16.234  3.0477 -0.3644 -0.2296
14064TIP3   OH263682   0.959   0.662  12.056 -0.6606 -0.2087 -0.1917
14064TIP3    H163683   1.014   0.740  12.060 -0.7911 -0.1513  0.5330
14064TIP3    H263684   1.007   0.602  11.998 -0.1556  0.0924 -0.0865
14065TIP3   OH263685   5.686   2.783  15.534  0.3152 -0.3081  0.4500
14065TIP3    H163686   5.696   2.694  15.568  1.8486 -1.4076 -2.5361
14065TIP3    H263687   5.646   2.771  15.447 -3.0161  2.2702  1.3917
14066TIP3   OH263688   5.306   5.552   1.618  0.6503  0.0846  0.1005
14066TIP3    H163689   5.227   5.577   1.665  0.0025 -0.4678 -0.6743
14066TIP3    H263690   5.295   5.459   1.600  0.6911  0.3626 -1.4893
14067TIP3   OH263691   6.261   0.229   2.565  0.0211  0.3261 -0.1408
14067TIP3    H163692   6.291   0.165   2.500 -0.2842  2.3639 -2.4105
14067TIP3    H263693   6.281   0.314   2.526 -3.3783  1.7171  0.8252
14068TIP3   OH263694   0.335   4.865  15.833 -0.4138  0.2166 -0.1836
14068TIP3    H163695   0.285   4.824  15.904  1.5838  0.4872  1.4718
14068TIP3    H263696   0.421   4.883  15.872  0.3518  1.5102 -2.3346
14069TIP3   OH263697   6.674   2.355   6.097  0.2346  0.4164  0.0686
14069TIP3    H163698   6.595   2.310   6.069  0.8130 -0.2161 -0.5701
14069TIP3    H263699   6.644   2.415   6.166 -1.0013  1.0872 -1.0004
14070TIP3   OH263700   4.233   3.189  15.526 -0.1506  0.0745 -0.2074
14070TIP3    H163701   4.154   3.164  15.573  0.5818 -0.1739  0.9171
14070TIP3    H263702   4.245   3.281  15.546  0.4046 -0.1370  0.4796
14071TIP3   OH263703   3.927   4.594  16.379  0.3466  0.0467 -0.1915
14071TIP3    H163704   3.982   4.611  16.302  0.5899 -0.1506 -0.0637
14071TIP3    H263705   3.968   4.644  16.449 -1.0568  1.9082 -0.6278
14072TIP3   OH263706   1.223   3.700   3.353 -0.6551 -0.3152  0.1915
14072TIP3    H163707   1.132   3.697   3.326 -0.3625 -0.4062 -0.8366
14072TIP3    H263708   1.249   3.792   3.344 -0.3584 -0.4623 -0.5663
14073TIP3   OH263709   0.361   6.433  14.832 -0.2317  0.0648 -0.0502
14073TIP3    H163710   0.404   6.352  14.859 -1.8386 -0.7731  0.0958
14073TIP3    H263711   0.305   6.407  14.759  0.3856  1.3679 -1.0450
14074TIP3   OH263712   5.804   2.542  17.281  0.1747  0.0813 -0.0303
14074TIP3    H163713   5.810   2.599  17.204 -1.7485  2.1380  1.2034
14074TIP3    H263714   5.894   2.512  17.297  0.5518 -0.8923 -3.3322
14075TIP3   OH263715   2.182   2.495   4.920  0.2145 -0.2320 -0.0128
14075TIP3    H163716   2.098   2.449   4.921  0.1480 -0.1457 -0.9859
14075TIP3    H263717   2.209   2.497   5.012 -0.9046 -0.1467  0.3246
14076TIP3   OH263718   3.212   5.109   3.298  0.3454  0.2154 -0.1111
14076TIP3    H163719   3.279   5.162   3.342 -0.7318 -0.4032  2.4231
14076TIP3    H263720   3.193   5.038   3.359 -0.5992 -1.2618 -2.0175
14077TIP3   OH263721   2.392   0.294   1.292 -0.0820 -0.0267  0.1988
14077TIP3    H163722   2.397   0.361   1.361  0.7007 -1.3668  1.4955
14077TIP3    H263723   2.468   0.311   1.236 -0.2120  0.5162  0.1822
14078TIP3   OH263724   2.804   4.681   2.190  0.0490  0.4116 -0.1153
14078TIP3    H163725   2.771   4.723   2.111 -1.7834 -1.5802 -0.4707
14078TIP3    H263726   2.772   4.591   2.186 -0.8999  0.4406  3.3195
14079TIP3   OH263727   5.573   5.739   4.159 -0.1582  0.0651 -0.2031
14079TIP3    H163728   5.608   5.790   4.086 -2.2894  2.2984  0.2336
14079TIP3    H263729   5.522   5.669   4.118  0.0340  0.2879 -0.8246
14080TIP3   OH263730   3.530   3.141   3.797  0.0075  0.4083 -0.3193
14080TIP3    H163731   3.459   3.142   3.861  1.0928 -0.9735  1.0065
14080TIP3    H263732   3.515   3.218   3.743 -1.7810  0.8338  0.6963
14081TIP3   OH263733   6.616   6.574  14.856  0.4952 -0.0505 -0.0732
14081TIP3    H163734   6.688   6.513  14.862 -0.5052 -1.2720 -0.0864
14081TIP3    H263735   6.601   6.584  14.762  0.6017  0.1455 -0.0695
14082TIP3   OH263736   5.507   6.791   3.293  0.4458  0.3905  0.1998
14082TIP3    H163737   5.447   6.811   3.221 -0.3078  0.3116  0.8063
14082TIP3    H263738   5.451   6.777   3.369  1.1191 -1.0843  0.4651
14083TIP3   OH263739   3.567   2.729  13.597  0.4678 -0.4005  0.1184
14083TIP3    H163740   3.656   2.694  13.593  0.1134 -1.2309 -1.5940
14083TIP3    H263741   3.526   2.699  13.516 -0.8590  1.3891  0.0640
14084TIP3   OH263742   1.580   2.244  10.763  0.0186  0.2383 -0.4094
14084TIP3    H163743   1.490   2.275  10.758 -0.3590 -0.8357 -0.3959
14084TIP3    H263744   1.599   2.242  10.857 -0.9845 -2.3876 -0.1990
14085TIP3   OH263745   3.408   0.323   1.159 -0.0895 -0.2131  0.3671
14085TIP3    H163746   3.401   0.398   1.100  0.2773  0.2441  0.8983
14085TIP3    H263747   3.409   0.361   1.247 -1.3927 -0.9410  0.7131
14086TIP3   OH263748   3.959   4.422  11.636 -0.0558  0.3840  0.0473
14086TIP3    H163749   3.868   4.392  11.643  0.1512 -0.2673  0.0372
14086TIP3    H263750   3.977   4.421  11.542  0.1899 -0.2185  0.0931
14087TIP3   OH263751   2.396   4.015  13.919  0.2066  0.6198 -0.2121
14087TIP3    H163752   2.367   4.065  13.842 -2.6241 -0.3057  0.1515
14087TIP3    H263753   2.386   3.924  13.894  2.3843  0.1916  0.2218
14088TIP3   OH263754   0.881   0.368   1.433 -0.0895  0.0249  0.1674
14088TIP3    H163755   0.884   0.381   1.338 -1.7598  1.2044  0.2362
14088TIP3    H263756   0.836   0.284   1.445 -1.5466  0.7313 -0.0964
14089TIP3   OH263757   0.271   6.564   1.789 -0.3023 -0.0967 -0.2124
14089TIP3    H163758   0.234   6.629   1.849  2.1781  0.6824  0.6414
14089TIP3    H263759   0.274   6.608   1.704 -0.9354 -0.0208 -0.1949
14090TIP3   OH263760   2.509   5.507  13.113 -0.2075  0.3700 -0.2160
14090TIP3    H163761   2.481   5.585  13.066 -0.1656 -0.2150 -1.2460
14090TIP3    H263762   2.439   5.443  13.099 -0.0149  0.0566  0.1921
14091TIP3   OH263763   0.049   4.126  16.152 -0.0148  0.0623 -0.2390
14091TIP3    H163764  -0.023   4.189  16.153  1.1670  1.4605  0.2812
14091TIP3    H263765   0.064   4.108  16.059 -0.4994  0.3994 -0.3837
14092TIP3   OH263766   2.563   5.304  15.658  0.2811  0.6983  0.3886
14092TIP3    H163767   2.523   5.282  15.574 -1.1366  1.8267  0.7274
14092TIP3    H263768   2.651   5.334  15.635 -1.0317  3.8582 -1.1183
14093TIP3   OH263769   6.385   1.740   3.234  0.1810 -0.3771  0.2225
14093TIP3    H163770   6.350   1.781   3.154  0.1915 -1.0718 -0.1459
14093TIP3    H263771   6.312   1.689   3.268  0.3573 -0.5546  0.3338
14094TIP3   OH263772   3.772   2.620   0.411 -0.3574 -0.1054  0.7164
14094TIP3    H163773   3.815   2.661   0.336 -2.4154 -1.4101 -1.3311
14094TIP3    H263774   3.731   2.692   0.458  0.9118  0.7307  0.5960
14095TIP3   OH263775   1.283   0.096   0.580  0.2662 -0.2210 -0.1936
14095TIP3    H163776   1.370   0.070   0.548  0.5022 -0.9809  1.0091
14095TIP3    H263777   1.300   0.134   0.667 -0.2992  2.2528 -1.0851
14096TIP3   OH263778   2.237   0.034  16.241  0.1358  0.6541  0.2024
14096TIP3    H163779   2.325   0.008  16.267 -0.4257 -0.6348  0.8966
14096TIP3    H263780   2.183  -0.044  16.256 -0.8683  0.9639 -1.5399
14097TIP3   OH263781   6.640   0.434  11.813  0.5672 -0.3923  0.2511
14097TIP3    H163782   6.550   0.461  11.829  0.2218 -0.8558 -0.8340
14097TIP3    H263783   6.684   0.513  11.781 -0.1287 -0.7298 -1.7114
14098TIP3   OH263784   1.237   3.543   5.250 -0.7773 -0.0418 -0.0730
14098TIP3    H163785   1.164   3.512   5.198 -1.8054 -0.0237  1.3165
14098TIP3    H263786   1.237   3.638   5.238 -0.1205 -0.1687 -1.1487
14099TIP3   OH263787   0.952   6.284  14.050 -0.4259 -0.0760  0.5322
14099TIP3    H163788   1.032   6.255  14.006 -0.0405 -0.0880  1.2427
14099TIP3    H263789   0.976   6.368  14.090 -0.8009 -0.0294  0.6622
14100TIP3   OH263790   0.907   5.264   0.973  0.1814  0.2243  0.3992
14100TIP3    H163791   0.979   5.207   0.999  1.7813  0.6568 -2.6406
14100TIP3    H263792   0.843   5.206   0.933 -1.3537 -0.1642  3.1225
14101TIP3   OH263793   3.295   3.975  13.541  0.1985  0.3490 -0.4405
14101TIP3    H163794   3.275   4.006  13.452 -0.3163 -2.0745 -1.2728
14101TIP3    H263795   3.340   3.892  13.527 -1.4103 -0.9610  1.5192
14102TIP3   OH263796   1.120   1.291  16.294  0.3087 -0.6272  0.0232
14102TIP3    H163797   1.162   1.369  16.329 -0.2543 -0.4278  0.2693
14102TIP3    H263798   1.038   1.283  16.343  0.3348 -1.3463 -0.0327
14103TIP3   OH263799   1.824   6.728  16.036  0.1646  0.6062  0.1828
14103TIP3    H163800   1.884   6.654  16.047  1.2120  1.3967 -0.0509
14103TIP3    H263801   1.738   6.688  16.029  0.6997 -0.5866  0.1768
14104TIP3   OH263802   5.125   3.975  17.249  0.1402 -0.3340  0.0444
14104TIP3    H163803   5.165   3.891  17.226 -3.1669 -2.1357  0.2821
14104TIP3    H263804   5.087   4.007  17.167 -2.7178 -1.5800  0.7713
14105TIP3   OH263805   1.776   1.716   0.118  0.6258 -0.3104 -0.4290
14105TIP3    H163806   1.721   1.717   0.197 -0.9802 -1.0041 -1.4732
14105TIP3    H263807   1.842   1.784   0.134  0.3915 -0.4800  1.5219
14106TIP3   OH263808   6.334   4.505  13.319  0.0446 -0.8024 -0.4821
14106TIP3    H163809   6.314   4.550  13.401  0.3105 -1.0343 -0.2885
14106TIP3    H263810   6.325   4.573  13.252 -1.0934 -0.8363 -0.3740
14107TIP3   OH263811   0.334   6.729   1.572 -0.7188 -0.3026  0.0560
14107TIP3    H163812   0.269   6.791   1.603 -1.2924 -1.3472  1.0039
14107TIP3    H263813   0.334   6.739   1.477 -0.4227  1.4846  0.2026
14108TIP3   OH263814   4.187   5.055  13.010 -0.0947 -0.5388  0.2718
14108TIP3    H163815   4.162   5.039  12.919 -0.8927  0.8628  0.2136
14108TIP3    H263816   4.262   5.114  13.005 -1.7705  1.7190  0.4935
14109TIP3   OH263817   2.661   5.459   6.259 -0.5524 -0.1317 -1.3766
14109TIP3    H163818   2.671   5.380   6.312 -1.2860  1.8286  2.0190
14109TIP3    H263819   2.570   5.484   6.272  0.2703  2.5684 -0.2139
14110TIP3   OH263820   3.914   3.153   0.790 -0.0737  0.3831 -0.3698
14110TIP3    H163821   3.898   3.063   0.759  0.6722  0.0001  0.3276
14110TIP3    H263822   3.942   3.142   0.881  0.0797  1.3296 -0.3003
14111TIP3   OH263823   5.125   3.118  16.535 -0.0396 -0.0104 -0.1602
14111TIP3    H163824   5.072   3.169  16.473 -1.8537  0.5896  1.7757
14111TIP3    H263825   5.133   3.032  16.494 -1.5076  0.2548 -1.0849
14112TIP3   OH263826   3.963   1.203   4.079  0.0110  0.4165 -0.0681
14112TIP3    H163827   4.035   1.185   4.139 -1.9104 -0.0108  2.2332
14112TIP3    H263828   4.004   1.204   3.992  2.7617  0.2488  1.1312
14113TIP3   OH263829   3.386   5.830   0.476 -0.2463 -0.2168 -0.2371
14113TIP3    H163830   3.336   5.902   0.514 -0.0430 -0.1817 -0.0312
14113TIP3    H263831   3.339   5.807   0.396  0.8044  1.5448 -1.4483
14114TIP3   OH263832   5.246   6.457  15.892  0.1382 -0.2908  0.3510
14114TIP3    H163833   5.239   6.548  15.864 -0.5040 -1.3597 -3.5899
14114TIP3    H263834   5.155   6.426  15.893  0.5196 -1.7128 -2.0182
14115TIP3   OH263835   5.068   4.712   5.333 -0.1060  0.2802  0.2220
14115TIP3    H163836   5.111   4.637   5.374 -0.1574 -0.5745 -1.1969
14115TIP3    H263837   5.045   4.770   5.405 -0.1183 -1.0981  1.3647
14116TIP3   OH263838   0.594   2.624  16.952 -0.5399 -0.1795 -0.5436
14116TIP3    H163839   0.638   2.544  16.978  1.2618  0.9864  0.1842
14116TIP3    H263840   0.599   2.681  17.029  2.0293  2.1599 -2.2582
14117TIP3   OH263841   2.166   1.484   0.818 -0.0479 -0.4789  0.2366
14117TIP3    H163842   2.129   1.396   0.816 -0.3552 -0.3501 -0.0931
14117TIP3    H263843   2.126   1.525   0.895  1.6726 -1.2735  1.6088
14118TIP3   OH263844   4.940   3.428  11.876  0.0757  0.6853  0.0160
14118TIP3    H163845   4.991   3.487  11.821 -0.5429  0.9194 -0.3101
14118TIP3    H263846   4.883   3.382  11.815  0.9011 -0.6327  0.1961
14119TIP3   OH263847   5.255   6.428   1.282 -0.5936  0.0986  0.0090
14119TIP3    H163848   5.271   6.349   1.230  1.7844  0.0316  0.7237
14119TIP3    H263849   5.267   6.400   1.372  0.7682  1.3514  0.2444
14120TIP3   OH263850   2.164   1.171  11.176  0.0459  0.0762  0.1250
14120TIP3    H163851   2.152   1.217  11.260 -0.9927 -1.1618  0.6897
14120TIP3    H263852   2.079   1.180  11.132  0.1985 -0.3271 -0.2562
14121TIP3   OH263853   4.901   0.349  11.513 -0.1679 -0.4408 -0.0724
14121TIP3    H163854   4.910   0.296  11.593 -1.4289  1.2353  1.2672
14121TIP3    H263855   4.822   0.315  11.471  0.6489 -1.5091 -0.8112
14122TIP3   OH263856   1.952   4.860   2.832  0.3058  0.0510 -0.3994
14122TIP3    H163857   1.975   4.900   2.916  0.1073  0.2205 -0.4271
14122TIP3    H263858   2.020   4.794   2.818 -1.0391 -1.7371  1.1073
14123TIP3   OH263859   1.527   0.490   0.270 -0.0862  0.3970 -0.5655
14123TIP3    H163860   1.499   0.510   0.181  1.0127 -1.2058 -1.3043
14123TIP3    H263861   1.490   0.404   0.289 -1.2233  1.1738  0.9705
14124TIP3   OH263862   0.161   0.909   1.911  0.6939  0.2458 -0.1661
14124TIP3    H163863   0.127   0.881   1.826  0.3570 -0.2023  0.1139
14124TIP3    H263864   0.249   0.871   1.915 -0.3311 -2.1525  0.8750
14125TIP3   OH263865   5.036   4.707   1.267  0.0971 -0.4618 -0.1889
14125TIP3    H163866   4.955   4.682   1.222 -0.9680  0.4474  1.1082
14125TIP3    H263867   5.015   4.696   1.360  1.5088 -0.2716  0.1710
14126TIP3   OH263868   5.642   6.614  15.864  0.0618 -0.0541  0.1232
14126TIP3    H163869   5.580   6.651  15.801 -0.5600  0.3080  0.9334
14126TIP3    H263870   5.721   6.598  15.812 -0.8451 -0.9619 -1.0303
14127TIP3   OH263871   6.617   4.076   1.351 -0.0876  0.0211  0.0072
14127TIP3    H163872   6.602   4.027   1.431 -1.2897  1.2689  0.5977
14127TIP3    H263873   6.641   4.010   1.286 -0.0697 -1.1275  1.1473
14128TIP3   OH263874   1.746   1.285  13.689 -0.6132  0.8862 -0.3800
14128TIP3    H163875   1.829   1.290  13.640 -1.6651  1.8202 -2.2021
14128TIP3    H263876   1.724   1.192  13.688  0.6051  0.5614  0.5147
14129TIP3   OH263877   2.839   1.717   1.536 -0.0797 -0.2291 -0.0974
14129TIP3    H163878   2.849   1.781   1.466  1.1566  1.5437  1.5921
14129TIP3    H263879   2.927   1.679   1.547 -0.9833 -3.1184 -1.7674
14130TIP3   OH263880   4.329   5.514  15.391 -0.3744 -0.4210 -0.1550
14130TIP3    H163881   4.404   5.456  15.385  0.3237  0.5497 -1.4406
14130TIP3    H263882   4.283   5.487  15.470  2.2651  0.0646  1.6534
14131TIP3   OH263883   0.336   4.548   2.777 -0.3221 -0.0905 -0.1527
14131TIP3    H163884   0.396   4.539   2.702 -0.1580 -1.5307  0.1263
14131TIP3    H263885   0.249   4.556   2.738 -0.3398 -1.7785 -0.5007
14132TIP3   OH263886   0.493   1.866   6.120  0.0327 -0.3099 -0.3122
14132TIP3    H163887   0.565   1.817   6.160  0.5872 -1.4085 -2.4862
14132TIP3    H263888   0.488   1.947   6.170  1.7366 -0.8964  0.8960
14133TIP3   OH263889   6.445   1.791   0.698  0.3274  0.4712 -0.6806
14133TIP3    H163890   6.384   1.863   0.683  0.4475  1.0605  1.3064
14133TIP3    H263891   6.516   1.806   0.635  0.3014  2.0728 -0.3758
14134TIP3   OH263892   2.071   5.981  14.305 -0.1746 -0.4119 -0.1116
14134TIP3    H163893   2.112   5.950  14.386 -1.2325 -1.1583  0.1666
14134TIP3    H263894   2.128   5.948  14.235  0.7848  0.3031  0.3174
14135TIP3   OH263895   0.507   5.526   2.876  0.5767 -0.3573 -0.7584
14135TIP3    H163896   0.598   5.512   2.903 -0.1341 -0.2922  1.8896
14135TIP3    H263897   0.465   5.567   2.952 -2.0842 -1.9523 -1.2488
14136TIP3   OH263898   2.741   1.302   0.291  0.2420  0.0641  0.1049
14136TIP3    H163899   2.740   1.356   0.212 -0.9568 -0.6054 -0.3565
14136TIP3    H263900   2.670   1.337   0.345 -1.4302 -1.7917 -0.7560
14137TIP3   OH263901   4.118   6.292  12.696 -0.3450 -0.0469 -0.1577
14137TIP3    H163902   4.201   6.254  12.722  0.3982  0.8076 -1.2011
14137TIP3    H263903   4.108   6.369  12.752 -0.7022 -0.4224  0.3129
14138TIP3   OH263904   1.839   1.067  15.543  0.1632  0.7108  0.4225
14138TIP3    H163905   1.917   1.101  15.588  1.4018  0.2605 -1.2746
14138TIP3    H263906   1.824   1.129  15.472 -0.3605  0.1854  0.0687
14139TIP3   OH263907   0.711   6.247   0.084  0.3142  0.7893  0.0785
14139TIP3    H163908   0.643   6.304   0.047 -0.1608  0.6268  0.6893
14139TIP3    H263909   0.667   6.164   0.099  0.8562  0.4327 -0.2555
14140TIP3   OH263910   4.783   1.556  14.980  0.4071 -0.0389  0.0436
14140TIP3    H163911   4.792   1.586  15.070  1.6576  0.2858 -0.1768
14140TIP3    H263912   4.697   1.588  14.952  0.4048  0.6438  0.8181
14141TIP3   OH263913   5.962   0.258   1.666 -0.4118 -0.0651  0.2471
14141TIP3    H163914   5.922   0.259   1.753  0.5408 -0.0202  0.6947
14141TIP3    H263915   6.045   0.212   1.677 -1.4210 -2.3903 -1.1815
14142TIP3   OH263916   4.862   6.295  12.678  1.0648 -0.4029 -0.2869
14142TIP3    H163917   4.813   6.372  12.707  1.7291 -0.2990  0.6353
14142TIP3    H263918   4.818   6.266  12.599 -1.4334 -1.2552  1.3093
14143TIP3   OH263919   1.949   1.818   1.527  0.2068  0.6229 -0.2686
14143TIP3    H163920   2.042   1.820   1.549 -0.0946  1.3379  1.0139
14143TIP3    H263921   1.912   1.894   1.571 -1.1441 -0.1474 -0.0089
14144TIP3   OH263922   1.825   0.521   3.177  0.0545  0.0775 -0.1371
14144TIP3    H163923   1.818   0.577   3.254 -0.0706  0.6936 -0.5818
14144TIP3    H263924   1.828   0.432   3.211  1.3777  0.3934  0.6537
14145TIP3   OH263925   5.031   1.275  15.278 -0.7102 -0.2330 -0.2465
14145TIP3    H163926   5.011   1.351  15.223 -2.1802 -0.6820 -0.3679
14145TIP3    H263927   4.948   1.230  15.288 -0.0996 -1.1731  0.8394
14146TIP3   OH263928   6.670   1.978   4.296 -0.2296 -0.2513  0.6203
14146TIP3    H163929   6.689   1.928   4.375  1.9168  1.4176  1.2308
14146TIP3    H263930   6.695   1.920   4.224 -2.0251 -1.7076  1.0867
14147TIP3   OH263931   5.607   3.583  12.939  0.1377 -0.3641 -0.0650
14147TIP3    H163932   5.601   3.603  12.845 -0.8554 -3.3560 -0.7448
14147TIP3    H263933   5.516   3.575  12.968  0.4266  0.8556  1.2935
14148TIP3   OH263934   5.447   5.339  11.641 -0.2384  0.3084  0.0007
14148TIP3    H163935   5.410   5.398  11.576 -0.1220  1.7996  1.2360
14148TIP3    H263936   5.490   5.397  11.705  0.4476 -1.1423  0.9090
14149TIP3   OH263937   3.707   1.691   0.902  0.0498 -0.0870 -0.0112
14149TIP3    H163938   3.787   1.641   0.885 -1.4984 -2.1631 -1.6668
14149TIP3    H263939   3.736   1.782   0.903  2.5713 -0.8166  0.4142
14150TIP3   OH263940   3.745   0.981   3.257  0.1238  0.3752 -0.0074
14150TIP3    H163941   3.822   0.972   3.312 -0.6033  0.3523  1.0374
14150TIP3    H263942   3.776   1.029   3.180  1.8988 -2.3597 -1.1752
14151TIP3   OH263943   6.477   3.668   1.265 -0.1533 -0.5385  0.3162
14151TIP3    H163944   6.400   3.663   1.321 -1.1012  0.8549 -0.8047
14151TIP3    H263945   6.549   3.690   1.324 -0.5741 -1.9169  1.3810
14152TIP3   OH263946   1.313   0.634  17.160 -0.3078 -0.7807  0.5304
14152TIP3    H163947   1.276   0.722  17.169  1.9484  0.5027 -1.6506
14152TIP3    H263948   1.376   0.627  17.231  0.7599  0.1140 -0.2901
14153TIP3   OH263949   0.403   3.100  13.223  0.3917 -0.5729  0.1423
14153TIP3    H163950   0.480   3.153  13.205 -0.1441  0.3200  0.4257
14153TIP3    H263951   0.335   3.163  13.247 -0.7956 -1.2178 -1.3027
14154TIP3   OH263952   5.278   4.931  16.676  0.5282 -0.3070  0.8805
14154TIP3    H163953   5.207   4.885  16.721  2.1736 -2.2586  1.6615
14154TIP3    H263954   5.351   4.928  16.737  1.7812  0.1665 -0.5263
14155TIP3   OH263955   2.338   3.516  14.158  0.1998 -0.2082 -0.1455
14155TIP3    H163956   2.380   3.511  14.072 -1.9100 -0.9694 -1.1891
14155TIP3    H263957   2.345   3.427  14.193 -0.3709 -0.2970 -0.2527
14156TIP3   OH263958   6.109   0.201  12.771  0.0289  0.6426  0.5635
14156TIP3    H163959   6.016   0.224  12.779  0.2157  1.3428  0.7843
14156TIP3    H263960   6.146   0.223  12.856 -0.0156 -1.7196  1.2664
14157TIP3   OH263961   1.650   4.655  15.486 -0.1074  0.3403 -0.2969
14157TIP3    H163962   1.606   4.730  15.525 -0.2890  0.4145 -0.6426
14157TIP3    H263963   1.579   4.600  15.453  0.0607  1.2175 -2.2753
14158TIP3   OH263964   4.251   3.650   3.829  0.5842 -0.1441 -0.3634
14158TIP3    H163965   4.298   3.643   3.912  1.7210 -0.1546 -0.9857
14158TIP3    H263966   4.286   3.579   3.775 -0.6096 -0.5479 -0.6407
14159TIP3   OH263967   0.688   4.873   0.429 -0.0402 -0.0361  0.0839
14159TIP3    H163968   0.721   4.962   0.416  0.1316 -0.0120  0.6552
14159TIP3    H263969   0.755   4.830   0.482  0.6787 -1.0112 -1.5213
14160TIP3   OH263970   3.519   6.520  13.724  0.5363  0.5265  0.0372
14160TIP3    H163971   3.570   6.452  13.680 -0.8036  0.3473 -1.3417
14160TIP3    H263972   3.536   6.600  13.673 -0.9313  0.3483 -0.7717
14161TIP3   OH263973   1.282   1.212   4.162  0.2879 -0.3016 -0.2636
14161TIP3    H163974   1.274   1.174   4.075  0.3634  1.2347 -0.9615
14161TIP3    H263975   1.376   1.226   4.173  0.1270  1.3440 -0.7713
14162TIP3   OH263976   5.886   2.280  14.578  0.4500 -0.0456 -0.3028
14162TIP3    H163977   5.909   2.347  14.642  0.0145 -0.7003  0.5649
14162TIP3    H263978   5.966   2.267  14.527  0.4407  1.3671 -0.7163
14163TIP3   OH263979   0.182   0.874   1.408 -0.4393  0.2015  0.1615
14163TIP3    H163980   0.124   0.826   1.349  1.2824  0.3864 -1.8197
14163TIP3    H263981   0.249   0.911   1.350  2.4593 -1.1549  2.3725
14164TIP3   OH263982   5.825   4.551   3.334  0.5019  0.1006 -0.3661
14164TIP3    H163983   5.898   4.613   3.330  2.3203 -1.9199 -0.2677
14164TIP3    H263984   5.751   4.600   3.299  2.4514  1.4613 -2.9496
14165TIP3   OH263985   5.607   4.329  11.313 -0.4481 -0.1247 -0.2606
14165TIP3    H163986   5.629   4.322  11.406 -1.2016 -0.9217 -0.1342
14165TIP3    H263987   5.558   4.410  11.306 -0.0867  0.1194 -0.0305
14166TIP3   OH263988   1.957   4.326  14.411  0.3979  0.3751 -0.3625
14166TIP3    H163989   1.992   4.243  14.380 -1.1315 -0.2101 -0.6251
14166TIP3    H263990   2.033   4.375  14.441  1.3377 -1.0845 -0.2790
14167TIP3   OH263991   5.935   0.677   2.451 -0.2200 -0.4980  0.2811
14167TIP3    H163992   5.885   0.640   2.524 -2.1124  2.1587  0.4958
14167TIP3    H263993   5.904   0.629   2.374 -0.5656 -1.1831  0.8335
14168TIP3   OH263994   5.850   0.979   0.678 -0.2626 -0.1628 -0.0924
14168TIP3    H163995   5.899   0.989   0.596 -1.2561  0.8574 -0.5963
14168TIP3    H263996   5.887   1.045   0.736 -2.2135  2.0311 -1.1218
14169TIP3   OH263997   5.187   6.071  11.467 -0.5087 -0.4204  0.1922
14169TIP3    H163998   5.195   6.038  11.378  2.9708  0.4835  0.0113
14169TIP3    H263999   5.276   6.099  11.490 -1.5186  0.5213  3.5131
14170TIP3   OH264000   6.809   5.551  11.790  0.0558 -0.4223  0.5549
14170TIP3    H164001   6.852   5.579  11.709  1.2363 -0.9296  0.9736
14170TIP3    H264002   6.799   5.632  11.840  1.3269 -0.3852  0.7898
14171TIP3   OH264003   0.737   1.007  16.701 -0.2240 -0.5110  0.0777
14171TIP3    H164004   0.722   1.006  16.607 -4.0530 -0.0418  0.5289
14171TIP3    H264005   0.824   1.045  16.711 -0.9656  2.5556 -3.2018
14172TIP3   OH264006   1.970   3.625   4.785  1.1658  0.2295 -0.4904
14172TIP3    H164007   2.064   3.615   4.768  0.7930  0.5211 -3.3015
14172TIP3    H264008   1.931   3.548   4.744  0.0590  1.1531 -1.2270
14173TIP3   OH264009   5.400   4.648   0.956  0.2725  0.5160 -0.1354
14173TIP3    H164010   5.342   4.575   0.982  0.9475  0.4606  1.3492
14173TIP3    H264011   5.373   4.669   0.867 -2.1084  0.5500  0.5045
14174TIP3   OH264012   6.726   1.716   0.089  0.0280 -0.5873  0.5531
14174TIP3    H164013   6.680   1.634   0.105  1.9029 -2.3215 -2.0558
14174TIP3    H264014   6.819   1.692   0.089  0.5680  1.0334 -2.3358
14175TIP3   OH264015   6.256   0.198  13.244 -0.2035 -0.0468  0.7794
14175TIP3    H164016   6.170   0.165  13.217  0.5305 -0.9768 -0.5142
14175TIP3    H264017   6.301   0.122  13.281 -0.3176  0.6868  2.5088
14176TIP3   OH264018   4.656   4.361  12.113  0.6640 -0.4289  0.0600
14176TIP3    H164019   4.638   4.447  12.151  1.2509 -0.8881  1.4606
14176TIP3    H264020   4.689   4.380  12.025 -0.4762  0.6931 -0.1489
14177TIP3   OH264021   5.911   4.071  16.714 -0.5048 -0.5739  0.3960
14177TIP3    H164022   5.973   4.089  16.643 -1.0610  0.1167  0.0780
14177TIP3    H264023   5.967   4.052  16.790  0.0950 -0.4306 -0.0040
14178TIP3   OH264024   1.718   1.381   6.149  0.2214  0.1592 -0.8715
14178TIP3    H164025   1.744   1.289   6.151 -0.9921 -0.2647 -2.8524
14178TIP3    H264026   1.623   1.380   6.147  0.1774  1.4704 -0.8341
14179TIP3   OH264027   1.377   4.334  14.095 -0.4425 -0.2396  0.4586
14179TIP3    H164028   1.337   4.304  14.177 -1.7917 -1.3469 -0.5385
14179TIP3    H264029   1.371   4.258  14.037  3.5181 -0.6159  0.2967
14180TIP3   OH264030   2.960   5.380  14.465 -0.4409  0.1439 -0.4882
14180TIP3    H164031   2.904   5.445  14.424 -0.3073  0.3821 -0.2937
14180TIP3    H264032   3.000   5.333  14.391  0.8008  1.4160 -0.6811
14181TIP3   OH264033   0.347   3.049  11.479 -0.8458  0.3299  0.6090
14181TIP3    H164034   0.347   2.958  11.449  0.0440  0.3080  0.6241
14181TIP3    H264035   0.397   3.095  11.411 -0.7886  0.6947  0.8984
14182TIP3   OH264036   1.283   3.371  17.213 -0.1140  0.6282  0.6092
14182TIP3    H164037   1.196   3.350  17.179 -0.1314 -0.2068  1.1383
14182TIP3    H264038   1.343   3.319  17.160 -0.0778 -0.0571  1.2973
14183TIP3   OH264039   3.435   0.535  17.005  0.3927 -0.2882  0.4377
14183TIP3    H164040   3.450   0.489  17.087 -1.5894 -0.5883  0.6596
14183TIP3    H264041   3.363   0.489  16.963 -0.8199  1.7748  0.0738
14184TIP3   OH264042   6.411   1.109  11.796 -0.2576 -0.2157  0.3697
14184TIP3    H164043   6.491   1.153  11.825  0.1230 -1.6024  1.5666
14184TIP3    H264044   6.367   1.084  11.877 -1.8628  0.3715 -0.2688
14185TIP3   OH264045   5.861   0.799  14.808 -0.0122 -0.4498 -0.4690
14185TIP3    H164046   5.813   0.850  14.874  0.6628 -0.8603  0.3656
14185TIP3    H264047   5.793   0.748  14.763 -0.3743 -1.1004  0.7599
14186TIP3   OH264048   1.771   3.768   3.165 -0.2743  0.1693 -0.0494
14186TIP3    H164049   1.700   3.831   3.160 -0.3768 -0.0360 -3.4526
14186TIP3    H264050   1.729   3.683   3.157  0.1931 -0.1155  0.4075
14187TIP3   OH264051   0.346   4.923   2.464 -0.1790 -0.0739 -0.0694
14187TIP3    H164052   0.295   4.994   2.425 -0.5389 -0.8963 -1.1269
14187TIP3    H264053   0.428   4.923   2.416 -0.7742 -1.3418 -1.1525
14188TIP3   OH264054   6.715   5.158   1.429  0.1920  0.1697 -0.3217
14188TIP3    H164055   6.661   5.165   1.508 -1.1353 -0.8792 -1.0812
14188TIP3    H264056   6.793   5.111   1.457 -0.7388 -1.1324  0.1839
14189TIP3   OH264057   2.734   2.728  10.900 -0.4812 -0.2735 -0.0022
14189TIP3    H164058   2.784   2.791  10.847 -1.7352  0.9812  0.2613
14189TIP3    H264059   2.765   2.643  10.870  1.0093  0.4460 -0.6310
14190TIP3   OH264060   2.125   0.421   4.454 -0.2098 -0.0646  0.7550
14190TIP3    H164061   2.148   0.329   4.470 -1.5008 -0.7294 -0.9218
14190TIP3    H264062   2.206   0.469   4.472  1.1369 -1.7706 -0.4048
14191TIP3   OH264063   3.897   3.580  11.467  0.6743 -0.0927  0.2842
14191TIP3    H164064   3.835   3.649  11.491  0.3170  0.5117 -2.1406
14191TIP3    H264065   3.875   3.507  11.526 -3.3605 -0.4230 -1.3021
14192TIP3   OH264066   0.410   2.565  15.144  0.2261 -0.2878  0.4933
14192TIP3    H164067   0.400   2.476  15.177  1.7155 -1.2483 -1.4222
14192TIP3    H264068   0.489   2.562  15.090 -0.2884  1.9296 -0.4978
14193TIP3   OH264069   5.581   2.391  15.178  0.7035  0.2858  0.3439
14193TIP3    H164070   5.588   2.321  15.113 -0.3653  0.1394  0.3642
14193TIP3    H264071   5.533   2.461  15.132  1.5631  0.9243  0.3917
14194TIP3   OH264072   2.434   3.437   6.585 -0.2861  0.1103 -0.4063
14194TIP3    H164073   2.463   3.347   6.572  1.0311  0.2309  1.3711
14194TIP3    H264074   2.340   3.429   6.603  0.4718 -1.5597  4.3001
14195TIP3   OH264075   2.780   4.669  10.683 -0.0425 -0.1582  0.2968
14195TIP3    H164076   2.742   4.662  10.595 -1.4355  1.8432  0.6840
14195TIP3    H264077   2.804   4.761  10.691 -1.3336  0.0418  2.5418
14196TIP3   OH264078   6.062   0.591   4.394 -0.0776 -0.4628 -0.5866
14196TIP3    H164079   5.968   0.599   4.409  0.2052  0.9985  0.6652
14196TIP3    H264080   6.086   0.507   4.433 -0.4789  0.3142  1.4645
14197TIP3   OH264081   4.564   2.938   3.481 -0.0902 -0.1124 -0.0618
14197TIP3    H164082   4.588   2.847   3.465 -0.3365  0.2035 -2.6727
14197TIP3    H264083   4.648   2.983   3.493  0.0130 -0.7044  1.7446
14198TIP3   OH264084   1.267   6.607   3.665  0.7390 -0.5646  0.0106
14198TIP3    H164085   1.349   6.590   3.711  0.7768 -2.0572 -0.5625
14198TIP3    H264086   1.212   6.531   3.687  0.5970 -1.0953 -2.0208
14199TIP3   OH264087   6.588   4.109  13.700 -0.3406  0.0716  0.1083
14199TIP3    H164088   6.494   4.102  13.712 -0.4649  2.5831  1.0847
14199TIP3    H264089   6.625   4.045  13.761 -1.3871 -0.1939  0.4800
14200TIP3   OH264090   1.979   0.733   3.399 -0.3086  0.0774 -0.2246
14200TIP3    H164091   1.887   0.725   3.422 -0.0974 -3.3658 -0.0624
14200TIP3    H264092   2.017   0.788   3.468 -1.8636 -0.1211  0.8299
14201TIP3   OH264093   3.420   6.272   4.081  0.8836 -0.1219 -0.2044
14201TIP3    H164094   3.427   6.320   3.998  0.8935 -0.5824 -0.4755
14201TIP3    H264095   3.386   6.186   4.056  0.6285 -0.1736  0.3033
14202TIP3   OH264096   3.106   0.622  13.916  0.1618 -0.2571 -0.4948
14202TIP3    H164097   3.033   0.598  13.858 -2.1031  0.1876  1.9599
14202TIP3    H264098   3.152   0.691  13.869 -0.7729 -0.7887 -2.3026
14203TIP3   OH264099   1.520   1.250  10.368 -0.1728 -0.2720 -0.2921
14203TIP3    H164100   1.429   1.256  10.399 -0.3684 -0.7254 -0.7562
14203TIP3    H264101   1.548   1.162  10.392 -0.2888 -0.5929 -1.2602
14204TIP3   OH264102   5.447   2.455   2.997  0.0164 -0.2964  0.4774
14204TIP3    H164103   5.381   2.518   3.025  0.4885 -0.1803  1.3840
14204TIP3    H264104   5.397   2.384   2.958 -0.4643  1.0837 -1.5507
14205TIP3   OH264105   5.920   0.999  14.603  0.2022 -0.4622 -0.5473
14205TIP3    H164106   5.868   0.963  14.675 -0.1593 -0.1649 -0.6547
14205TIP3    H264107   5.956   1.081  14.638 -0.4842  0.0051 -0.8948
14206TIP3   OH264108   6.286   6.060   1.133 -0.5640  0.6170 -0.0567
14206TIP3    H164109   6.266   6.136   1.187 -0.8410  0.5667 -0.0836
14206TIP3    H264110   6.373   6.032   1.161 -0.5846  0.7676  0.1589
14207TIP3   OH264111   0.420   1.517   3.429 -0.3223  0.3947 -0.0101
14207TIP3    H164112   0.439   1.430   3.396 -2.1849 -0.8775  1.9790
14207TIP3    H264113   0.325   1.525   3.421 -0.1588  2.4344 -0.4961
14208TIP3   OH264114   0.612   3.408  13.405  0.0598 -0.6491 -0.2187
14208TIP3    H164115   0.675   3.480  13.406  0.4897 -1.0248  0.5223
14208TIP3    H264116   0.645   3.349  13.336  0.1907 -0.5583 -0.2357
14209TIP3   OH264117   2.217   2.160  12.540 -0.0215 -0.9682  0.0340
14209TIP3    H164118   2.226   2.219  12.466 -0.4142  1.2374  1.6471
14209TIP3    H264119   2.135   2.185  12.582  0.7042 -1.3738  1.8270
14210TIP3   OH264120   1.826   3.059   0.585  0.0251  0.8510 -0.2240
14210TIP3    H164121   1.838   3.082   0.493 -2.4035 -2.4092 -1.5329
14210TIP3    H264122   1.855   2.968   0.592  1.9429  1.5288  2.7832
14211TIP3   OH264123   3.495   2.510  12.267 -0.1318  0.3303  0.3293
14211TIP3    H164124   3.564   2.529  12.331  0.1415  2.7497 -0.5577
14211TIP3    H264125   3.425   2.571  12.290  0.0555  1.3927 -1.7324
14212TIP3   OH264126   1.350   0.895   5.437  0.2779  0.0002 -0.3754
14212TIP3    H164127   1.356   0.886   5.532 -2.1965 -0.3987 -0.1830
14212TIP3    H264128   1.268   0.852   5.414  0.5428  0.5638 -2.6502
14213TIP3   OH264129   5.644   3.978  12.829 -0.2447  0.3867  0.0446
14213TIP3    H164130   5.606   3.934  12.904 -2.8050  1.6681 -0.4072
14213TIP3    H264131   5.668   3.906  12.769 -0.5981 -0.5310  0.9694
14214TIP3   OH264132   1.109   4.047   0.236 -0.6151 -0.1060  0.3700
14214TIP3    H164133   1.031   4.014   0.281 -1.5788  0.2760 -0.9557
14214TIP3    H264134   1.081   4.057   0.145  1.2321 -0.7377 -0.3038
14215TIP3   OH264135   6.633   4.429  16.196 -0.3751  0.2709 -0.0032
14215TIP3    H164136   6.662   4.495  16.259  0.7721 -0.7505  0.5702
14215TIP3    H264137   6.699   4.431  16.127 -0.2112 -0.4245  0.1272
14216TIP3   OH264138   0.001   5.402   6.179  0.0654  0.3293 -0.3425
14216TIP3    H164139  -0.008   5.456   6.257  1.7636 -0.0550  0.1652
14216TIP3    H264140  -0.057   5.327   6.195  1.1787 -0.2848  1.0769
14217TIP3   OH264141   4.784   2.953  13.870 -0.7871  0.0285  0.0235
14217TIP3    H164142   4.859   2.954  13.811 -1.0203  2.3798 -0.3291
14217TIP3    H264143   4.781   2.864  13.904 -0.2444 -1.2706 -3.0089
14218TIP3   OH264144   6.290   5.868  12.950 -0.4402 -0.1910 -0.3403
14218TIP3    H164145   6.300   5.925  13.026  0.1669  0.5980 -0.9873
14218TIP3    H264146   6.231   5.917  12.892  0.4208 -0.0210 -1.0844
14219TIP3   OH264147   4.953   3.557   0.474  0.8601  0.2777  0.5712
14219TIP3    H164148   4.890   3.523   0.537  1.2452  1.1037  1.4169
14219TIP3    H264149   4.981   3.641   0.510 -0.0921  1.5644 -1.4896
14220TIP3   OH264150   3.339   4.385  11.622 -0.4137  0.0250  0.1502
14220TIP3    H164151   3.345   4.295  11.655  0.6215  0.6121  1.6250
14220TIP3    H264152   3.264   4.422  11.668 -0.1751  0.2441  0.3643
14221TIP3   OH264153   2.545   4.080   3.351 -0.6075  0.2356  0.1236
14221TIP3    H164154   2.610   4.022   3.392  0.8307  0.6113 -1.5514
14221TIP3    H264155   2.469   4.074   3.409  1.3096  0.7774  2.8979
14222TIP3   OH264156   6.148   0.556  14.279  0.4779  0.3677  0.7459
14222TIP3    H164157   6.113   0.468  14.271  1.1338  0.0117  1.6316
14222TIP3    H264158   6.096   0.597  14.348 -1.7538  1.6921 -1.5499
14223TIP3   OH264159   3.871   1.012   4.624  0.7091  0.0347 -0.1082
14223TIP3    H164160   3.901   0.954   4.553 -0.3779  1.2032 -1.6084
14223TIP3    H264161   3.912   0.977   4.703  0.6888 -2.3176 -1.0479
14224TIP3   OH264162   3.006   5.365   3.599 -0.6558 -0.0522 -0.6325
14224TIP3    H164163   3.015   5.294   3.662  0.1429  0.6217  0.0307
14224TIP3    H264164   2.993   5.321   3.515 -1.0449 -0.9655 -0.1101
14225TIP3   OH264165   4.905   0.199  14.064  0.3481 -0.7101  0.0094
14225TIP3    H164166   4.986   0.149  14.077  0.4046 -0.8407 -0.8509
14225TIP3    H264167   4.916   0.241  13.979 -0.5378 -0.8073 -0.1586
14226TIP3   OH264168   1.281   3.449  12.491 -0.5403  0.0535 -0.0915
14226TIP3    H164169   1.355   3.440  12.431 -2.5318 -0.8540 -2.5977
14226TIP3    H264170   1.284   3.370  12.545  0.1001 -0.1576 -0.4246
14227TIP3   OH264171   3.529   6.205   0.593 -0.1814 -0.3270 -0.4190
14227TIP3    H164172   3.448   6.253   0.577  0.5082  1.3800  0.8576
14227TIP3    H264173   3.508   6.142   0.661 -0.3826  0.3616  0.1719
14228TIP3   OH264174   1.882   5.357   1.555  0.3541  0.6095  0.3308
14228TIP3    H164175   1.913   5.366   1.645 -1.0841  0.9021  0.8247
14228TIP3    H264176   1.879   5.263   1.540 -0.4678  0.5091  1.0082
14229TIP3   OH264177   2.218   5.075  12.793 -0.2353  0.1353  0.5708
14229TIP3    H164178   2.228   5.163  12.755 -0.2962  0.1968  0.6959
14229TIP3    H264179   2.236   5.015  12.721 -0.3735  0.2521  0.4394
14230TIP3   OH264180   2.641   2.207   3.203 -0.1288  0.2080  0.3425
14230TIP3    H164181   2.726   2.176   3.233 -0.0738  0.2314  0.2121
14230TIP3    H264182   2.587   2.210   3.282 -0.4779 -1.3135  0.1935
14231TIP3   OH264183   2.291   4.709   0.503 -0.6021  0.0231  0.1427
14231TIP3    H164184   2.292   4.744   0.592 -0.0522 -0.4338  0.3272
14231TIP3    H264185   2.339   4.626   0.510 -0.3140  0.1136 -0.6283
14232TIP3   OH264186   6.044   3.221  16.434 -0.0521 -0.1925  0.5470
14232TIP3    H164187   6.104   3.291  16.408 -1.3932  0.8382  0.0968
14232TIP3    H264188   6.007   3.251  16.517  0.7560 -1.2812  1.3240
14233TIP3   OH264189   1.278   6.482   1.097 -0.0802  0.4139 -0.3049
14233TIP3    H164190   1.246   6.406   1.145  0.3145  0.8605  0.6909
14233TIP3    H264191   1.202   6.539   1.087 -0.4793 -0.2889 -1.4423
14234TIP3   OH264192   3.381   3.036   5.966  0.0966 -0.3346  0.4539
14234TIP3    H164193   3.423   3.054   6.050  1.0401  0.4725 -0.1557
14234TIP3    H264194   3.288   3.051   5.982  0.3511  0.6279  1.1566
14235TIP3   OH264195   3.298   6.802  14.177 -0.2249  0.4467  0.4005
14235TIP3    H164196   3.255   6.846  14.251  0.3155 -0.9682  1.6097
14235TIP3    H264197   3.288   6.863  14.104 -2.6080  0.9907  1.0976
14236TIP3   OH264198   3.856   6.080   4.370  0.3051  0.0930  0.1091
14236TIP3    H164199   3.911   6.137   4.424 -0.1994  1.1697 -0.4761
14236TIP3    H264200   3.770   6.083   4.411  0.4077 -0.7355  0.4087
14237TIP3   OH264201   2.476   2.416  11.555  0.3258  0.5080 -0.1234
14237TIP3    H164202   2.516   2.425  11.641 -0.3552  1.5168  0.1069
14237TIP3    H264203   2.415   2.490  11.549 -1.8304 -1.1656 -0.2775
14238TIP3   OH264204   0.544   0.946   3.440 -0.6351 -0.1576  0.1126
14238TIP3    H164205   0.598   0.867   3.444  0.3110  0.5305  2.1352
14238TIP3    H264206   0.455   0.916   3.462 -0.7089 -0.9423 -1.1284
14239TIP3   OH264207   6.252   1.387  14.888  0.6874  0.7711 -0.1956
14239TIP3    H164208   6.316   1.458  14.894 -0.2119  1.5748  0.2802
14239TIP3    H264209   6.176   1.427  14.844  0.4995 -0.1500 -0.7283
14240TIP3   OH264210   3.379   3.855  14.005 -0.0615 -0.1000  0.9696
14240TIP3    H164211   3.408   3.772  13.968 -0.5288 -0.8159  2.1274
14240TIP3    H264212   3.319   3.891  13.941  0.0433 -0.7263  0.5142
14241TIP3   OH264213   2.944   4.826   5.205 -0.1026 -0.8865  0.0498
14241TIP3    H164214   2.874   4.764   5.225 -3.1512  2.4773  0.8068
14241TIP3    H264215   2.913   4.873   5.128  1.1228  0.9857  0.6354
14242TIP3   OH264216   2.020   6.325  14.818 -0.2546 -0.4756  0.0203
14242TIP3    H164217   2.000   6.396  14.880 -2.3174  0.6277 -1.7764
14242TIP3    H264218   1.947   6.326  14.756  0.1775 -3.5236 -0.6997
14243TIP3   OH264219   5.595   4.562  14.169 -0.0647 -0.8764 -0.6596
14243TIP3    H164220   5.637   4.632  14.220 -1.7244 -0.8208  0.7319
14243TIP3    H264221   5.661   4.494  14.163  0.6477 -0.3022  0.3795
14244TIP3   OH264222   2.377   4.875   2.866 -0.2865  0.2887 -0.3762
14244TIP3    H164223   2.323   4.934   2.813  0.6428  1.9370  0.4297
14244TIP3    H264224   2.390   4.922   2.948 -1.0436 -1.8747  1.0663
14245TIP3   OH264225   1.438   0.713  15.618  0.0506  0.0415 -0.4769
14245TIP3    H164226   1.392   0.714  15.533  1.6666  1.8208 -1.3943
14245TIP3    H264227   1.530   0.721  15.595  0.5317  0.4337  1.4823
14246TIP3   OH264228   5.516   4.875   4.860 -0.8906 -0.2396 -0.5410
14246TIP3    H164229   5.600   4.857   4.819  1.5631  2.0554  2.8500
14246TIP3    H264230   5.500   4.800   4.918 -0.7131 -0.3141 -0.5885
14247TIP3   OH264231   5.472   3.113   0.827 -0.3114 -0.3754 -0.2313
14247TIP3    H164232   5.427   3.029   0.825 -0.1810 -0.4292 -1.6079
14247TIP3    H264233   5.521   3.112   0.909 -0.1964 -1.7016 -0.2936
14248TIP3   OH264234   2.353   3.842  16.258  0.1814 -0.2048  0.3387
14248TIP3    H164235   2.386   3.807  16.175  1.2976  1.2391  0.1295
14248TIP3    H264236   2.407   3.799  16.325  0.4674 -0.0792  0.1919
14249TIP3   OH264237   2.698   5.796   4.106  0.0964  0.4331  0.6571
14249TIP3    H164238   2.702   5.705   4.134 -0.7261 -0.8611 -2.9366
14249TIP3    H264239   2.604   5.815   4.096  0.3151  0.7823 -1.0461
14250TIP3   OH264240   4.185   4.073  11.784  0.2285 -0.3933 -0.0859
14250TIP3    H164241   4.149   4.054  11.870  0.0932  1.1107  0.2178
14250TIP3    H264242   4.277   4.093  11.800  0.3578 -0.7103 -0.3908
14251TIP3   OH264243   5.647   5.060  15.039 -0.4312  0.8902 -0.2732
14251TIP3    H164244   5.698   5.117  15.096 -1.1322 -0.0367  1.3451
14251TIP3    H264245   5.712   5.006  14.995  0.0685 -0.2366  1.7100
14252TIP3   OH264246   0.735   0.841   1.997 -0.1778  0.2252 -0.3749
14252TIP3    H164247   0.659   0.894   2.021  0.1999  1.3436 -1.5568
14252TIP3    H264248   0.709   0.795   1.918  0.1209  0.0244 -0.3615
14253TIP3   OH264249   4.407   3.682  12.110 -0.0733  0.0758 -1.0586
14253TIP3    H164250   4.388   3.775  12.121  0.8199  0.0074  1.9806
14253TIP3    H264251   4.477   3.664  12.174 -0.2919 -2.7028 -1.4606
14254TIP3   OH264252   0.933   1.623   3.867 -0.3503  0.2843 -0.1488
14254TIP3    H164253   0.843   1.640   3.839 -0.7463 -0.3760  0.7017
14254TIP3    H264254   0.958   1.544   3.819 -1.2773 -1.2656  1.8145
14255TIP3   OH264255   3.502   4.174  13.849  0.0539 -0.2734  0.1681
14255TIP3    H164256   3.429   4.113  13.859 -0.0335 -0.1398  0.3409
14255TIP3    H264257   3.558   4.156  13.924  0.0953 -0.2319  0.1469
14256TIP3   OH264258   5.023   0.104  16.048  0.5215  0.1245 -0.0340
14256TIP3    H164259   5.100   0.158  16.030  0.8220 -1.2233 -3.7545
14256TIP3    H264260   5.031   0.080  16.140  3.4564  1.6191  0.2233
14257TIP3   OH264261   4.124   4.481   4.560 -0.6037  0.0721 -0.1032
14257TIP3    H164262   4.116   4.528   4.478 -1.0746 -1.5998 -1.0650
14257TIP3    H264263   4.218   4.477   4.577 -0.5437  1.0433 -0.1619
14258TIP3   OH264264   5.711   5.851  14.633 -0.2142  0.1652 -0.2463
14258TIP3    H164265   5.775   5.790  14.670 -0.6224  0.7562  1.5352
14258TIP3    H264266   5.627   5.804  14.640 -0.4745  0.7391  0.7978
14259TIP3   OH264267   4.454   0.903  11.227 -0.2642 -0.0989 -0.1959
14259TIP3    H164268   4.423   0.837  11.165  0.3571  1.1224 -1.8681
14259TIP3    H264269   4.550   0.897  11.221 -0.1440 -0.8630  1.6807
14260TIP3   OH264270   4.932   2.798   4.971  0.9985  0.2709 -0.5068
14260TIP3    H164271   4.981   2.852   4.908 -1.3592  1.1876 -1.6596
14260TIP3    H264272   4.865   2.856   5.006  0.3603 -1.0785  0.6240
14261TIP3   OH264273   4.335   2.710   1.752  0.0912 -0.1269 -0.2022
14261TIP3    H164274   4.393   2.699   1.677 -1.3919  0.2487 -1.4618
14261TIP3    H264275   4.373   2.654   1.820  2.9429  1.5163 -0.2871
14262TIP3   OH264276   1.544   4.255  11.473 -0.2643  0.2194 -0.1841
14262TIP3    H164277   1.505   4.333  11.513 -1.1593 -0.6922  0.7794
14262TIP3    H264278   1.470   4.198  11.453  0.4763 -1.2153  0.9333
14263TIP3   OH264279   4.907   4.658   2.570 -0.3648  0.3820 -0.0336
14263TIP3    H164280   4.847   4.708   2.627  1.5504  0.1573  2.3449
14263TIP3    H264281   4.914   4.711   2.491 -2.6878  1.0272  0.1081
14264TIP3   OH264282   0.725   1.246  14.792 -0.2522  0.2003 -0.1118
14264TIP3    H164283   0.665   1.183  14.752 -1.2473  1.4018 -0.5870
14264TIP3    H264284   0.672   1.326  14.802  0.3612  0.3952  2.3045
14265TIP3   OH264285   0.434   6.017   3.171  0.0091  0.5473 -0.1738
14265TIP3    H164286   0.524   5.991   3.190 -0.5146  0.5788  2.7629
14265TIP3    H264287   0.399   5.946   3.118  0.6322 -1.4788  1.9774
14266TIP3   OH264288   2.279   6.256   1.494  0.2088  0.2095  0.0020
14266TIP3    H164289   2.339   6.182   1.489 -0.1698 -0.0415 -1.0718
14266TIP3    H264290   2.237   6.247   1.580  0.5078 -0.5505  0.0742
14267TIP3   OH264291   2.188   2.097   2.424 -0.2069  0.1510 -0.8563
14267TIP3    H164292   2.273   2.102   2.468 -1.1115  1.1505  0.9291
14267TIP3    H264293   2.165   2.004   2.427 -0.8519  0.3039  2.2334
14268TIP3   OH264294   0.154   3.605  16.804 -0.2803  0.5668 -0.1917
14268TIP3    H164295   0.202   3.674  16.759 -0.4620  0.0548 -1.1806
14268TIP3    H264296   0.080   3.585  16.747 -0.9615  0.4485  0.7003
14269TIP3   OH264297   4.962   6.008  11.638  0.4988  0.2231  0.5601
14269TIP3    H164298   5.057   6.010  11.628  0.3919  0.4662 -0.6153
14269TIP3    H264299   4.929   6.024  11.549 -0.6358 -1.1318  0.7109
14270TIP3   OH264300   0.091   0.099  13.844 -0.9778 -0.2084  0.1464
14270TIP3    H164301   0.153   0.126  13.912 -1.9460  1.4465  0.4508
14270TIP3    H264302   0.037   0.177  13.829 -0.9984 -0.6041 -2.3275
14271TIP3   OH264303   3.389   5.854  10.407  0.1287  0.3156 -0.0238
14271TIP3    H164304   3.309   5.812  10.376 -0.4987 -0.8177  2.8015
14271TIP3    H264305   3.359   5.918  10.471  1.4214  0.2372  0.6993
14272TIP3   OH264306   1.533   5.064   2.351  0.3698  0.2765 -0.0324
14272TIP3    H164307   1.572   5.144   2.315  0.2693  0.1617 -0.3889
14272TIP3    H264308   1.470   5.035   2.286  2.7997 -2.0007 -1.5589
14273TIP3   OH264309   2.102   1.971  13.714 -0.0132 -0.1463  0.0045
14273TIP3    H164310   2.073   2.047  13.764 -2.5041 -0.7119 -0.4243
14273TIP3    H264311   2.046   1.972  13.636  1.4663 -1.1559 -1.1057
14274TIP3   OH264312   2.751   4.708   6.078 -0.0005 -0.0279 -0.6816
14274TIP3    H164313   2.772   4.658   6.000 -0.3196  0.3350 -0.9997
14274TIP3    H264314   2.805   4.668   6.147  0.3762 -0.2628 -1.1087
14275TIP3   OH264315   3.198   1.479   4.694 -0.1480 -0.2685 -0.0206
14275TIP3    H164316   3.244   1.552   4.653 -1.1793 -0.6305 -1.9879
14275TIP3    H264317   3.267   1.420   4.723  0.6731  0.2827 -0.8040
14276TIP3   OH264318   0.535   6.301  16.372 -0.1941 -0.6280 -0.2276
14276TIP3    H164319   0.516   6.231  16.435 -2.0416  0.8380  0.9541
14276TIP3    H264320   0.449   6.323  16.335  0.3455  1.0342 -0.5384
14277TIP3   OH264321   0.475   1.287  13.502  0.1717 -0.3933  0.4166
14277TIP3    H164322   0.379   1.280  13.502  0.2077 -1.1083  1.9279
14277TIP3    H264323   0.493   1.373  13.540  0.1415  0.3010 -1.0418
14278TIP3   OH264324   2.247   1.601  13.572  0.2051 -0.2467 -0.3033
14278TIP3    H164325   2.262   1.657  13.648  1.8569 -0.9449 -0.0706
14278TIP3    H264326   2.152   1.599  13.562 -0.0960 -0.4198  1.9725
14279TIP3   OH264327   1.788   2.698  12.866 -0.4238 -0.3001  0.5490
14279TIP3    H164328   1.749   2.650  12.939  0.0016 -0.7153  0.5059
14279TIP3    H264329   1.850   2.637  12.827 -2.0572 -0.8098 -1.4218
14280TIP3   OH264330   1.738   2.042   1.009  0.2887 -0.0940 -0.4779
14280TIP3    H164331   1.764   2.028   1.100  1.0919 -0.2748 -0.7271
14280TIP3    H264332   1.816   2.020   0.958  1.5250  4.4709 -0.9969
14281TIP3   OH264333   1.806   2.856   6.025  0.1314  0.2143 -0.1619
14281TIP3    H164334   1.739   2.801   6.066 -0.7368  0.5858 -1.0189
14281TIP3    H264335   1.884   2.801   6.023 -0.6403 -0.9162 -0.7560
14282TIP3   OH264336   4.042   1.839  13.703  0.3905  0.2109  0.4715
14282TIP3    H164337   4.028   1.930  13.677  4.1801  0.8449  0.0988
14282TIP3    H264338   3.995   1.788  13.638 -2.0470  1.8259  0.8447
14283TIP3   OH264339   2.728   2.631   4.591  0.1654 -0.0587 -0.5307
14283TIP3    H164340   2.680   2.617   4.673  1.3368  0.1998  0.2086
14283TIP3    H264341   2.778   2.551   4.578  0.1919  0.0101 -0.8637
14284TIP3   OH264342   5.876   3.802  15.945  0.2138 -0.4109 -0.0419
14284TIP3    H164343   5.937   3.868  15.913 -0.0306 -0.5286 -0.7860
14284TIP3    H264344   5.873   3.736  15.875 -1.5110  0.0921 -0.5116
14285TIP3   OH264345   3.243   3.360   6.739  0.0050  0.4904 -0.3469
14285TIP3    H164346   3.156   3.366   6.781  1.2930  1.0972  2.4927
14285TIP3    H264347   3.303   3.392   6.806  2.9486 -3.8209 -0.5935
14286TIP3   OH264348   0.774   0.605   4.945  0.2200 -0.2654 -0.0814
14286TIP3    H164349   0.697   0.576   4.896 -0.1274 -0.9453  0.8404
14286TIP3    H264350   0.744   0.681   4.995  1.0832  1.6954 -2.3523
14287TIP3   OH264351   0.210   5.533   6.058  0.4009 -0.3389 -0.3703
14287TIP3    H164352   0.165   5.592   5.998 -0.2096 -1.3724 -0.9566
14287TIP3    H264353   0.140   5.482   6.099  0.8046  0.3308  1.2184
14288TIP3   OH264354   6.643   0.030   4.244  0.1488 -0.5486  0.1989
14288TIP3    H164355   6.550   0.007   4.236  0.3134 -1.0178 -0.5328
14288TIP3    H264356   6.646   0.092   4.316 -1.1443  1.6106 -1.4619
14289TIP3   OH264357   4.092   1.940  14.487 -0.0890  0.5923 -0.0307
14289TIP3    H164358   4.040   1.901  14.557  0.7521 -0.0507  0.2437
14289TIP3    H264359   4.059   1.899  14.407 -2.1818  2.4872 -0.2763
14290TIP3   OH264360   1.356   0.012   1.144 -0.4578  0.5210  0.7293
14290TIP3    H164361   1.437   0.005   1.095 -0.3956 -1.2007  1.0313
14290TIP3    H264362   1.383   0.034   1.233 -0.4237  1.2784  0.5386
14291TIP3   OH264363   2.167   5.599   5.432 -0.1290 -0.1125 -0.0112
14291TIP3    H164364   2.214   5.632   5.355 -0.2563  1.2279  0.4441
14291TIP3    H264365   2.218   5.630   5.506  0.4358 -2.0813  0.4765
14292TIP3   OH264366   2.210   6.567   5.898 -0.3798 -0.0752 -0.1087
14292TIP3    H164367   2.262   6.571   5.817 -0.1232 -0.8113  0.0107
14292TIP3    H264368   2.160   6.487   5.891 -3.0688  1.5782 -1.1174
14293TIP3   OH264369   3.386   3.375   4.104  0.0676  0.0075 -0.0229
14293TIP3    H164370   3.476   3.397   4.127  0.6261 -2.2834  0.2766
14293TIP3    H264371   3.375   3.285   4.136 -2.3271  0.2244 -0.0739
14294TIP3   OH264372   5.500   4.585  11.227  0.0906 -0.3578 -0.5121
14294TIP3    H164373   5.466   4.624  11.146 -0.9191 -1.1649 -0.5000
14294TIP3    H264374   5.427   4.589  11.289  0.7036 -0.1743  0.2202
14295TIP3   OH264375   2.896   1.827   1.300 -0.1969  0.1854 -0.2886
14295TIP3    H164376   2.953   1.904   1.303  0.8459 -0.2976 -3.4905
14295TIP3    H264377   2.823   1.853   1.243 -1.6886 -0.1813  1.3475
14296TIP3   OH264378   3.479   2.108  11.539  0.4568  0.0716  0.9395
14296TIP3    H164379   3.507   2.100  11.630  1.5551 -1.6301  0.5043
14296TIP3    H264380   3.548   2.158  11.497 -0.1895  1.1063  1.0658
14297TIP3   OH264381   6.739   4.813  14.095 -0.0567 -0.5512  0.5622
14297TIP3    H164382   6.725   4.880  14.028  1.3109 -1.4873 -0.7174
14297TIP3    H264383   6.656   4.767  14.100  0.0011 -0.8677 -0.9769
14298TIP3   OH264384   1.536   5.687   4.692 -0.0050  0.1385 -0.2200
14298TIP3    H164385   1.495   5.743   4.626  1.0628  1.0533 -0.1334
14298TIP3    H264386   1.579   5.748   4.752  0.3375 -0.7452  0.4497
14299TIP3   OH264387   1.625   5.703   5.128 -0.0254  0.0645  0.4352
14299TIP3    H164388   1.610   5.758   5.052  0.5810  1.2167  1.1279
14299TIP3    H264389   1.651   5.618   5.091 -1.5108  0.0516 -0.6489
14300TIP3   OH264390   3.241   5.964  16.105  0.4576  0.0482 -0.3294
14300TIP3    H164391   3.238   6.032  16.173  3.1052  0.7480 -0.7856
14300TIP3    H264392   3.246   5.882  16.153  0.9236  0.4423  0.3075
14301TIP3   OH264393   0.369   3.475   5.165 -0.1843 -0.1482 -0.3478
14301TIP3    H164394   0.377   3.570   5.155 -0.1889 -0.2030 -0.8863
14301TIP3    H264395   0.447   3.440   5.122  0.6469 -0.3244  1.2277
14302TIP3   OH264396   1.559   0.213   3.433 -0.1711  0.4790 -0.3025
14302TIP3    H164397   1.505   0.173   3.364 -1.3550 -0.6508  1.2098
14302TIP3    H264398   1.514   0.295   3.454 -1.3739 -0.4453  0.9350
14303TIP3   OH264399   1.447   0.837   1.790  0.2862 -0.4768 -0.4593
14303TIP3    H164400   1.416   0.815   1.702  1.1345  0.7674 -1.0969
14303TIP3    H264401   1.443   0.933   1.793 -1.1051 -0.5494  1.3883
14304TIP3   OH264402   4.119   2.740  12.668  0.0296 -0.0119  0.5116
14304TIP3    H164403   4.208   2.766  12.644 -0.6132  1.7888 -0.0401
14304TIP3    H264404   4.062   2.805  12.626 -1.5431 -0.9657  1.0654
14305TIP3   OH264405   3.704   6.251   0.912  0.5242 -0.1069 -0.0927
14305TIP3    H164406   3.612   6.277   0.909  0.6335  0.3007  0.0801
14305TIP3    H264407   3.748   6.321   0.960  1.0621  0.0868 -0.8517
14306TIP3   OH264408   6.127   6.302   4.034 -0.0746 -0.1108  0.1132
14306TIP3    H164409   6.051   6.250   4.058 -0.9589  1.5009  0.9658
14306TIP3    H264410   6.180   6.306   4.113  1.3406 -1.8408 -0.6706
14307TIP3   OH264411   0.773   5.532   1.519 -0.9461  0.5269 -0.2190
14307TIP3    H164412   0.799   5.541   1.427  1.1250  0.0840  0.2524
14307TIP3    H264413   0.790   5.619   1.557 -0.6611  0.3901 -0.0259
14308TIP3   OH264414   4.778   1.883  13.013  0.9904 -0.0960 -0.8940
14308TIP3    H164415   4.737   1.912  13.094  2.6901 -0.6631  0.2054
14308TIP3    H264416   4.729   1.804  12.989 -0.8968  1.2044 -1.6384
14309TIP3   OH264417   2.320   3.055   3.813 -0.8879 -0.1999 -0.1894
14309TIP3    H164418   2.340   3.005   3.734  2.0870 -0.8005  0.8090
14309TIP3    H264419   2.280   2.991   3.872  1.0908 -1.0143  0.3613
14310TIP3   OH264420   6.054   6.386   1.890 -0.0108  0.1490 -0.5765
14310TIP3    H164421   6.018   6.312   1.940 -1.1370  0.8038 -0.3936
14310TIP3    H264422   6.140   6.355   1.860  0.0810 -0.7690  0.5720
14311TIP3   OH264423   1.148   4.373  12.681 -0.0401  0.2659  0.0924
14311TIP3    H164424   1.194   4.443  12.727 -0.5687  1.0774 -0.5985
14311TIP3    H264425   1.063   4.369  12.724  0.4683 -0.9315  1.0680
14312TIP3   OH264426   6.110   6.076   3.600  0.2353  0.2072  0.7882
14312TIP3    H164427   6.198   6.105   3.624  0.7898 -0.4638 -0.3355
14312TIP3    H264428   6.053   6.147   3.627  1.4987  2.3503 -1.7384
14313TIP3   OH264429   6.143   6.457   0.726 -0.5511  0.0478 -0.0144
14313TIP3    H164430   6.178   6.438   0.639 -1.6665 -1.3478 -0.1914
14313TIP3    H264431   6.149   6.552   0.734  2.1516 -0.0210 -0.4753
14314TIP3   OH264432   2.480   0.652   4.915  0.3022  0.0996  1.0097
14314TIP3    H164433   2.438   0.726   4.958 -0.0167  0.4660  0.1042
14314TIP3    H264434   2.431   0.641   4.833  0.0722 -1.3890  1.3191
14315TIP3   OH264435   2.761   0.021  12.324  0.1550  0.4044 -0.5403
14315TIP3    H164436   2.843   0.027  12.274  0.4009 -0.5016 -0.2639
14315TIP3    H264437   2.699  -0.019  12.263 -0.1497  1.2506 -0.8080
14316TIP3   OH264438   2.755   2.501   3.376 -0.2492 -0.1617 -0.1944
14316TIP3    H164439   2.788   2.516   3.288  0.6947  0.3973  0.2463
14316TIP3    H264440   2.663   2.476   3.363  0.1996 -1.3035 -1.4021
14317TIP3   OH264441   6.356   1.289   1.953 -0.4193  0.0341 -0.1253
14317TIP3    H164442   6.276   1.317   1.908  0.9420  1.7303 -1.6265
14317TIP3    H264443   6.358   1.341   2.033 -0.4728  0.5270 -0.4385
14318TIP3   OH264444   5.613   1.935  15.947  0.2005 -0.1939  0.0733
14318TIP3    H164445   5.642   1.925  15.856  0.1422  0.5493 -0.0278
14318TIP3    H264446   5.616   2.029  15.964 -2.3239 -0.0432 -0.0006
14319TIP3   OH264447   0.672   3.338  14.521  0.0690  0.5014  0.6646
14319TIP3    H164448   0.636   3.260  14.478  0.2228 -0.1979  1.7448
14319TIP3    H264449   0.602   3.366  14.580  0.2922  0.7416  0.8152
14320TIP3   OH264450   4.539   1.538  16.406 -0.5819 -0.1305 -0.3190
14320TIP3    H164451   4.445   1.532  16.425 -0.5733  0.6215  0.0060
14320TIP3    H264452   4.557   1.462  16.351 -1.6799  0.4967 -1.5962
14321TIP3   OH264453   1.510   2.798   1.550 -0.1447  0.1386  0.9088
14321TIP3    H164454   1.490   2.738   1.479  0.1963  0.2856  0.6872
14321TIP3    H264455   1.462   2.878   1.528 -1.1120 -0.2548  1.5277
14322TIP3   OH264456   2.823   1.668  17.240 -0.1717 -0.0193 -0.0922
14322TIP3    H164457   2.735   1.698  17.217 -0.6352 -1.8553 -0.8713
14322TIP3    H264458   2.867   1.747  17.272 -2.4068  0.7443  1.3138
14323TIP3   OH264459   6.638   2.804   5.382  0.3094  0.2300 -0.3123
14323TIP3    H164460   6.556   2.838   5.418 -0.8648 -3.7052  1.1631
14323TIP3    H264461   6.704   2.827   5.448  0.1544  1.8600 -0.6661
14324TIP3   OH264462   4.402   5.169   1.408  0.5958  0.5436  0.1209
14324TIP3    H164463   4.389   5.085   1.364  0.5046  0.9358 -0.6165
14324TIP3    H264464   4.430   5.145   1.497 -0.2910 -0.2718  0.1974
14325TIP3   OH264465   4.858   0.472  13.642 -0.5241  0.4542 -0.5317
14325TIP3    H164466   4.843   0.536  13.572  1.0443  0.1621 -1.1705
14325TIP3    H264467   4.802   0.502  13.714 -1.2326  1.4674 -1.4755
14326TIP3   OH264468   2.052   6.574  13.195  0.6926  0.0885 -0.3211
14326TIP3    H164469   2.079   6.612  13.111 -0.6707  0.7863 -0.4821
14326TIP3    H264470   2.092   6.631  13.261  0.0163  0.8488 -0.5434
14327TIP3   OH264471   2.990   5.445   0.759 -0.1579  0.0037 -0.5149
14327TIP3    H164472   2.989   5.469   0.852 -2.2490 -1.5308 -0.0660
14327TIP3    H264473   2.937   5.513   0.717  2.9543  2.2603 -1.1537
14328TIP3   OH264474   2.339   2.431  14.076  0.3863  0.1408 -0.1425
14328TIP3    H164475   2.410   2.486  14.045 -0.5225  0.6610 -1.4064
14328TIP3    H264476   2.296   2.400  13.996  0.3727 -1.7506  0.5413
14329TIP3   OH264477   5.840   3.540   5.172  0.1683 -0.6683 -0.0627
14329TIP3    H164478   5.744   3.540   5.175  0.0531  0.4958 -1.7817
14329TIP3    H264479   5.860   3.575   5.085  2.1618 -0.5315  0.4157
14330TIP3   OH264480   6.628   0.491   2.470  0.2427 -0.1378  0.2552
14330TIP3    H164481   6.707   0.527   2.509 -0.6325  0.4800  1.5037
14330TIP3    H264482   6.557   0.544   2.505 -1.2388 -3.5658  3.0309
14331TIP3   OH264483   0.141   2.483  14.833  0.0613  0.0686 -0.1366
14331TIP3    H164484   0.069   2.465  14.772 -1.5501  0.7903  1.4778
14331TIP3    H264485   0.170   2.396  14.861 -1.0363 -0.2275  0.1350
14332TIP3   OH264486   4.512   2.267   2.333  0.4431  0.5591 -0.3407
14332TIP3    H164487   4.521   2.332   2.403  0.0375 -0.3157  0.5522
14332TIP3    H264488   4.420   2.272   2.308  0.4388  0.4127 -0.3539
14333TIP3   OH264489   1.831   2.584  14.661  0.4603  0.0426 -0.1240
14333TIP3    H164490   1.756   2.641  14.676  1.3616  1.2661 -0.1927
14333TIP3    H264491   1.907   2.642  14.663  1.6228 -1.4246  1.8802
14334TIP3   OH264492   5.788   2.224   3.064  0.0952  0.3900  0.4631
14334TIP3    H164493   5.728   2.292   3.093  0.2062  0.5187  0.3879
14334TIP3    H264494   5.830   2.193   3.145  0.6146  0.9460  0.4084
14335TIP3   OH264495   1.093   1.440  13.439 -0.1095 -0.5094 -0.5036
14335TIP3    H164496   1.105   1.367  13.500  0.9858 -0.6936 -0.9127
14335TIP3    H264497   0.998   1.448  13.429 -0.4145  0.2758  2.1320
14336TIP3   OH264498   2.617   4.364  12.417 -0.2353 -0.6164 -0.0286
14336TIP3    H164499   2.591   4.345  12.507  1.5869  0.0738  0.6936
14336TIP3    H264500   2.562   4.307  12.364 -1.8055 -0.5947  1.4634
14337TIP3   OH264501   3.016   4.063  15.212  0.2641  0.0575  0.7070
14337TIP3    H164502   3.041   4.061  15.304  1.1393  1.6497  0.5278
14337TIP3    H264503   2.973   4.147  15.199  1.3014  0.4306 -0.6048
14338TIP3   OH264504   5.598   5.487  14.635  0.1858 -0.4517  0.2624
14338TIP3    H164505   5.596   5.431  14.558 -0.4765 -2.3815  1.6007
14338TIP3    H264506   5.640   5.433  14.703  0.7016  1.1596  1.2875
14339TIP3   OH264507   2.730   4.578   0.484  0.3761 -0.8941 -0.3721
14339TIP3    H164508   2.680   4.644   0.436  2.1955 -0.1214 -1.3124
14339TIP3    H264509   2.684   4.568   0.567  0.0015  1.5162 -0.2198
14340TIP3   OH264510   1.879   6.108  13.588  0.0905 -0.3368  0.1108
14340TIP3    H164511   1.867   6.164  13.665  0.1551  1.2541 -0.9862
14340TIP3    H264512   1.970   6.121  13.563  0.1755 -1.1435 -0.0271
14341TIP3   OH264513   5.235   5.846  11.795 -0.0042  0.3047 -0.3435
14341TIP3    H164514   5.266   5.871  11.882 -1.8403 -1.8069  1.0372
14341TIP3    H264515   5.205   5.928  11.755 -0.3310  1.1700  1.5610
14342TIP3   OH264516   2.257   5.775  13.159  0.1155 -0.6845 -0.0538
14342TIP3    H164517   2.215   5.826  13.089  1.1944 -2.0556 -1.7851
14342TIP3    H264518   2.328   5.831  13.190  0.2713 -0.4683 -0.7846
14343TIP3   OH264519   2.013   1.423   0.501  0.4173 -0.0954 -0.0420
14343TIP3    H164520   1.952   1.379   0.441 -0.5957  1.5675 -0.2789
14343TIP3    H264521   1.983   1.397   0.588  0.3731 -0.5524 -0.1882
14344TIP3   OH264522   3.446   6.274  13.156  0.2837  0.3365  0.0144
14344TIP3    H164523   3.439   6.201  13.218 -1.2877  0.5199  0.0789
14344TIP3    H264524   3.385   6.340  13.189 -0.1848  0.6558 -1.4297
14345TIP3   OH264525   5.236   4.468   1.623 -0.2493  0.0446  0.1191
14345TIP3    H164526   5.150   4.442   1.655  0.8583 -0.3715  3.0826
14345TIP3    H264527   5.234   4.563   1.621 -1.4687  0.0313 -2.1503
14346TIP3   OH264528   0.560   2.883  10.712  0.1676  0.0646 -0.8126
14346TIP3    H164529   0.483   2.866  10.659 -0.4900  0.0229  0.1243
14346TIP3    H264530   0.557   2.977  10.730  1.5644  0.4963 -2.5994
14347TIP3   OH264531   5.633   5.789  14.143  0.1997  0.1541 -0.1369
14347TIP3    H164532   5.687   5.725  14.190  0.6852  2.6467  3.0800
14347TIP3    H264533   5.666   5.787  14.053  2.5252 -1.6133  0.6474
14348TIP3   OH264534   4.656   0.352  13.148  0.0985  0.2005 -0.0360
14348TIP3    H164535   4.620   0.264  13.165  0.1305  0.3203  0.6831
14348TIP3    H264536   4.584   0.411  13.167  0.2684  0.3642  0.1034
14349TIP3   OH264537   0.335   3.166   5.005 -0.4412  0.6345  0.2539
14349TIP3    H164538   0.360   3.098   5.067 -1.0267  1.9608  2.0171
14349TIP3    H264539   0.416   3.186   4.958  0.5627  1.0696  2.0715
14350TIP3   OH264540   4.040   1.516   1.342 -0.6472 -0.4275 -0.2357
14350TIP3    H164541   3.957   1.470   1.327 -0.1200 -1.2206 -0.8258
14350TIP3    H264542   4.016   1.608   1.349 -1.6933 -0.7417  0.5852
14351TIP3   OH264543   2.119   3.976  17.158 -0.0073 -0.1330 -0.3333
14351TIP3    H164544   2.039   3.936  17.193  0.6368  0.1738  1.6133
14351TIP3    H264545   2.115   4.067  17.186  0.0592  0.4286 -2.0330
14352TIP3   OH264546   4.237   6.744   4.835  0.4278  0.6631  0.3421
14352TIP3    H164547   4.189   6.741   4.918  0.5585  0.7685  0.4223
14352TIP3    H264548   4.329   6.736   4.860  0.5429  1.7724  0.2905
14353TIP3   OH264549   0.683   3.937  17.147 -0.1440  0.0695 -0.5552
14353TIP3    H164550   0.739   4.014  17.141 -1.5431  1.2559  0.7835
14353TIP3    H264551   0.706   3.884  17.070  0.4981  2.0550 -1.8018
14354TIP3   OH264552   5.133   4.311  13.628 -0.3635 -0.2500 -0.3964
14354TIP3    H164553   5.085   4.380  13.583  2.0302  1.0722 -1.0845
14354TIP3    H264554   5.192   4.357  13.688 -0.4445 -1.8279  1.0003
14355TIP3   OH264555   3.446   1.456  12.393 -0.0793 -0.3826 -0.0842
14355TIP3    H164556   3.539   1.437  12.402 -0.0843  0.3642  1.8238
14355TIP3    H264557   3.402   1.377  12.426 -0.0992  0.2606  1.4832
14356TIP3   OH264558   0.952   5.534  15.606 -0.0151 -0.6065 -0.0818
14356TIP3    H164559   0.972   5.592  15.533  0.5118 -0.4087  0.2104
14356TIP3    H264560   1.013   5.461  15.596 -1.2878 -1.5932 -0.9706
14357TIP3   OH264561   0.671   6.305  13.994  0.1238  0.2651  0.0173
14357TIP3    H164562   0.755   6.263  13.977 -1.0070 -1.7672 -0.9038
14357TIP3    H264563   0.688   6.399  13.983  1.9832 -0.1803 -1.3684
14358TIP3   OH264564   2.718   2.391   3.021  0.4398  0.1238  0.5173
14358TIP3    H164565   2.765   2.444   3.085  0.0539 -0.1203  1.0100
14358TIP3    H264566   2.655   2.341   3.073 -0.1633  0.2258 -0.0937
14359TIP3   OH264567   6.480   4.783  16.779  0.1904 -0.0907  0.3960
14359TIP3    H164568   6.423   4.758  16.706  1.2857 -0.6835 -0.2949
14359TIP3    H264569   6.552   4.720  16.774  0.4390  0.0632  1.8135
14360TIP3   OH264570   5.391   1.047  11.859  0.4714  0.6151  0.4210
14360TIP3    H164571   5.372   1.087  11.774  0.5629 -1.5260 -0.6891
14360TIP3    H264572   5.322   0.983  11.871  1.6318 -0.5951  0.9136
14361TIP3   OH264573   3.226   6.608  13.980  0.3800  0.2040  0.1196
14361TIP3    H164574   3.210   6.670  14.052  0.5045  0.8011 -0.3530
14361TIP3    H264575   3.289   6.654  13.924 -1.7696  0.9487 -1.8468
14362TIP3   OH264576   1.971   1.953  13.460 -0.2759  0.5405  0.1301
14362TIP3    H164577   1.906   2.019  13.435 -0.8948  0.0874  0.5140
14362TIP3    H264578   2.028   1.946  13.383 -0.3628  1.3205 -0.0154
14363TIP3   OH264579   5.824   1.850  14.311  0.6046 -0.1825  0.0036
14363TIP3    H164580   5.813   1.833  14.217  0.4465 -0.2258  0.0307
14363TIP3    H264581   5.821   1.763  14.351 -0.0965 -0.1041  0.1295
14364TIP3   OH264582   4.511   5.953  12.727 -0.1970  0.8445  0.6440
14364TIP3    H164583   4.586   5.934  12.670 -2.4223 -1.2861 -1.8016
14364TIP3    H264584   4.515   5.886  12.796 -1.0961 -0.8317 -0.8594
14365TIP3   OH264585   0.193   4.871  14.467 -0.1252 -0.2532 -0.3261
14365TIP3    H164586   0.273   4.819  14.475  1.1447  0.8053 -3.9988
14365TIP3    H264587   0.125   4.806  14.450  0.5376 -1.0190 -0.1401
14366TIP3   OH264588   5.163   3.283   2.470  0.3946 -0.3356 -0.5282
14366TIP3    H164589   5.236   3.328   2.428 -0.0231  0.8216 -0.0433
14366TIP3    H264590   5.098   3.272   2.400  0.4568 -0.0815 -0.6255
14367TIP3   OH264591   5.123   5.150  13.303  0.0649  0.6686  0.6118
14367TIP3    H164592   5.047   5.121  13.252  0.5285  0.2635  0.1434
14367TIP3    H264593   5.196   5.150  13.240  0.7368 -0.2666  1.3603
14368TIP3   OH264594   1.371   1.528   3.957 -0.0661 -0.6688  0.0524
14368TIP3    H164595   1.386   1.596   3.892  0.3906  1.2389  2.0022
14368TIP3    H264596   1.286   1.549   3.996 -0.3810 -1.8184  0.0278
14369TIP3   OH264597   3.158   4.456   1.122 -0.1349  0.3538  0.0232
14369TIP3    H164598   3.063   4.464   1.123 -0.0902  1.0082 -0.1189
14369TIP3    H264599   3.176   4.385   1.061 -0.5273  0.2590  0.0144
14370TIP3   OH264600   5.887   4.356  16.689 -0.1982  0.2904 -0.3857
14370TIP3    H164601   5.920   4.284  16.743 -2.2202 -1.0262 -0.8288
14370TIP3    H264602   5.834   4.314  16.622 -2.1793  2.2185 -0.1245
14371TIP3   OH264603   0.301   5.622   3.624  0.1211  0.3020  0.4900
14371TIP3    H164604   0.380   5.666   3.656  0.0635  0.5149  0.3444
14371TIP3    H264605   0.296   5.542   3.675  0.2128  0.4799  0.7799
14372TIP3   OH264606   2.750   6.594  13.973 -0.2038  0.2281 -0.5225
14372TIP3    H164607   2.801   6.583  13.893  0.0523  2.2835 -0.6963
14372TIP3    H264608   2.813   6.585  14.044 -0.0711  0.2578 -0.6374
14373TIP3   OH264609   5.963   1.325  15.210 -0.0432 -0.1157  0.1792
14373TIP3    H164610   5.972   1.417  15.234 -1.2605 -0.2405  1.1740
14373TIP3    H264611   5.871   1.304  15.225  0.1332 -1.4122 -0.3597
14374TIP3   OH264612   6.418   2.970  11.592  0.3898 -0.2608 -0.6863
14374TIP3    H164613   6.336   2.963  11.641  0.9211 -2.0047  0.0403
14374TIP3    H264614   6.395   3.019  11.514 -0.5763  2.3100  1.0826
14375TIP3   OH264615   6.565   3.392  11.729 -0.6928 -0.3125  0.2676
14375TIP3    H164616   6.639   3.392  11.789 -1.7020  0.1587  1.5600
14375TIP3    H264617   6.488   3.377  11.785 -1.5679 -1.0107 -1.0570
14376TIP3   OH264618   3.301   3.353   0.113  0.4585  0.0488 -0.6830
14376TIP3    H164619   3.328   3.418   0.048  0.7404 -0.8304 -1.4704
14376TIP3    H264620   3.240   3.296   0.066  1.6301 -1.3511 -0.5749
14377TIP3   OH264621   3.136   5.767  14.735 -0.0512 -0.0223 -0.0692
14377TIP3    H164622   3.074   5.694  14.724  0.3428 -0.3128 -0.4264
14377TIP3    H264623   3.222   5.725  14.734  0.4827  0.7141 -4.1563
14378TIP3   OH264624   4.896   0.503  15.271  0.1642  0.3387 -0.1833
14378TIP3    H164625   4.819   0.559  15.263  0.4652  1.2178  2.2856
14378TIP3    H264626   4.940   0.511  15.187 -1.5490  1.1377 -1.0612
14379TIP3   OH264627   4.977   4.458  15.709 -0.0339  0.1278 -0.0889
14379TIP3    H164628   4.997   4.365  15.704 -0.1952  0.1506 -1.4865
14379TIP3    H264629   5.041   4.493  15.772  0.1891 -0.8678  0.2588
14380TIP3   OH264630   1.198   5.942  13.772  0.1621 -0.3411 -0.1167
14380TIP3    H164631   1.291   5.921  13.774 -0.0813 -2.3463 -3.0045
14380TIP3    H264632   1.155   5.863  13.805 -0.5379  0.2824  0.4852
14381TIP3   OH264633   3.451   5.619   2.954  0.2576  0.2464 -1.2087
14381TIP3    H164634   3.463   5.624   3.049  0.8962 -0.9844 -1.2063
14381TIP3    H264635   3.393   5.693   2.934 -1.1684 -0.3864  0.3381
14382TIP3   OH264636   5.963   6.368  14.142 -0.2125 -0.4812  0.1828
14382TIP3    H164637   5.950   6.375  14.048  0.0405  1.5711  0.2434
14382TIP3    H264638   6.054   6.338  14.152 -0.7487 -2.3547 -0.1869
14383TIP3   OH264639   0.104   2.108   4.393  0.2011 -0.0424 -0.4978
14383TIP3    H164640   0.060   2.182   4.433 -0.7038 -1.1220  0.5742
14383TIP3    H264641   0.034   2.055   4.355  0.6265 -1.2602  0.3373
14384TIP3   OH264642   4.005   5.107  12.504 -0.0331 -0.5267 -0.1932
14384TIP3    H164643   3.951   5.073  12.433 -0.4628  0.5426 -0.3948
14384TIP3    H264644   3.993   5.202  12.501  0.1589 -0.4312  1.1276
14385TIP3   OH264645   2.412   1.624   5.779 -0.0502 -0.5086 -0.1974
14385TIP3    H164646   2.320   1.614   5.754 -0.3485  1.7936 -0.2548
14385TIP3    H264647   2.440   1.536   5.805 -1.8331 -1.5489 -1.5795
14386TIP3   OH264648   0.496   2.933  13.610 -0.0632 -0.4305  0.3200
14386TIP3    H164649   0.518   2.926  13.516  0.3970  1.3168  0.2615
14386TIP3    H264650   0.581   2.933  13.654 -0.2726 -1.0853  0.7323
14387TIP3   OH264651   5.390   3.240   4.431 -0.1345 -0.2272  0.2246
14387TIP3    H164652   5.323   3.177   4.460 -0.2616  0.0098  0.4483
14387TIP3    H264653   5.432   3.269   4.511  0.0325 -0.1426  0.1069
14388TIP3   OH264654   4.489   3.040  12.817 -0.0552  0.4837  0.4571
14388TIP3    H164655   4.581   3.019  12.806  0.0740  0.5055  1.4624
14388TIP3    H264656   4.476   3.044  12.911 -1.4450 -1.1094  0.3876
14389TIP3   OH264657   0.405   4.320   3.506  0.4154 -0.3031 -0.1418
14389TIP3    H164658   0.360   4.403   3.494 -0.0899 -0.6060 -0.3524
14389TIP3    H264659   0.497   4.344   3.515  0.2697  0.2799 -0.1836
14390TIP3   OH264660   2.156   0.699  13.935 -0.2323  0.2767  0.2516
14390TIP3    H164661   2.155   0.664  13.846  0.9778  0.0475  0.3129
14390TIP3    H264662   2.215   0.775  13.930  2.1257 -1.3410  1.3910
14391TIP3   OH264663   5.405   4.647   3.328 -0.0080 -0.0555  0.6976
14391TIP3    H164664   5.430   4.680   3.413 -1.2448  3.3214 -0.0912
14391TIP3    H264665   5.313   4.622   3.338  0.3361 -1.4235  0.7366
14392TIP3   OH264666   0.650   5.924  14.138  0.6308  0.2201 -0.2799
14392TIP3    H164667   0.632   5.846  14.085  1.0433 -0.1832  0.1509
14392TIP3    H264668   0.591   5.916  14.213  1.3703 -0.2254  0.2797
14393TIP3   OH264669   2.419   2.391   0.790 -0.1905 -0.5123  0.1523
14393TIP3    H164670   2.337   2.428   0.824 -0.0783 -0.7660  0.7073
14393TIP3    H264671   2.404   2.297   0.789  0.1724 -0.5739  0.4584
14394TIP3   OH264672   3.792   4.878   6.609 -0.4524 -0.0512  0.0791
14394TIP3    H164673   3.877   4.874   6.565 -0.2522 -0.2299  0.4763
14394TIP3    H264674   3.778   4.971   6.627 -0.7463  0.0753 -0.7617
14395TIP3   OH264675   0.507   3.893  16.734 -0.3927 -0.1880  0.2661
14395TIP3    H164676   0.599   3.871  16.718 -0.3291  0.5035 -0.3965
14395TIP3    H264677   0.492   3.868  16.825 -0.0922 -2.0909 -0.1695
14396TIP3   OH264678   1.965   4.005   3.175  0.5411 -0.0218  0.0950
14396TIP3    H164679   1.916   3.929   3.143  0.5644  0.0861 -0.1948
14396TIP3    H264680   1.992   3.980   3.264  1.8795 -0.9931 -0.5384
14397TIP3   OH264681   4.885   3.610   4.645 -0.3178 -0.4377  0.4974
14397TIP3    H164682   4.791   3.597   4.632 -0.4637 -0.7682  1.7762
14397TIP3    H264683   4.917   3.638   4.559 -1.5992 -0.2138  0.0652
14398TIP3   OH264684   2.261   6.060   5.829  0.8211 -0.4993  0.1023
14398TIP3    H164685   2.183   6.016   5.795 -0.1476 -0.3239  1.9151
14398TIP3    H264686   2.278   6.130   5.766  0.4546 -1.4774 -1.1321
14399TIP3   OH264687   3.303   4.055   1.609 -0.1833 -0.1749 -0.3596
14399TIP3    H164688   3.272   3.970   1.579 -0.9179  0.9797 -3.2112
14399TIP3    H264689   3.396   4.057   1.585 -0.5903  0.4567 -1.9912
14400TIP3   OH264690   5.434   5.582   2.918 -0.3114 -0.3884  0.0309
14400TIP3    H164691   5.358   5.525   2.908 -0.2853 -0.1791 -1.6383
14400TIP3    H264692   5.407   5.666   2.879  0.3544  0.0862  0.5569
14401TIP3   OH264693   6.749   0.631  13.698 -0.2121 -0.2335  0.3627
14401TIP3    H164694   6.746   0.652  13.605  1.5639 -0.9134  0.1161
14401TIP3    H264695   6.697   0.551  13.707 -0.5026 -0.0873 -0.0251
14402TIP3   OH264696   4.441   3.852   0.247 -0.0777  0.4518  0.3734
14402TIP3    H164697   4.481   3.939   0.244 -0.3350  0.5572 -0.5184
14402TIP3    H264698   4.435   3.826   0.155 -1.3273  0.1036  0.5348
14403TIP3   OH264699   1.286   6.383   5.089 -0.4674 -0.3896  0.4567
14403TIP3    H164700   1.271   6.302   5.039  0.4848  0.2423 -0.9293
14403TIP3    H264701   1.379   6.402   5.076 -0.5101  0.5536  1.3643
14404TIP3   OH264702   0.908   4.335  12.826  0.1277 -0.1186  0.0438
14404TIP3    H164703   0.861   4.254  12.809 -0.0582 -0.3760  1.6038
14404TIP3    H264704   0.904   4.346  12.921  3.2924 -0.2002  0.2949
14405TIP3   OH264705   4.312   1.188   1.260  0.1972 -0.6552 -0.0085
14405TIP3    H164706   4.319   1.284   1.260 -2.1742 -0.4020 -0.8320
14405TIP3    H264707   4.373   1.160   1.193 -0.4746  0.4842 -1.1545
14406TIP3   OH264708   0.374   2.090   2.143 -0.7838 -0.1460 -0.3489
14406TIP3    H164709   0.433   2.163   2.130 -1.2836  0.2233 -0.5849
14406TIP3    H264710   0.428   2.012   2.128 -0.6155  0.1975 -1.6648
14407TIP3   OH264711   4.841   4.744  12.875  0.1856  0.2727  0.0781
14407TIP3    H164712   4.814   4.664  12.921  0.4533  0.8882  1.3490
14407TIP3    H264713   4.759   4.791  12.858 -0.0091 -0.4172 -1.0024
14408TIP3   OH264714   2.780   5.445  16.734 -0.2488 -0.0131 -0.5060
14408TIP3    H164715   2.708   5.475  16.789 -0.2566  0.3277 -0.6983
14408TIP3    H264716   2.751   5.463  16.645  0.3706  0.8136 -0.5580
14409TIP3   OH264717   4.216   5.732   0.313  0.1635  0.3486  0.3647
14409TIP3    H164718   4.169   5.778   0.382 -0.2170  1.2957 -0.4986
14409TIP3    H264719   4.147   5.696   0.257  0.3648  2.6055 -1.4852
14410TIP3   OH264720   4.723   0.323   1.303 -0.4738  0.0721 -0.2900
14410TIP3    H164721   4.786   0.253   1.289 -0.0502  0.5564 -0.8739
14410TIP3    H264722   4.695   0.348   1.215  1.2535  2.3113 -0.3072
14411TIP3   OH264723   1.825   1.316   1.815 -0.2925  0.1048  0.1401
14411TIP3    H164724   1.804   1.303   1.907 -1.4987  1.5756  0.1136
14411TIP3    H264725   1.762   1.262   1.767  2.4309 -3.4038  0.1026
14412TIP3   OH264726   0.974   0.012  15.097 -0.2295  0.0610  0.3699
14412TIP3    H164727   0.974  -0.037  15.015 -0.2675 -1.5295  1.2717
14412TIP3    H264728   0.891   0.060  15.096 -0.8282 -0.9371  0.0190
14413TIP3   OH264729   0.446   0.481  14.859 -0.1929  0.1416 -0.0693
14413TIP3    H164730   0.402   0.565  14.868 -0.4350 -0.1101  1.4665
14413TIP3    H264731   0.507   0.478  14.933  0.9152 -0.4017 -0.9657
14414TIP3   OH264732   2.761   1.399  16.728 -0.0180 -0.2960  0.0653
14414TIP3    H164733   2.727   1.448  16.653 -1.2963 -1.5365 -0.1939
14414TIP3    H264734   2.851   1.377  16.703 -0.2680 -0.2720 -0.8931
14415TIP3   OH264735   4.690   1.814   5.523  0.3278 -0.1136  0.0285
14415TIP3    H164736   4.676   1.809   5.429  1.7536 -0.8567 -0.1767
14415TIP3    H264737   4.639   1.889   5.551 -0.1837  0.0673 -1.3240
14416TIP3   OH264738   3.109   1.339   3.282 -0.3964  0.0314 -0.0118
14416TIP3    H164739   3.141   1.427   3.303  1.1201 -0.5094  0.0304
14416TIP3    H264740   3.122   1.289   3.362  2.2557 -1.1609 -1.0678
14417TIP3   OH264741   2.250   2.977  16.573  0.1673  0.2755 -0.0310
14417TIP3    H164742   2.317   3.022  16.624 -0.2791  1.5487 -0.5234
14417TIP3    H264743   2.296   2.902  16.534  0.4205 -1.0782  2.5687
14418TIP3   OH264744   6.233   0.640  11.520 -0.1416  0.0170 -0.1656
14418TIP3    H164745   6.146   0.601  11.530  0.2164 -1.2307 -1.6296
14418TIP3    H264746   6.280   0.581  11.461  0.9657  1.8422 -1.2162
14419TIP3   OH264747   1.433   4.101  15.248  0.2812 -0.2253  0.1094
14419TIP3    H164748   1.463   4.185  15.284 -2.4070  0.4795  0.9518
14419TIP3    H264749   1.447   4.038  15.319  3.0296 -0.7802 -0.7867
14420TIP3   OH264750   1.812   0.887   6.302  0.0613 -0.2719  0.6571
14420TIP3    H164751   1.733   0.836   6.285 -0.5955  1.1869 -1.0963
14420TIP3    H264752   1.882   0.823   6.305 -0.6973 -1.3403 -1.6347
14421TIP3   OH264753   6.215   4.804  17.292  0.7410  1.0102  0.1104
14421TIP3    H164754   6.274   4.757  17.232 -0.5466 -1.0925  0.3652
14421TIP3    H264755   6.226   4.760  17.376 -3.1456 -1.5468 -0.4408
14422TIP3   OH264756   3.462   5.845  13.906 -1.0212 -0.2908  0.6348
14422TIP3    H164757   3.437   5.757  13.935 -1.3080 -1.2612 -2.2535
14422TIP3    H264758   3.396   5.868  13.841  0.0800  1.2897  0.0163
14423TIP3   OH264759   3.683   5.356   0.746  0.0217  0.5143  0.2769
14423TIP3    H164760   3.643   5.354   0.659 -0.5207  0.9499  0.5146
14423TIP3    H264761   3.757   5.416   0.737  1.1402 -0.8685 -0.3632
14424TIP3   OH264762   2.593   6.609  13.621 -0.4253 -0.1920  0.5777
14424TIP3    H164763   2.613   6.516  13.622  0.5406  0.0104  1.0784
14424TIP3    H264764   2.510   6.617  13.667 -0.5320 -0.8031  0.4958
14425TIP3   OH264765   0.086   0.056  12.155 -0.0980 -0.0101 -0.4719
14425TIP3    H164766   0.009   0.100  12.119 -0.6120 -0.8810 -0.4599
14425TIP3    H264767   0.063   0.041  12.247 -0.8774 -2.2731 -0.9660
14426TIP3   OH264768   6.636   5.990  16.239  0.2801  0.1850  0.3464
14426TIP3    H164769   6.677   5.987  16.326  0.8530  1.2075  0.1326
14426TIP3    H264770   6.702   5.956  16.180  1.0416  2.2026 -0.0536
14427TIP3   OH264771   5.242   3.962  11.785  0.2962  0.7262  0.5993
14427TIP3    H164772   5.157   3.921  11.804  0.5959 -0.8617 -1.1393
14427TIP3    H264773   5.219   4.042  11.737 -0.2961 -0.5995 -1.5088
14428TIP3   OH264774   1.677   0.224   5.599 -0.4869  0.2725 -0.2123
14428TIP3    H164775   1.581   0.232   5.605 -0.4765  1.6001 -1.3753
14428TIP3    H264776   1.693   0.200   5.508  0.3383  0.7809 -0.2006
14429TIP3   OH264777   4.920   0.582  14.520  0.6708  0.1629  0.4035
14429TIP3    H164778   4.942   0.640  14.447 -0.6771 -0.3901 -0.4807
14429TIP3    H264779   4.824   0.588  14.527  0.3618 -2.6507 -0.3609
14430TIP3   OH264780   6.230   3.154   2.271  0.2858  0.2156  0.0011
14430TIP3    H164781   6.289   3.193   2.336  0.2898 -0.5220  0.4501
14430TIP3    H264782   6.240   3.059   2.283  0.2788  0.0643 -1.0712
14431TIP3   OH264783   4.422   4.196   2.052 -0.6437 -0.5220 -0.0856
14431TIP3    H164784   4.336   4.155   2.047 -1.5377  1.3595 -2.2246
14431TIP3    H264785   4.451   4.182   2.142 -3.8279  0.0175  1.1529
14432TIP3   OH264786   2.387   6.450   5.058 -0.0076  0.4661  0.7741
14432TIP3    H164787   2.474   6.484   5.078 -0.9544  2.5061  1.8166
14432TIP3    H264788   2.339   6.526   5.024 -1.7908 -0.2132  1.6264
14433TIP3   OH264789   4.884   1.584   1.238 -0.1354  0.0335 -0.5250
14433TIP3    H164790   4.808   1.528   1.221  0.8804 -2.0360  1.2558
14433TIP3    H264791   4.959   1.532   1.209  0.9702 -0.3806  2.6519
14434TIP3   OH264792   3.607   5.237   1.145 -0.2268 -0.2346  1.0027
14434TIP3    H164793   3.613   5.160   1.201 -1.1544 -0.3716  0.9360
14434TIP3    H264794   3.685   5.234   1.090 -1.1889 -2.1920 -0.3458
14435TIP3   OH264795   5.924   0.539  15.139 -1.0254 -0.2433 -0.1414
14435TIP3    H164796   5.949   0.555  15.230  2.8320 -3.1973 -0.4311
14435TIP3    H264797   5.968   0.608  15.089  0.1722 -0.8852 -0.0060
14436TIP3   OH264798   5.253   0.502   2.336  0.8200  0.1760  0.1157
14436TIP3    H164799   5.193   0.460   2.273 -1.2674  0.4265  1.8113
14436TIP3    H264800   5.270   0.588   2.299  0.0396  0.1349 -0.3678
14437TIP3   OH264801   0.021   2.294   5.907 -0.7004  0.2957  0.7696
14437TIP3    H164802  -0.031   2.300   5.987 -2.6915 -1.5108 -0.2772
14437TIP3    H264803  -0.033   2.241   5.848  2.0747 -1.1519 -0.6550
14438TIP3   OH264804   5.788   5.906  16.233  0.0110 -0.0868 -0.5896
14438TIP3    H164805   5.741   5.854  16.297 -1.8051 -1.5451 -2.9696
14438TIP3    H264806   5.865   5.938  16.280 -0.8989 -1.5724  2.0900
14439TIP3   OH264807   2.279   3.010  14.858 -0.2560  0.7521  0.1811
14439TIP3    H164808   2.237   3.096  14.857 -0.1168  0.8212 -0.8260
14439TIP3    H264809   2.317   3.001  14.770  2.1207  0.8375  1.1162
14440TIP3   OH264810   1.259   3.882  15.460 -0.1924 -0.3769  0.0853
14440TIP3    H164811   1.174   3.926  15.451 -0.3402 -0.7231 -0.2402
14440TIP3    H264812   1.261   3.819  15.388  0.1214 -0.7256  0.3933
14441TIP3   OH264813   3.018   6.635   2.104 -0.1658  0.0963 -0.0775
14441TIP3    H164814   2.923   6.643   2.098 -0.1176 -0.0936 -1.4134
14441TIP3    H264815   3.048   6.631   2.013  1.1873  0.8377  0.2989
14442TIP3   OH264816   4.621   0.326   2.114  0.1821 -0.1076 -0.0454
14442TIP3    H164817   4.617   0.258   2.047  0.3835 -0.7522  0.5747
14442TIP3    H264818   4.715   0.342   2.126  0.1330  0.3733 -0.2709
14443TIP3   OH264819   4.168   2.772   6.090 -0.1937 -0.2207  0.1825
14443TIP3    H164820   4.126   2.753   6.006 -0.3185  0.3518  0.1138
14443TIP3    H264821   4.123   2.850   6.123  0.9757  0.5619 -0.0054
14444TIP3   OH264822   2.578   1.468  12.604 -0.2109  0.1637  0.4203
14444TIP3    H164823   2.660   1.430  12.635 -0.0776  1.0478  1.1708
14444TIP3    H264824   2.513   1.438  12.667 -0.5746 -0.9195 -0.4292
14445TIP3   OH264825   1.813   1.006  10.302 -0.0151  0.4013 -0.1677
14445TIP3    H164826   1.728   1.005  10.347 -0.2057 -0.2301 -0.5339
14445TIP3    H264827   1.854   0.923  10.325 -1.1720 -1.1344 -3.0824
14446TIP3   OH264828   0.554   5.700  11.754 -0.3641 -0.2932 -0.2979
14446TIP3    H164829   0.582   5.788  11.778 -0.7554  0.7565 -3.2050
14446TIP3    H264830   0.490   5.675  11.821  0.8978  0.9437  1.4473
14447TIP3   OH264831   5.236   3.919  13.067 -0.0099 -0.4564  0.1798
14447TIP3    H164832   5.320   3.965  13.071  1.0185 -2.2434  0.4365
14447TIP3    H264833   5.226   3.881  13.155 -1.1524 -0.1830  0.1797
14448TIP3   OH264834   4.609   1.707   3.916  0.1035 -0.5505  0.1098
14448TIP3    H164835   4.565   1.758   3.848 -0.2782 -0.8777  0.1076
14448TIP3    H264836   4.597   1.616   3.890 -0.1756 -0.6863  0.6881
14449TIP3   OH264837   4.370   0.104   3.226  0.1621  1.0266 -0.2755
14449TIP3    H164838   4.422   0.112   3.146  0.9750  2.0169  0.3373
14449TIP3    H264839   4.284   0.075   3.196  0.2416  2.0779 -1.5763
14450TIP3   OH264840   1.781   2.088   1.286 -0.3886 -0.0897  0.2732
14450TIP3    H164841   1.790   2.183   1.295  0.2837 -0.1755  0.5824
14450TIP3    H264842   1.777   2.056   1.376  0.7588 -0.4723  0.1964
14451TIP3   OH264843   2.812   6.700  11.693 -0.1839 -0.7038  0.8386
14451TIP3    H164844   2.765   6.683  11.611  0.6048 -0.7116  0.3856
14451TIP3    H264845   2.894   6.741  11.666 -0.4161  0.3792  1.6975
14452TIP3   OH264846   2.862   2.404  15.909 -0.2701 -0.6221  0.0591
14452TIP3    H164847   2.784   2.455  15.888 -0.7482 -0.4960  1.9224
14452TIP3    H264848   2.902   2.384  15.824 -0.3486  2.3646 -0.7936
14453TIP3   OH264849   4.939   5.656   1.803 -0.0386  0.4020 -0.5102
14453TIP3    H164850   4.864   5.657   1.743  1.4701  0.4110 -2.4955
14453TIP3    H264851   4.985   5.738   1.785 -0.9230  1.6977  2.6161
14454TIP3   OH264852   4.206   5.624  11.874  0.1783  0.4106  0.1276
14454TIP3    H164853   4.218   5.534  11.903 -1.8243 -0.7447 -2.2916
14454TIP3    H264854   4.119   5.648  11.905  0.2466  1.1019 -0.1964
14455TIP3   OH264855   3.572   2.372  14.629  0.2396 -1.0101  0.2847
14455TIP3    H164856   3.643   2.319  14.664  3.3648  2.2195 -0.6069
14455TIP3    H264857   3.556   2.439  14.696  0.3153  0.1668 -0.8229
14456TIP3   OH264858   4.844   5.148  15.901  0.5418 -0.4286  0.2917
14456TIP3    H164859   4.854   5.241  15.919 -1.2625  0.1366 -1.3781
14456TIP3    H264860   4.895   5.134  15.821 -2.1746  0.0088 -1.6292
14457TIP3   OH264861   0.112   3.735   3.735 -0.3714 -1.1049  0.0841
14457TIP3    H164862   0.026   3.754   3.695 -0.9125 -0.7306  1.3887
14457TIP3    H264863   0.103   3.646   3.769 -1.1403 -0.2239  2.3936
14458TIP3   OH264864   3.431   2.287   3.550 -0.1104  0.2159 -0.3791
14458TIP3    H164865   3.379   2.227   3.496 -1.7743  1.5338 -0.3283
14458TIP3    H264866   3.368   2.353   3.579  1.4977  1.5486  0.2065
14459TIP3   OH264867   1.202   6.011   4.219  0.2686  0.3989  0.0362
14459TIP3    H164868   1.291   5.986   4.244 -0.0896 -0.6619  0.3048
14459TIP3    H264869   1.145   5.960   4.277 -0.5538 -0.6707 -1.6205
14460TIP3   OH264870   3.246   4.963  16.976  0.7101  0.3259  0.2486
14460TIP3    H164871   3.192   4.896  16.935  0.9112  0.4900 -0.2956
14460TIP3    H264872   3.184   5.032  17.000  0.5854  0.2168  0.2408
14461TIP3   OH264873   5.812   4.924   5.096  0.1787 -0.5118  0.6888
14461TIP3    H164874   5.871   4.925   5.171 -0.4967 -1.2588  1.2397
14461TIP3    H264875   5.737   4.976   5.122 -0.1843 -1.0030  0.6434
14462TIP3   OH264876   1.689   1.780   1.727  0.3670 -0.9121  0.2039
14462TIP3    H164877   1.719   1.813   1.812  1.1354 -0.2920 -0.2954
14462TIP3    H264878   1.700   1.854   1.667 -1.9881 -0.6882 -0.0686
14463TIP3   OH264879   3.884   4.970  11.913  0.6111  0.3376  0.5556
14463TIP3    H164880   3.842   4.884  11.920  2.6469 -0.6859  1.0000
14463TIP3    H264881   3.856   5.004  11.828 -0.3091 -0.7085  0.4198
14464TIP3   OH264882   4.099   4.983  16.765 -0.5198  0.0384  0.0590
14464TIP3    H164883   4.118   4.894  16.792  1.6133  1.2356  3.0488
14464TIP3    H264884   4.006   4.995  16.784 -0.5450 -1.1678  0.7700
14465TIP3   OH264885   5.911   6.649  14.150  0.5616 -0.1290 -0.9190
14465TIP3    H164886   5.948   6.563  14.130 -1.9252 -1.1868 -1.3102
14465TIP3    H264887   5.885   6.643  14.242 -1.3056 -0.4869 -1.4464
14466TIP3   OH264888   6.775   5.252   5.838  0.4190 -0.4287  0.0991
14466TIP3    H164889   6.693   5.257   5.790  0.5369 -1.6392 -0.2706
14466TIP3    H264890   6.752   5.217   5.924  0.8423 -3.6293 -0.9814
14467TIP3   OH264891   5.033   1.988  10.558  0.4412  0.1674  0.0292
14467TIP3    H164892   5.103   2.001  10.622  1.0635  0.3956 -0.6887
14467TIP3    H264893   5.048   2.055  10.492 -0.5916  0.3638 -0.0306
14468TIP3   OH264894   1.203   2.815   5.362  0.2881 -0.2975 -0.0450
14468TIP3    H164895   1.262   2.891   5.353 -0.2221  0.2880  1.3094
14468TIP3    H264896   1.182   2.812   5.455 -1.2978 -0.9117 -0.3958
14469TIP3   OH264897   5.197   1.772   5.752 -0.5175  0.2238 -0.1415
14469TIP3    H164898   5.230   1.700   5.698  1.5988  1.2062 -0.2547
14469TIP3    H264899   5.109   1.787   5.720  0.0503 -0.3927 -2.1459
14470TIP3   OH264900   3.848   5.557   5.134  0.6111  0.1645 -0.0285
14470TIP3    H164901   3.911   5.590   5.070  0.3755 -0.2932 -0.5065
14470TIP3    H264902   3.790   5.631   5.151  2.4711  1.2737  2.0080
14471TIP3   OH264903   0.596   4.957  15.301 -0.8055  0.0204 -0.0476
14471TIP3    H164904   0.673   4.964  15.244 -2.0860  1.8094 -1.7231
14471TIP3    H264905   0.629   4.974  15.389  0.8661 -0.2106 -0.6072
14472TIP3   OH264906   5.618   0.721  14.689 -0.0210 -0.0273  0.3051
14472TIP3    H164907   5.604   0.815  14.676  0.9277  0.2994  1.4723
14472TIP3    H264908   5.546   0.679  14.641 -1.1840  1.3246  0.7938
14473TIP3   OH264909   1.355   4.595   1.623  0.0934 -0.3609 -0.3713
14473TIP3    H164910   1.263   4.610   1.605 -0.4431 -1.1216  1.4750
14473TIP3    H264911   1.363   4.500   1.629  0.6949 -0.2667  0.7375
14474TIP3   OH264912   0.679   1.424  12.434 -0.0419  0.7352 -0.2473
14474TIP3    H164913   0.686   1.431  12.338  1.5606 -0.1950 -0.2400
14474TIP3    H264914   0.645   1.335  12.449 -0.5323  0.9715  0.0476
14475TIP3   OH264915   5.455   3.374   4.692 -0.1713  0.6253  0.1790
14475TIP3    H164916   5.533   3.421   4.661  1.1453 -0.5158  1.6154
14475TIP3    H264917   5.432   3.418   4.774  1.5980 -1.6460  2.0009
14476TIP3   OH264918   5.677   1.887  11.585  0.2175  0.2891 -0.1053
14476TIP3    H164919   5.720   1.854  11.507  2.1553 -1.3772  1.5670
14476TIP3    H264920   5.671   1.982  11.570 -1.4508 -0.1760 -3.1248
14477TIP3   OH264921   3.210   5.194   3.739 -0.0598 -0.7175  0.3022
14477TIP3    H164922   3.133   5.215   3.791  1.0756 -0.5457  2.0062
14477TIP3    H264923   3.235   5.278   3.698 -1.0299 -0.8814 -0.6753
14478TIP3   OH264924   4.681   6.473  16.884 -0.8330  0.0066 -0.3620
14478TIP3    H164925   4.720   6.555  16.856 -0.5691  0.1584  0.4215
14478TIP3    H264926   4.732   6.405  16.839 -1.1832  0.2671 -1.1689
14479TIP3   OH264927   1.376   6.367   1.433  0.1272  0.3680  0.0554
14479TIP3    H164928   1.343   6.313   1.505  0.5217 -0.1800 -0.1747
14479TIP3    H264929   1.343   6.325   1.354 -2.0096  2.0801 -0.0663
14480TIP3   OH264930   4.061   0.021  16.289  0.0542  0.1907  0.6802
14480TIP3    H164931   4.145   0.044  16.329 -0.7054  0.9039  1.9464
14480TIP3    H264932   4.023  -0.044  16.347 -0.6695  0.5531  0.6303
14481TIP3   OH264933   5.973   1.208   4.834 -0.1755 -0.0786  0.1374
14481TIP3    H164934   5.949   1.136   4.776 -2.1230  1.0999 -0.6081
14481TIP3    H264935   6.069   1.211   4.831 -0.0575 -2.4176 -0.0187
14482TIP3   OH264936   2.713   3.840   2.636 -0.4219  0.3268 -0.5763
14482TIP3    H164937   2.678   3.793   2.712  0.3205 -0.3811 -0.6547
14482TIP3    H264938   2.647   3.831   2.568 -1.7189  2.0984  0.3581
14483TIP3   OH264939   2.539   3.592   3.680 -0.0732  0.5157 -0.1541
14483TIP3    H164940   2.510   3.530   3.613 -1.2859 -0.0436  0.8346
14483TIP3    H264941   2.629   3.612   3.657 -0.9424  1.7173 -2.9558
14484TIP3   OH264942   4.497   0.570   4.900  0.0632 -0.5977 -0.3215
14484TIP3    H164943   4.436   0.515   4.948 -1.5714  0.0794 -1.5359
14484TIP3    H264944   4.445   0.644   4.869  1.8309  0.8318 -0.1149
14485TIP3   OH264945   5.168   5.293  11.194  0.4248  0.8150 -0.5098
14485TIP3    H164946   5.112   5.235  11.245  1.1437  0.0696 -0.5441
14485TIP3    H264947   5.108   5.356  11.154 -0.4501 -0.3040 -0.9997
14486TIP3   OH264948   0.075   1.574   3.864  0.1820  0.0774 -0.0349
14486TIP3    H164949   0.042   1.660   3.893 -1.7116 -0.4037 -0.6117
14486TIP3    H264950   0.124   1.593   3.784 -0.2806  0.6343 -0.1956
14487TIP3   OH264951   3.777   0.830   4.882 -0.3512  0.2696 -0.2098
14487TIP3    H164952   3.747   0.778   4.808 -0.6983 -0.3400  0.3432
14487TIP3    H264953   3.710   0.899   4.892  0.0036  0.7135 -0.8169
14488TIP3   OH264954   1.374   0.700  14.362 -0.0601 -0.5109 -0.2695
14488TIP3    H164955   1.325   0.766  14.412  1.0040 -0.0798  0.2392
14488TIP3    H264956   1.336   0.617  14.389 -1.3220 -0.1312 -0.8091
14489TIP3   OH264957   1.609   6.672   3.751  0.0466  0.2015  0.0065
14489TIP3    H164958   1.563   6.705   3.673  0.1680 -0.6630 -0.4474
14489TIP3    H264959   1.654   6.749   3.786  0.9217  0.3913 -1.4430
14490TIP3   OH264960   2.934   0.087  12.094  0.5639  0.1377  0.0614
14490TIP3    H164961   2.979   0.160  12.137 -1.5108  0.7376  1.3806
14490TIP3    H264962   2.871   0.129  12.035  0.3768 -0.6216 -0.2939
14491TIP3   OH264963   1.725   5.330   3.690 -0.4163  0.4485  0.4946
14491TIP3    H164964   1.683   5.416   3.684  0.4699  0.8910  0.4702
14491TIP3    H264965   1.679   5.286   3.762 -0.5286  1.1502  0.8643
14492TIP3   OH264966   2.465   1.773  16.446 -0.2402 -0.7402  0.8197
14492TIP3    H164967   2.468   1.808  16.535  0.0330  0.3597  0.3902
14492TIP3    H264968   2.382   1.806  16.410 -1.1966 -2.5679  1.1938
14493TIP3   OH264969   0.469   5.920  13.821 -0.6995 -0.2160  0.1153
14493TIP3    H164970   0.408   5.846  13.826 -1.6355  0.5781  0.8553
14493TIP3    H264971   0.432   5.985  13.880  0.7438  0.3935  0.3793
14494TIP3   OH264972   1.273   3.205   4.239  0.5268 -0.2878 -0.0261
14494TIP3    H164973   1.310   3.145   4.304  2.1622  0.9872  0.2872
14494TIP3    H264974   1.349   3.247   4.199 -0.5496  1.5169 -0.2765
14495TIP3   OH264975   2.007   4.800  12.530  0.2858  0.2013  0.5297
14495TIP3    H164976   1.990   4.880  12.579 -0.4573 -0.9068  2.2001
14495TIP3    H264977   1.983   4.821  12.440  2.8735  2.6837  0.3077
14496TIP3   OH264978   3.351   5.445  12.693  0.3092  0.4956 -0.7419
14496TIP3    H164979   3.425   5.476  12.641  0.9968 -1.1175 -0.7787
14496TIP3    H264980   3.322   5.365  12.648  0.6351 -0.6974  1.0857
14497TIP3   OH264981   1.555   2.693   4.191  0.3471  0.3483  0.0524
14497TIP3    H164982   1.489   2.736   4.244  0.4089  0.2090  0.2416
14497TIP3    H264983   1.628   2.755   4.187  0.1238  0.5937 -0.3356
14498TIP3   OH264984   2.984   5.413  10.350  0.1243 -0.0174 -0.0755
14498TIP3    H164985   2.940   5.491  10.318 -0.8693 -0.6163 -0.2270
14498TIP3    H264986   2.913   5.358  10.385  0.7737 -0.9087 -0.1162
14499TIP3   OH264987   1.630   0.538  12.982 -0.3062  0.8166  0.2717
14499TIP3    H164988   1.563   0.498  13.037  0.4573  0.2654  0.8102
14499TIP3    H264989   1.591   0.621  12.954 -0.8608  0.9268  1.3212
14500TIP3   OH264990   4.514   1.714   1.442  0.0698 -0.1885  0.0618
14500TIP3    H164991   4.486   1.762   1.520 -2.1953  1.0356 -1.3860
14500TIP3    H264992   4.437   1.662   1.417  1.3003 -1.8443 -0.4567
14501TIP3   OH264993   0.551   5.047   2.596  0.2588  0.1782 -0.2447
14501TIP3    H164994   0.514   5.128   2.633  0.0441 -0.1959  0.3738
14501TIP3    H264995   0.519   4.978   2.654  0.3884 -0.3601 -0.8101
14502TIP3   OH264996   6.371   3.048  14.573 -0.0414  0.4949 -0.3676
14502TIP3    H164997   6.301   3.100  14.534 -1.9420 -0.7736  1.1667
14502TIP3    H264998   6.354   3.053  14.667  0.5442 -1.7515 -0.0980
14503TIP3   OH264999   2.938   0.272   6.473 -0.0024  0.1486 -0.0253
14503TIP3    H165000   2.851   0.242   6.447 -0.1587  0.2476  0.3771
14503TIP3    H265001   2.965   0.212   6.543  0.7372 -0.5929 -0.9094
14504TIP3   OH265002   5.387   3.596  12.668 -0.9320 -0.7402  0.2613
14504TIP3    H165003   5.441   3.521  12.693  1.0927  0.7841  0.6332
14504TIP3    H265004   5.435   3.639  12.598 -0.1877  2.1951  2.3761
14505TIP3   OH265005   0.603   1.774   3.599 -0.0668 -0.8862 -0.3377
14505TIP3    H165006   0.600   1.797   3.692 -0.2323 -1.8286 -0.0966
14505TIP3    H265007   0.512   1.754   3.576 -0.2871  0.8369 -1.1225
14506TIP3   OH265008   2.281   0.717  16.788 -0.3747 -0.2482  0.4245
14506TIP3    H165009   2.339   0.768  16.733 -0.4967  0.3768  0.8679
14506TIP3    H265010   2.228   0.666  16.727 -1.6146  1.6169 -0.1136
14507TIP3   OH265011   3.148   6.317  10.818  0.2769 -0.4530  0.2102
14507TIP3    H165012   3.228   6.287  10.776 -0.6842 -1.6547 -0.8494
14507TIP3    H265013   3.119   6.392  10.766 -1.0654 -2.1129 -1.5609
14508TIP3   OH265014   2.939   4.312   2.851 -0.1643 -0.5704  0.5561
14508TIP3    H165015   3.032   4.301   2.831 -0.2726  0.1825 -0.4526
14508TIP3    H265016   2.894   4.255   2.789 -0.4558  0.8719 -0.6113
14509TIP3   OH265017   5.024   1.850   6.131 -0.4751 -0.3511  0.5677
14509TIP3    H165018   5.080   1.872   6.206  0.8449  0.9661 -0.7512
14509TIP3    H265019   5.040   1.757   6.115  0.8174 -0.1534  0.6303
14510TIP3   OH265020   2.565   4.011   6.151 -0.5563  0.2916 -0.3202
14510TIP3    H165021   2.653   3.997   6.117 -0.2795 -0.9526  0.7873
14510TIP3    H265022   2.573   4.087   6.209  0.0529 -0.4374  0.5789
14511TIP3   OH265023   4.080   5.896   2.236  0.1889  0.1113 -0.3602
14511TIP3    H165024   4.062   5.831   2.303 -2.0313 -1.6517 -2.5003
14511TIP3    H265025   4.016   5.966   2.252  0.6608  0.4314  0.1956
14512TIP3   OH265026   2.807   6.206   5.544 -0.2817  0.1691  0.2468
14512TIP3    H165027   2.827   6.115   5.565 -1.4714 -0.1824 -0.0894
14512TIP3    H265028   2.764   6.202   5.458 -1.2541  0.9378  0.6816
14513TIP3   OH265029   0.166   1.121  16.738 -0.1422  0.1676  0.4252
14513TIP3    H165030   0.150   1.178  16.662  0.2457 -1.2416 -0.7555
14513TIP3    H265031   0.083   1.119  16.784 -0.2700  1.3743  0.2916
14514TIP3   OH265032   5.377   1.155  11.195  0.1364  0.2886  0.2589
14514TIP3    H165033   5.459   1.199  11.214  1.3709 -1.0554 -1.6078
14514TIP3    H265034   5.353   1.185  11.108  0.7839 -2.2412 -0.8925
14515TIP3   OH265035   3.104   1.687   2.075 -0.1785  0.1549  0.4223
14515TIP3    H165036   3.028   1.722   2.121 -1.0852  1.2674 -1.7765
14515TIP3    H265037   3.142   1.762   2.029  0.9895 -0.7900 -0.2316
14516TIP3   OH265038   5.401   1.520   0.677  0.8021 -0.0350  0.2565
14516TIP3    H165039   5.373   1.517   0.769  0.4422 -0.2642  0.1415
14516TIP3    H265040   5.411   1.428   0.652 -1.2630 -0.1011 -0.5776
14517TIP3   OH265041   0.859   2.341   0.236 -0.1665 -0.5048 -0.4157
14517TIP3    H165042   0.813   2.365   0.156  1.0671  0.3698 -0.8877
14517TIP3    H265043   0.812   2.386   0.305  1.3535  2.4474 -1.1563
14518TIP3   OH265044   5.740   3.061  12.400 -0.6611 -0.0533 -0.1789
14518TIP3    H165045   5.753   2.983  12.346  2.0006  0.6954 -0.7961
14518TIP3    H265046   5.741   3.134  12.338  0.2962  0.6730  0.6588
14519TIP3   OH265047   5.921   5.567  12.289 -0.0183 -0.8942 -0.0177
14519TIP3    H165048   5.999   5.539  12.336  0.3585  0.5984  0.2934
14519TIP3    H265049   5.953   5.594  12.203 -0.5098 -2.2854 -0.6652
14520TIP3   OH265050   2.299   4.967   3.866 -0.1155  0.4323 -0.6168
14520TIP3    H165051   2.361   5.024   3.912 -0.6209  0.3075  0.2308
14520TIP3    H265052   2.346   4.941   3.786  0.7648  0.6666 -0.1923
14521TIP3   OH265053   0.214   5.491  13.948  0.0993  0.0500  0.0875
14521TIP3    H165054   0.174   5.518  14.030  0.0318 -0.6708  0.2926
14521TIP3    H265055   0.268   5.415  13.970  0.5228  0.1843 -0.4316
14522TIP3   OH265056   4.525   2.166   0.046 -0.4963 -0.5647  0.0844
14522TIP3    H165057   4.612   2.201   0.060  0.2457 -2.1827 -0.2545
14522TIP3    H265058   4.492   2.146   0.134  0.3575 -1.9125  0.1275
14523TIP3   OH265059   5.634   5.617   4.423  0.3642  0.6545 -0.1391
14523TIP3    H165060   5.631   5.616   4.327  0.8391  0.1663 -0.1517
14523TIP3    H265061   5.615   5.527   4.448  0.3426  0.7615  0.2258
14524TIP3   OH265062   4.848   5.910   5.440  0.4955 -0.5932 -0.0063
14524TIP3    H165063   4.833   5.821   5.471  0.3447  0.3541  2.9508
14524TIP3    H265064   4.944   5.918   5.438  0.5534 -0.2007  1.9830
14525TIP3   OH265065   3.704   3.388  12.626  0.0157  0.4083 -0.2734
14525TIP3    H165066   3.685   3.373  12.533  0.0093  3.2442 -0.8073
14525TIP3    H265067   3.800   3.387  12.631  0.0094 -1.0914 -0.0097
14526TIP3   OH265068   4.850   4.550   6.495 -0.2199  0.1517  0.0257
14526TIP3    H165069   4.843   4.465   6.537  0.5901 -0.6903 -1.4261
14526TIP3    H265070   4.923   4.593   6.540 -0.0106 -0.3181  0.1392
14527TIP3   OH265071   6.273   2.916   0.716  0.4438  0.4151 -0.0018
14527TIP3    H165072   6.320   2.976   0.659 -2.1812  2.1265 -0.5292
14527TIP3    H265073   6.203   2.968   0.754 -0.3646 -1.6974  1.6309
14528TIP3   OH265074   6.095   3.841   0.366 -0.3906 -0.2221  0.2819
14528TIP3    H165075   6.118   3.934   0.375 -0.8254 -0.0762 -0.0510
14528TIP3    H265076   6.077   3.812   0.455 -1.4194  0.3321  0.2746
14529TIP3   OH265077   0.643   6.244   3.053  0.2255 -0.3460 -0.0986
14529TIP3    H165078   0.642   6.296   3.134  2.6256  0.5928 -0.5723
14529TIP3    H265079   0.564   6.190   3.058  0.3810 -0.5026  2.9964
14530TIP3   OH265080   6.157   3.621  12.284 -0.7234  0.3359 -0.1900
14530TIP3    H165081   6.248   3.650  12.275 -1.3747  1.9157 -2.4408
14530TIP3    H265082   6.147   3.550  12.220 -0.7384 -0.8672  1.0901
14531TIP3   OH265083   4.317   3.923  14.175 -0.2758  0.5511  0.0331
14531TIP3    H165084   4.328   3.924  14.270  1.5191  3.6995 -0.0845
14531TIP3    H265085   4.388   3.867  14.143 -0.3736  0.1703  0.4646
14532TIP3   OH265086   1.612   1.977  13.169 -0.0026  0.1971  0.1541
14532TIP3    H165087   1.575   1.972  13.081  0.6946  0.7692 -0.1840
14532TIP3    H265088   1.536   1.990  13.226 -0.3806  0.8154 -0.4659
14533TIP3   OH265089   2.547   5.208  14.441  0.0844 -0.3613  0.1014
14533TIP3    H165090   2.475   5.148  14.458 -1.9206  1.5722 -1.0417
14533TIP3    H265091   2.517   5.262  14.368  1.2023  2.8116  1.7973
14534TIP3   OH265092   6.462   5.649  16.859  0.2156  0.2147  0.0565
14534TIP3    H165093   6.366   5.650  16.854  0.2075  0.5295  0.2158
14534TIP3    H265094   6.486   5.559  16.840 -0.2368 -0.4059  2.1041
14535TIP3   OH265095   5.146   1.350   0.537 -0.2926 -0.4388 -0.6767
14535TIP3    H165096   5.134   1.262   0.501 -0.1023  0.5565 -3.4973
14535TIP3    H265097   5.239   1.370   0.522 -0.5591  0.5977 -1.0786
14536TIP3   OH265098   6.807   3.684   4.113  0.2209 -0.1133 -0.3807
14536TIP3    H165099   6.783   3.638   4.033  0.2449  0.7981 -0.9328
14536TIP3    H265100   6.780   3.775   4.097 -2.5782 -0.4074  1.7886
14537TIP3   OH265101   4.975   3.247  12.597  0.5280 -0.2652 -0.6375
14537TIP3    H165102   4.892   3.283  12.565  0.6394 -0.7124 -1.4464
14537TIP3    H265103   4.966   3.153  12.586  1.4102 -0.2733 -1.3895
14538TIP3   OH265104   1.980   2.304  11.679 -0.5302 -0.5688  0.5075
14538TIP3    H165105   2.012   2.351  11.602 -3.0774  1.6481  0.6701
14538TIP3    H265106   2.055   2.303  11.739  0.0307  2.3294  0.0088
14539TIP3   OH265107   1.275   1.660  16.149 -0.6717  0.0250  0.2234
14539TIP3    H165108   1.221   1.738  16.161  0.3981  1.0096 -1.0194
14539TIP3    H265109   1.339   1.664  16.221 -1.1197 -0.1512  0.6339
14540TIP3   OH265110   3.512   2.925  15.273  0.1642 -0.0468 -0.2260
14540TIP3    H165111   3.561   3.001  15.305  1.7499 -1.2050  0.1782
14540TIP3    H265112   3.429   2.962  15.242  1.0465  1.8951 -0.4068
14541TIP3   OH265113   1.934   6.191   3.776  0.0433 -0.1116  0.0480
14541TIP3    H165114   1.886   6.129   3.832 -0.3999  1.2257  1.2224
14541TIP3    H265115   1.912   6.277   3.812 -0.5482  0.8637 -2.4340
14542TIP3   OH265116   5.204   2.932  14.950  0.2978  0.1403  0.3783
14542TIP3    H165117   5.121   2.887  14.935 -0.1168  0.9232  0.2515
14542TIP3    H265118   5.180   3.011  14.999  1.0341  0.1113  0.7966
14543TIP3   OH265119   4.801   5.253  13.132 -0.4538  0.5017 -0.3440
14543TIP3    H165120   4.712   5.252  13.169 -0.0070  1.2318  0.8026
14543TIP3    H265121   4.789   5.281  13.041 -1.3933  0.6605 -0.1822
14544TIP3   OH265122   3.945   5.082   5.421 -0.2300 -0.8274 -0.4885
14544TIP3    H165123   4.038   5.090   5.398 -0.7960  0.7491 -2.6546
14544TIP3    H265124   3.900   5.076   5.336 -2.1899 -0.3400  0.4506
14545TIP3   OH265125   5.134   4.922   0.935 -0.1279 -0.1217  0.5644
14545TIP3    H165126   5.069   4.981   0.974 -0.6757 -0.9986  1.0117
14545TIP3    H265127   5.172   4.876   1.010  1.1012  0.4390  0.3215
14546TIP3   OH265128   1.103   6.248   5.475 -0.1374 -0.0869 -0.8825
14546TIP3    H165129   1.123   6.314   5.409  0.1579 -0.5431 -1.2574
14546TIP3    H265130   1.044   6.292   5.536  1.2797  1.0147 -0.2561
14547TIP3   OH265131   5.359   6.626   3.595 -0.1521 -0.0609 -0.1630
14547TIP3    H165132   5.451   6.646   3.579 -0.3379  1.4544  0.5393
14547TIP3    H265133   5.344   6.544   3.548  1.5766 -0.3941 -0.1951
14548TIP3   OH265134   3.466   4.679  12.043 -0.3932 -0.1149  0.3993
14548TIP3    H165135   3.458   4.642  12.131  0.9071  1.9478  1.4709
14548TIP3    H265136   3.376   4.706  12.020 -0.4977  0.9186  1.8863
14549TIP3   OH265137   6.131   1.758  11.671 -0.3499 -0.3962  0.7549
14549TIP3    H165138   6.159   1.764  11.580  0.7695 -0.8350  1.0556
14549TIP3    H265139   6.067   1.686  11.672 -1.7209  0.7611  0.0229
14550TIP3   OH265140   1.890   2.120   6.090 -0.4775 -0.0789 -0.2876
14550TIP3    H165141   1.849   2.120   6.177  0.3510 -1.4071  0.1144
14550TIP3    H265142   1.838   2.058   6.039 -0.8310  0.5395 -0.6958
14551TIP3   OH265143   3.545   2.450   0.513  0.3174 -0.0535  0.4394
14551TIP3    H165144   3.519   2.391   0.442  0.4512  1.6237 -1.0790
14551TIP3    H265145   3.576   2.529   0.469  1.3055  0.7133  2.3655
14552TIP3   OH265146   0.622   2.707   0.715  0.1974 -0.5353  0.5767
14552TIP3    H165147   0.584   2.795   0.724 -2.0117 -1.4457  0.8484
14552TIP3    H265148   0.589   2.676   0.631 -0.8479 -1.9048  1.4660
14553TIP3   OH265149   4.484   6.084   3.822  0.6444  0.0051  0.3645
14553TIP3    H165150   4.543   6.138   3.768  0.2497 -1.0134 -1.1603
14553TIP3    H265151   4.405   6.137   3.831  0.5802  0.0600 -0.3931
14554TIP3   OH265152   0.709   2.809   3.311  0.0098 -0.4884  0.0864
14554TIP3    H165153   0.716   2.716   3.287 -1.2936 -0.0349 -2.2875
14554TIP3    H265154   0.793   2.846   3.284  0.2712 -0.8158  0.4203
14555TIP3   OH265155   0.951   6.525   6.208 -0.8614  0.1762 -0.8254
14555TIP3    H165156   0.908   6.445   6.176 -0.8482  0.3711 -1.3313
14555TIP3    H265157   1.021   6.493   6.265 -0.7976 -0.1781 -1.0978
14556TIP3   OH265158   0.140   2.066   1.480 -0.5579 -0.4383  0.0356
14556TIP3    H165159   0.179   2.154   1.485  1.4682 -1.1048 -2.1589
14556TIP3    H265160   0.053   2.080   1.444 -0.0685  0.6715 -0.7936
14557TIP3   OH265161   1.953   2.488   5.461  0.1040  0.6821  0.3177
14557TIP3    H165162   1.901   2.415   5.426  1.9342 -0.5748  0.1252
14557TIP3    H265163   1.934   2.560   5.401 -0.5240 -0.0711 -0.4251
14558TIP3   OH265164   4.969   2.870   1.945  0.6153 -0.0168  0.5401
14558TIP3    H165165   4.927   2.954   1.929  1.7126  0.4658  0.1267
14558TIP3    H265166   5.031   2.886   2.016  0.5569 -0.5675  0.7252
14559TIP3   OH265167   2.902   6.662   4.310 -0.0507 -0.6799  0.0462
14559TIP3    H165168   2.854   6.592   4.265  1.1099 -0.2596 -1.9213
14559TIP3    H265169   2.889   6.740   4.256  1.8181 -0.2681  0.1137
14560TIP3   OH265170   6.045   1.817  14.720  0.2654  0.0864  0.0726
14560TIP3    H165171   6.072   1.890  14.664  3.0505 -0.2285  0.8618
14560TIP3    H265172   5.950   1.828  14.729  0.2735  2.3003 -1.6196
14561TIP3   OH265173   5.701   2.125  11.449  0.1085 -0.1586 -0.0193
14561TIP3    H165174   5.694   2.212  11.487 -0.7941 -0.7255  1.2013
14561TIP3    H265175   5.754   2.137  11.370  0.6941  1.3402  0.5654
14562TIP3   OH265176   4.575   1.071  13.819  0.3644  0.3750 -0.2175
14562TIP3    H165177   4.505   1.051  13.881  1.6029  0.5430  1.2903
14562TIP3    H265178   4.634   0.996  13.824  0.7713  0.6544 -0.7715
14563TIP3   OH265179   3.861   6.761  16.090  0.4955 -0.4677 -0.2467
14563TIP3    H165180   3.916   6.776  16.167 -0.7636 -1.3045  0.8345
14563TIP3    H265181   3.868   6.667  16.073 -0.1063 -0.4724 -0.4826
14564TIP3   OH265182   5.498   0.774  12.620  0.0963  0.4959  0.0850
14564TIP3    H165183   5.585   0.779  12.582 -0.2955  1.6043 -0.6940
14564TIP3    H265184   5.441   0.819  12.558 -0.9459  0.3008  0.8601
14565TIP3   OH265185   0.608   2.879  15.785 -0.1869 -0.0542 -0.0635
14565TIP3    H165186   0.615   2.917  15.873 -0.7521  3.4924 -1.3861
14565TIP3    H265187   0.556   2.943  15.736 -0.5238 -2.2712 -2.8341
14566TIP3   OH265188   4.721   1.781   4.631  0.4308  0.1807 -0.1035
14566TIP3    H165189   4.648   1.843   4.627 -2.8715 -3.4219 -0.9554
14566TIP3    H265190   4.770   1.797   4.551  0.7088  2.6604  0.4693
14567TIP3   OH265191   5.591   0.991  11.473 -0.7587  0.2166 -0.1468
14567TIP3    H165192   5.613   0.951  11.557 -2.3687 -1.2075 -0.3367
14567TIP3    H265193   5.506   0.952  11.449  0.0331 -0.1065 -2.8364
14568TIP3   OH265194   3.978   3.599  15.807 -0.4302 -0.0983  0.3029
14568TIP3    H165195   4.053   3.548  15.837 -0.1453  0.8611  1.3364
14568TIP3    H265196   3.903   3.562  15.854 -0.8907 -1.9729 -1.7838
14569TIP3   OH265197   5.937   3.468   5.888 -0.4669 -0.7448 -0.3218
14569TIP3    H165198   5.995   3.467   5.963 -0.4202 -0.6923 -0.3577
14569TIP3    H265199   5.927   3.376   5.864 -0.1602 -0.7301 -0.5020
14570TIP3   OH265200   5.627   2.421   2.123 -0.4019  0.1385  0.4944
14570TIP3    H165201   5.663   2.362   2.189 -2.9490 -0.0367  1.8257
14570TIP3    H265202   5.631   2.508   2.164 -1.2953  0.1361  0.6094
14571TIP3   OH265203   4.124   1.431  16.172 -0.0048 -0.0112 -0.7430
14571TIP3    H165204   4.097   1.340  16.182 -0.4184  0.1316 -0.5469
14571TIP3    H265205   4.157   1.436  16.082  1.7504 -0.7926 -0.1870
14572TIP3   OH265206   3.006   3.884   1.546 -0.5325  0.1739 -0.1058
14572TIP3    H165207   2.952   3.807   1.530  1.7000 -1.1571 -2.0537
14572TIP3    H265208   3.042   3.871   1.634  1.3161 -2.1481 -1.0822
14573TIP3   OH265209   6.402   3.406  11.992  0.1761  0.2591  0.0744
14573TIP3    H165210   6.343   3.431  12.063 -0.4036  0.2713 -0.4071
14573TIP3    H265211   6.362   3.442  11.913  0.3393 -0.5368 -0.3779
14574TIP3   OH265212   0.462   5.892   3.456  0.2554  0.4811 -0.4391
14574TIP3    H165213   0.396   5.947   3.498 -0.9731  0.1051 -1.7843
14574TIP3    H265214   0.503   5.949   3.390  0.1907  0.2883 -0.6490
14575TIP3   OH265215   3.596   2.704   3.969  0.6588  0.5406 -0.3415
14575TIP3    H165216   3.671   2.732   3.916  3.0883  0.0967  2.6297
14575TIP3    H265217   3.561   2.785   4.005  1.0707  0.5889 -0.0444
14576TIP3   OH265218   0.110   0.092   6.714 -0.0659 -0.1547 -0.0339
14576TIP3    H165219   0.052   0.042   6.657 -1.2067  1.7838 -0.6773
14576TIP3    H265220   0.109   0.181   6.677 -0.4113  1.0656  2.6774
14577TIP3   OH265221   5.328   1.983   0.542  1.0069 -0.0119 -0.2355
14577TIP3    H165222   5.388   1.930   0.594  0.0861  0.7972  1.7633
14577TIP3    H265223   5.344   2.073   0.570 -0.1167  0.3647 -0.7276
14578TIP3   OH265224   6.080   4.403   4.832  0.0982 -0.0960 -0.1398
14578TIP3    H165225   6.070   4.312   4.806 -1.3949  0.5184 -1.9582
14578TIP3    H265226   6.096   4.400   4.926 -0.8783 -2.1829  0.0074
14579TIP3   OH265227   5.330   4.339  12.410  0.0495  0.1143 -0.0895
14579TIP3    H165228   5.262   4.318  12.473 -1.2102  0.6752 -1.2120
14579TIP3    H265229   5.325   4.270  12.345  0.6789  0.0683 -0.0947
14580TIP3   OH265230   6.003   4.728   2.551  0.8695 -0.3149 -0.0493
14580TIP3    H165231   5.979   4.646   2.509 -0.0434 -0.5539  0.9054
14580TIP3    H265232   6.088   4.710   2.592  1.4076 -0.3015 -1.1239
14581TIP3   OH265233   5.993   6.402  14.910 -0.0854 -0.7218  0.2872
14581TIP3    H165234   6.004   6.436  14.999  0.5099 -0.1725  0.0110
14581TIP3    H265235   5.925   6.335  14.918 -1.0078  0.2605  0.9170
14582TIP3   OH265236   4.943   3.213   0.273 -0.3674  0.3296  0.2131
14582TIP3    H165237   4.956   3.147   0.205 -2.2285  0.3278 -0.1938
14582TIP3    H265238   4.907   3.164   0.347 -1.0220  0.7589  0.1838
14583TIP3   OH265239   6.697   0.327   3.467  0.1699 -0.8928 -0.3670
14583TIP3    H165240   6.689   0.288   3.554  0.0451  0.7614  0.4002
14583TIP3    H265241   6.627   0.392   3.464 -0.4859 -1.6140 -2.1160
14584TIP3   OH265242   1.064   3.374   2.076 -0.0400 -0.1395  0.6609
14584TIP3    H165243   1.012   3.294   2.077 -1.5706  0.7051 -1.9174
14584TIP3    H265244   1.044   3.415   1.992  2.2038  1.9886  1.0439
14585TIP3   OH265245   6.329   2.751   5.668  0.8988 -0.0849 -0.5772
14585TIP3    H165246   6.358   2.788   5.752  1.3917  0.6820 -1.0775
14585TIP3    H265247   6.235   2.768   5.666  0.8632 -0.2071 -0.1302
14586TIP3   OH265248   2.928   4.703   5.791 -0.3185 -0.3523  0.2483
14586TIP3    H165249   2.987   4.771   5.760 -1.3343  1.0909  1.3525
14586TIP3    H265250   2.982   4.650   5.849  0.3739 -0.2381 -0.2748
14587TIP3   OH265251   6.113   2.775  14.662 -0.3307  0.0493  0.2502
14587TIP3    H165252   6.127   2.737  14.575 -1.9736  2.0121 -0.9672
14587TIP3    H265253   6.190   2.749  14.713 -0.3461 -2.9562 -1.1075
14588TIP3   OH265254   2.212   0.457   5.431 -0.0733  0.0769 -0.4468
14588TIP3    H165255   2.229   0.541   5.390 -0.0242 -0.0114 -0.6084
14588TIP3    H265256   2.129   0.468   5.476  1.3107  1.1519  2.0383
14589TIP3   OH265257   5.863   1.203  12.770  0.1112  0.3227 -0.0800
14589TIP3    H165258   5.888   1.112  12.753  2.5803  0.5885  1.5893
14589TIP3    H265259   5.798   1.223  12.703  1.7465 -1.6985 -2.4540
14590TIP3   OH265260   3.944   1.455  13.093  0.1280  0.1758  0.2773
14590TIP3    H165261   4.029   1.465  13.050 -0.3755 -1.6590 -1.2995
14590TIP3    H265262   3.884   1.509  13.041 -0.0549 -0.2452  0.0430
14591TIP3   OH265263   3.087   1.428  12.421  0.3620 -0.1039 -0.1963
14591TIP3    H165264   3.088   1.480  12.501  0.4033 -0.7723  0.2465
14591TIP3    H265265   3.153   1.361  12.435 -1.3930 -1.8303  0.3078
14592TIP3   OH265266   2.945   2.851  15.172 -0.3908  0.3167  0.1065
14592TIP3    H165267   2.980   2.787  15.233 -1.5536 -2.0726 -1.5413
14592TIP3    H265268   2.851   2.854  15.191 -0.5315  0.6264 -0.5855
14593TIP3   OH265269   2.978   0.188  13.592 -0.3902 -0.8096 -0.9528
14593TIP3    H165270   2.904   0.248  13.592  0.3342  0.3214  2.6350
14593TIP3    H265271   2.962   0.130  13.667  2.5549 -0.0868  0.3923
14594TIP3   OH265272   5.819   3.465   1.459  0.1033  0.0287  0.1448
14594TIP3    H165273   5.741   3.498   1.415  2.1787  2.4288 -2.0213
14594TIP3    H265274   5.820   3.511   1.543 -1.1826 -0.7016  0.6043
14595TIP3   OH265275   1.311   5.264   1.093  0.3899 -0.0160  0.9194
14595TIP3    H165276   1.402   5.271   1.122  0.1406 -1.6524  2.2176
14595TIP3    H265277   1.291   5.171   1.099 -0.7845  0.0167 -1.3016
14596TIP3   OH265278   2.461   1.659  14.514  0.2254  0.1022 -0.4593
14596TIP3    H165279   2.478   1.751  14.491 -0.3048  0.2527 -0.2700
14596TIP3    H265280   2.548   1.620  14.524  0.5228  1.1118  1.5159
14597TIP3   OH265281   3.289   2.081   3.072  0.0198 -0.1364 -0.3330
14597TIP3    H165282   3.334   2.009   3.028 -0.1700  0.1362 -1.0018
14597TIP3    H265283   3.278   2.147   3.003  0.1795  0.5246  0.2601
14598TIP3   OH265284   2.430   0.100   3.519 -0.3680  0.5582  0.3881
14598TIP3    H165285   2.392   0.122   3.604 -2.2363  0.4998 -0.3787
14598TIP3    H265286   2.421   0.180   3.467 -0.0279  0.3426 -0.0064
14599TIP3   OH265287   4.167   0.526   4.600  0.1403 -0.0711  0.0885
14599TIP3    H165288   4.255   0.563   4.590  0.5397 -0.7964  0.8586
14599TIP3    H265289   4.159   0.505   4.693 -0.3472 -1.2379 -0.1997
14600TIP3   OH265290   0.064   3.898   1.297  0.5671  0.0713 -0.0546
14600TIP3    H165291   0.121   3.941   1.234 -0.7856  0.7870 -0.8098
14600TIP3    H265292   0.094   3.931   1.382  1.1565  0.5763 -0.4501
14601TIP3   OH265293   2.244   0.023   4.702  0.0447 -0.2213  0.3841
14601TIP3    H165294   2.177  -0.023   4.754 -0.3668 -0.0856 -0.0231
14601TIP3    H265295   2.322  -0.032   4.711  0.0520 -0.0820  1.3374
14602TIP3   OH265296   2.346   0.343   0.438 -0.5295 -0.3737 -0.3477
14602TIP3    H165297   2.395   0.399   0.377 -0.6452  0.5943  0.4110
14602TIP3    H265298   2.288   0.291   0.382 -0.8177  0.6655 -1.0514
14603TIP3   OH265299   6.134   0.837   0.106  0.0661  0.3228  0.3042
14603TIP3    H165300   6.071   0.826   0.178  0.0846 -2.2745  0.0200
14603TIP3    H265301   6.102   0.914   0.059 -2.2644 -0.2386  0.8275
14604TIP3   OH265302   4.299   3.599   0.364 -0.1884  0.1427  0.3445
14604TIP3    H165303   4.339   3.685   0.355 -1.1577  0.5288 -0.5690
14604TIP3    H265304   4.339   3.561   0.442  2.7380  0.0450 -1.0846
14605TIP3   OH265305   3.490   6.543   3.211 -0.8099 -0.4140 -0.8682
14605TIP3    H165306   3.502   6.622   3.264  1.8224 -1.1490 -0.1935
14605TIP3    H265307   3.396   6.530   3.208 -1.2831  2.2256 -0.2445
14606TIP3   OH265308   1.806   3.131  12.327 -0.2025  0.1684 -0.1173
14606TIP3    H165309   1.721   3.135  12.372 -0.2493 -1.7114  0.0583
14606TIP3    H265310   1.860   3.197  12.370 -0.2609 -1.4718  2.7130
14607TIP3   OH265311   0.021   0.890   2.830  0.6940  0.2423 -0.1257
14607TIP3    H165312  -0.022   0.897   2.745 -2.6671  0.4990  1.4213
14607TIP3    H265313   0.035   0.796   2.843 -1.8131 -0.1440  0.2912
14608TIP3   OH265314   0.504   2.281  15.878  0.5251 -0.0257  0.8458
14608TIP3    H165315   0.421   2.307  15.838  0.9164  0.1806  0.1462
14608TIP3    H265316   0.543   2.221  15.815  1.3143  0.5737  0.7535
14609TIP3   OH265317   1.855   5.654   3.307 -0.0665  0.8139  0.9234
14609TIP3    H165318   1.938   5.688   3.274  0.3388  0.2396  1.3433
14609TIP3    H265319   1.806   5.732   3.333  0.8140  1.0920  1.7801
14610TIP3   OH265320   2.610   3.972  11.481  0.1736 -0.2328  0.4752
14610TIP3    H165321   2.601   3.878  11.499 -1.6049 -0.1988 -0.0518
14610TIP3    H265322   2.704   3.989  11.487  0.5184 -2.0358  0.6350
14611TIP3   OH265323   5.455   0.735  13.648 -0.3802  0.3953 -0.2396
14611TIP3    H165324   5.385   0.686  13.605  0.9273 -2.1313  0.2836
14611TIP3    H265325   5.500   0.780  13.578 -1.0715  0.0851 -0.8988
14612TIP3   OH265326   1.800   5.284  16.248  0.0613  0.5437 -0.1235
14612TIP3    H165327   1.824   5.266  16.157  0.4145  2.0899 -0.3569
14612TIP3    H265328   1.819   5.202  16.294  0.4535 -0.0668 -1.3313
14613TIP3   OH265329   6.684   6.268  13.657  0.1703 -0.3069  0.4485
14613TIP3    H165330   6.740   6.220  13.596 -0.0335  0.2028 -0.1505
14613TIP3    H265331   6.744   6.325  13.704  0.4589 -1.3613  1.3880
14614TIP3   OH265332   6.042   3.498   4.752 -0.2497 -0.1287 -0.2597
14614TIP3    H165333   6.009   3.434   4.690 -0.1582  0.1303 -0.5775
14614TIP3    H265334   6.123   3.460   4.785 -0.2906 -0.2597 -0.3124
14615TIP3   OH265335   5.097   4.256   4.644 -0.3413  0.1352  0.2997
14615TIP3    H165336   5.032   4.192   4.616 -2.7835  3.0740 -1.3222
14615TIP3    H265337   5.077   4.272   4.736 -0.9907 -0.0111  0.1907
14616TIP3   OH265338   2.755   1.279  11.328  0.4697 -0.6332  0.7794
14616TIP3    H165339   2.667   1.269  11.363 -0.4769 -0.0076 -1.2296
14616TIP3    H265340   2.791   1.190  11.327 -0.2744 -0.9476  1.2920
14617TIP3   OH265341   5.185   3.571   1.158 -0.0601 -0.1662 -0.2989
14617TIP3    H165342   5.143   3.572   1.072 -0.2531 -2.2482 -0.2839
14617TIP3    H265343   5.131   3.511   1.210  1.1895 -0.5231  0.6414
14618TIP3   OH265344   0.362   2.450  13.326  0.1470  0.2290 -0.0341
14618TIP3    H165345   0.454   2.440  13.304  0.0655 -0.9268  0.0701
14618TIP3    H265346   0.361   2.491  13.413  0.5109  1.9012 -0.7755
14619TIP3   OH265347   2.111   5.450   3.254 -0.5215  0.0958  0.2028
14619TIP3    H165348   2.064   5.436   3.172 -0.2913 -1.8097  0.3375
14619TIP3    H265349   2.050   5.418   3.321  0.2474 -0.7419  0.5222
14620TIP3   OH265350   4.304   6.450  13.206 -0.4303  0.1630 -0.4553
14620TIP3    H165351   4.247   6.403  13.267  0.1092 -0.1889 -0.2104
14620TIP3    H265352   4.392   6.438  13.243 -0.5171  4.0712  1.5049
14621TIP3   OH265353   0.097   2.636   0.291 -0.3408  0.2760 -0.1237
14621TIP3    H165354   0.116   2.713   0.237  0.3451  0.7857  0.8361
14621TIP3    H265355   0.180   2.589   0.296 -1.4532 -2.6177 -3.7893
14622TIP3   OH265356   4.926   2.665   2.353 -0.2759  0.3588 -0.4614
14622TIP3    H165357   4.885   2.579   2.350 -1.9951  1.1401 -0.3883
14622TIP3    H265358   4.998   2.660   2.290 -0.2990 -1.1382 -0.3940
14623TIP3   OH265359   0.850   3.130   5.792  0.0355 -0.5845 -0.0358
14623TIP3    H165360   0.755   3.141   5.782  0.2097 -0.1114 -1.4318
14623TIP3    H265361   0.887   3.183   5.722  1.3803 -0.0305  1.0661
14624TIP3   OH265362   5.611   0.619   1.068  0.2380  0.1157  0.2909
14624TIP3    H165363   5.522   0.585   1.076  0.2313 -0.0909 -0.6069
14624TIP3    H265364   5.655   0.591   1.149 -0.1365 -0.9189  0.1489
14625TIP3   OH265365   6.268   2.286  12.011 -0.5294 -0.0338  0.3591
14625TIP3    H165366   6.230   2.310  12.095 -0.0138 -0.6022  0.7629
14625TIP3    H265367   6.302   2.369  11.976 -0.1314  0.1007  1.0323
14626TIP3   OH265368   3.928   1.735  16.721  0.5654 -0.3246 -0.4120
14626TIP3    H165369   3.978   1.698  16.794  2.5837  2.1163 -0.4038
14626TIP3    H265370   3.993   1.748  16.652 -0.7689 -0.1478 -1.6854
14627TIP3   OH265371   0.944   2.769  12.305  0.5684  0.1719  0.0619
14627TIP3    H165372   0.910   2.845  12.353  0.4291 -0.2768  0.6810
14627TIP3    H265373   0.879   2.754  12.237 -0.1668 -0.2991  0.8583
14628TIP3   OH265374   0.855   6.183   1.136 -0.5242  0.4982  0.5577
14628TIP3    H165375   0.832   6.156   1.047 -1.9277  0.6604  0.8453
14628TIP3    H265376   0.827   6.274   1.141  0.4765  0.7951  0.8592
14629TIP3   OH265377   3.369   3.581   3.499  0.0178 -0.7278  0.3591
14629TIP3    H165378   3.328   3.517   3.558  0.5926 -1.0979  0.3601
14629TIP3    H265379   3.327   3.664   3.522 -0.8031 -1.1136  0.2959
14630TIP3   OH265380   6.797   5.957   4.051 -0.5270  0.2223 -0.3540
14630TIP3    H165381   6.712   5.943   4.009 -0.3187  0.2896 -0.8046
14630TIP3    H265382   6.859   5.963   3.978 -0.3656  1.9166 -0.1171
14631TIP3   OH265383   1.659   1.147   1.280 -0.4076  0.3969  0.2527
14631TIP3    H165384   1.721   1.185   1.219 -0.1241  0.9931  0.8925
14631TIP3    H265385   1.633   1.221   1.336  0.6467 -0.4535  1.9446
14632TIP3   OH265386   6.117   3.763   2.968 -0.0763 -0.4444  0.3485
14632TIP3    H165387   6.135   3.822   3.041  0.3010 -0.0387 -0.0612
14632TIP3    H265388   6.167   3.800   2.895  1.2829 -2.0248  0.4213
14633TIP3   OH265389   0.322   4.899  15.533  0.0735  0.9281  0.3213
14633TIP3    H165390   0.285   4.871  15.617  2.6430 -1.4491  0.8154
14633TIP3    H265391   0.367   4.981  15.553 -0.7304  1.2490  0.8592
14634TIP3   OH265392   4.530   6.344   0.620  0.0764  0.1029  0.8338
14634TIP3    H165393   4.497   6.260   0.589  0.0294 -0.0152  1.1993
14634TIP3    H265394   4.484   6.358   0.703 -0.3173  0.7417  0.5108
14635TIP3   OH265395   5.291   4.718  15.539 -0.6919 -0.3107 -0.0134
14635TIP3    H165396   5.300   4.801  15.587 -0.5892 -0.8990  1.0043
14635TIP3    H265397   5.256   4.744  15.454 -0.9599  0.7509  0.4012
14636TIP3   OH265398   6.172   4.423  11.099 -0.5983 -0.0695 -0.4410
14636TIP3    H165399   6.250   4.389  11.055 -0.6245 -0.3634 -0.2619
14636TIP3    H265400   6.103   4.361  11.075 -0.7634  0.1592 -0.5510
14637TIP3   OH265401   0.457   5.574  14.330 -0.3781  0.1592  0.1087
14637TIP3    H165402   0.438   5.514  14.258 -1.5963  0.9739 -0.2693
14637TIP3    H265403   0.446   5.661  14.293  1.9167  0.6946  0.4956
14638TIP3   OH265404   2.222   6.682   2.607  0.0702  0.3839 -0.2782
14638TIP3    H165405   2.236   6.711   2.697 -0.8389 -0.2373  0.0710
14638TIP3    H265406   2.237   6.761   2.554 -0.5993  1.0571  0.5079
14639TIP3   OH265407   3.062   2.185  15.262  0.3082 -0.2098  0.3454
14639TIP3    H165408   3.149   2.173  15.299  1.2095  0.5474 -1.3873
14639TIP3    H265409   3.050   2.110  15.204  0.0815 -0.0125  0.1295
14640TIP3   OH265410   3.431   4.598  15.193  0.7307  0.3168  0.3026
14640TIP3    H165411   3.354   4.541  15.184  0.7416  0.2264  0.7388
14640TIP3    H265412   3.400   4.672  15.244  0.7172  0.7065 -0.2700
14641TIP3   OH265413   1.703   6.533   0.756  0.2242  0.1000  0.0083
14641TIP3    H165414   1.725   6.625   0.743 -1.9246  0.7821  0.7342
14641TIP3    H265415   1.618   6.535   0.800  1.0956 -2.2028  2.0260
14642TIP3   OH265416   4.378   2.789  14.048  0.3333 -0.5139  0.2832
14642TIP3    H165417   4.379   2.880  14.017  0.2583 -0.9107 -0.9334
14642TIP3    H265418   4.406   2.795  14.139  0.5490  0.7077  0.1613
14643TIP3   OH265419   5.806   3.317  12.296  0.1318  0.2957  0.0927
14643TIP3    H165420   5.840   3.395  12.254 -0.3297 -0.4408 -1.7376
14643TIP3    H265421   5.721   3.344  12.332 -0.0759  0.6172 -0.6251
14644TIP3   OH265422   5.780   1.957   3.714  0.0668 -0.4396 -0.1003
14644TIP3    H165423   5.868   1.927   3.693  0.4771  1.1490 -0.8103
14644TIP3    H265424   5.752   1.902   3.787  1.7316 -0.7887  0.3033
14645TIP3   OH265425   0.647   3.362  12.717 -0.2831  0.4652  0.0553
14645TIP3    H165426   0.689   3.280  12.745  0.4000  0.4982 -0.8445
14645TIP3    H265427   0.720   3.419  12.692 -0.8349  0.8096 -0.7933
14646TIP3   OH265428   5.942   1.064   0.946  0.1273  0.0730 -0.1493
14646TIP3    H165429   5.968   1.151   0.978  1.5631 -0.1749 -0.5345
14646TIP3    H265430   5.876   1.033   1.008  0.5010  0.9314  0.6972
14647TIP3   OH265431   4.683   4.405   1.770  0.2998  0.1085  0.5106
14647TIP3    H165432   4.612   4.343   1.755 -0.5853  0.8564  1.3899
14647TIP3    H265433   4.666   4.477   1.710  0.7783 -0.0685  0.1589
14648TIP3   OH265434   4.762   1.402  11.022  0.4981  0.1184  0.0990
14648TIP3    H165435   4.721   1.442  11.098 -1.4276  1.7326 -1.6614
14648TIP3    H265436   4.847   1.444  11.016  0.8694 -0.3626  1.5712
14649TIP3   OH265437   6.525   3.785  13.488  0.0205 -0.7107 -0.1130
14649TIP3    H165438   6.462   3.754  13.423 -0.5832 -0.1673  0.2039
14649TIP3    H265439   6.484   3.862  13.527 -0.6147 -2.2281  2.4357
14650TIP3   OH265440   1.409   3.598  11.967  0.0774 -0.6344 -0.3793
14650TIP3    H165441   1.346   3.671  11.967  1.0597  0.2277 -0.6951
14650TIP3    H265442   1.365   3.530  11.917 -0.5046  0.0478 -0.8273
14651TIP3   OH265443   4.564   4.387  15.132 -0.1371  0.0556  0.0951
14651TIP3    H165444   4.590   4.321  15.196 -0.1301  0.3769  0.4275
14651TIP3    H265445   4.609   4.362  15.052 -0.8333 -0.8589 -0.0378
14652TIP3   OH265446   4.033   2.443   5.774 -0.2344  0.4866  0.1985
14652TIP3    H165447   4.005   2.440   5.682 -0.4829  0.5512  0.2718
14652TIP3    H265448   4.028   2.353   5.804 -1.4687  0.6584  0.5397
14653TIP3   OH265449   5.311   1.946   1.237 -0.4995 -0.7281  0.3493
14653TIP3    H165450   5.341   2.024   1.284  2.4841 -1.2470 -0.4590
14653TIP3    H265451   5.269   1.892   1.304 -2.1175  1.2398  1.0357
14654TIP3   OH265452   1.478   0.318   1.661 -0.8754 -0.3632  0.4820
14654TIP3    H165453   1.425   0.238   1.671  0.1286 -1.2885 -1.1962
14654TIP3    H265454   1.526   0.325   1.743 -0.0703 -2.2092  0.2128
14655TIP3   OH265455   3.502   4.770   1.217  0.2242  0.5170  0.1362
14655TIP3    H165456   3.457   4.688   1.239  0.4485  0.2575 -0.3616
14655TIP3    H265457   3.538   4.755   1.130  0.6810  0.9725  0.2407
14656TIP3   OH265458   2.011   2.472   4.182  0.1353  0.5469  0.3133
14656TIP3    H165459   1.965   2.396   4.147  1.0054 -0.5237  1.4081
14656TIP3    H265460   1.984   2.476   4.274  0.4456  1.2889  0.3763
14657TIP3   OH265461   1.367   5.742  12.277  0.4311  0.2308  0.6397
14657TIP3    H165462   1.385   5.661  12.229 -0.0280  0.8217 -0.5606
14657TIP3    H265463   1.451   5.790  12.274  0.3974  0.2778  0.3862
14658TIP3   OH265464   4.919   2.584  14.863 -0.6092 -0.5605  0.3339
14658TIP3    H165465   4.984   2.515  14.873  0.2503  0.3218  0.9848
14658TIP3    H265466   4.899   2.612  14.952  0.5181  1.3514  0.0318
14659TIP3   OH265467   1.054   0.578   1.520 -0.1863  0.2992  0.0523
14659TIP3    H165468   1.121   0.519   1.485 -2.1800 -2.2981  0.2462
14659TIP3    H265469   0.971   0.535   1.497 -1.7810  2.7540  0.8296
14660TIP3   OH265470   6.142   4.880  14.255  0.2229  0.1832 -0.1118
14660TIP3    H165471   6.096   4.947  14.203 -0.8341 -0.8017 -0.5085
14660TIP3    H265472   6.192   4.830  14.190  0.2168 -0.0257  0.0445
14661TIP3   OH265473   2.794   0.916  12.159  0.1285  0.3286  0.5545
14661TIP3    H165474   2.799   1.010  12.176  0.9126  0.3795  0.0514
14661TIP3    H265475   2.881   0.883  12.178  0.0677 -0.1749 -0.0019
14662TIP3   OH265476   1.040   2.617  15.024  0.2943 -0.5819 -0.7405
14662TIP3    H165477   1.109   2.652  14.967  1.4853 -1.0047  0.3937
14662TIP3    H265478   1.082   2.545  15.071 -0.7488 -0.4541  0.4335
14663TIP3   OH265479   1.748   4.140  15.100  0.3576  0.2287 -0.3247
14663TIP3    H165480   1.714   4.225  15.130 -0.0609  0.1503 -0.5655
14663TIP3    H265481   1.823   4.123  15.157  0.6409  0.9116 -0.4770
14664TIP3   OH265482   5.226   0.107   0.679 -0.0546  0.1132 -0.3482
14664TIP3    H165483   5.243   0.141   0.767  0.9853  0.4931 -0.6810
14664TIP3    H265484   5.132   0.121   0.665 -0.4174 -0.7787  1.0413
14665TIP3   OH265485   5.571   1.630  14.961  0.6899 -0.0161 -0.2653
14665TIP3    H165486   5.641   1.696  14.965 -0.4968  1.2575  2.6237
14665TIP3    H265487   5.604   1.557  15.013  0.0721  0.4130  0.7465
14666TIP3   OH265488   4.290   4.957  12.071  0.2242  0.5734 -0.1970
14666TIP3    H165489   4.377   4.978  12.037  0.1025  1.0118 -0.2473
14666TIP3    H265490   4.231   4.976  11.998  0.0518  0.6293 -0.0436
14667TIP3   OH265491   1.314   5.097  11.909  0.5456  0.4420  0.6682
14667TIP3    H165492   1.408   5.100  11.921  0.6655  0.3776 -0.1575
14667TIP3    H265493   1.294   5.003  11.903  0.6679  0.4760 -0.7193
14668TIP3   OH265494   3.702   2.937   5.913  0.1119 -0.0346 -0.2781
14668TIP3    H165495   3.726   3.015   5.964  2.2409 -0.6095 -0.3317
14668TIP3    H265496   3.739   2.864   5.963 -1.7923 -1.0445 -0.2678
14669TIP3   OH265497   4.686   3.600   1.759  0.0260 -0.0729 -0.4193
14669TIP3    H165498   4.723   3.553   1.683 -1.4803 -1.5881 -0.2707
14669TIP3    H265499   4.758   3.654   1.790  0.5840  0.9402 -3.1800
14670TIP3   OH265500   1.821   2.040   2.898  0.3692  0.4584  1.2022
14670TIP3    H165501   1.904   1.998   2.873  0.7854  1.1069  1.4690
14670TIP3    H265502   1.811   2.112   2.836 -0.7731 -0.5044  0.1996
14671TIP3   OH265503   0.524   2.710  14.934 -0.0426 -0.2286 -0.0541
14671TIP3    H165504   0.567   2.629  14.909  0.5455  1.0758 -3.8615
14671TIP3    H265505   0.437   2.705  14.893 -0.4048  0.6429  0.5688
14672TIP3   OH265506   6.309   6.037  13.188 -0.0387  0.6928 -0.4448
14672TIP3    H165507   6.293   5.974  13.259  0.5745  1.3834  0.3232
14672TIP3    H265508   6.242   6.104  13.200 -0.9624  0.0058 -1.5199
14673TIP3   OH265509   3.231   1.073  14.436 -0.4728 -0.0276 -0.0604
14673TIP3    H165510   3.219   0.996  14.491  1.4881 -0.0888  0.3440
14673TIP3    H265511   3.171   1.138  14.472 -2.2517 -1.3418 -0.4798
14674TIP3   OH265512   3.775   0.790   4.102  0.7459  0.3479  0.0807
14674TIP3    H165513   3.758   0.876   4.139  0.1818 -0.0234  0.7005
14674TIP3    H265514   3.689   0.752   4.086  0.6710 -2.1862  4.7388
14675TIP3   OH265515   5.299   3.331   0.988  0.2969  0.4998  0.4300
14675TIP3    H165516   5.222   3.315   0.934  0.1339  1.8154  0.2548
14675TIP3    H265517   5.270   3.315   1.077 -0.9555  3.4295  0.6543
14676TIP3   OH265518   2.603   1.931  16.285  0.6237  0.7161  0.1600
14676TIP3    H165519   2.576   1.878  16.359  0.6009 -0.2766 -0.5485
14676TIP3    H265520   2.565   1.888  16.209  2.7626  0.2248 -0.6958
14677TIP3   OH265521   1.784   5.721   0.157 -0.0302  0.4204  0.5059
14677TIP3    H165522   1.695   5.691   0.135 -0.0548  0.5508  0.4306
14677TIP3    H265523   1.841   5.659   0.112 -0.0815  0.1794  0.7635
14678TIP3   OH265524   0.844   0.974   0.403  0.1564  0.4282  0.0543
14678TIP3    H165525   0.894   0.921   0.340  1.1891  0.6972  0.6181
14678TIP3    H265526   0.816   0.911   0.470  0.7045  0.4461  0.3095
14679TIP3   OH265527   2.179   6.459   0.046 -0.0224 -0.0047  0.5431
14679TIP3    H165528   2.190   6.483  -0.046 -0.1801 -1.2184  0.1884
14679TIP3    H265529   2.094   6.415   0.050  0.4801 -0.9741  1.0313
14680TIP3   OH265530   4.061   3.847  15.715 -0.4880  0.7882 -0.0393
14680TIP3    H165531   4.031   3.836  15.625 -0.3538 -0.0987  0.0125
14680TIP3    H265532   4.024   3.772  15.762 -0.5591  1.2434  0.6489
14681TIP3   OH265533   2.747   3.021  14.290  0.1586  0.0146  0.2826
14681TIP3    H165534   2.663   3.000  14.330 -0.9086  1.1482 -1.2228
14681TIP3    H265535   2.785   2.936  14.267  0.0299 -0.5677  2.0842
14682TIP3   OH265536   4.654   2.334   1.724  0.0842  0.8235 -0.1016
14682TIP3    H165537   4.714   2.364   1.793  0.3586  1.1549 -0.4792
14682TIP3    H265538   4.665   2.398   1.653  1.1399 -0.4752 -1.1713
14683TIP3   OH265539   3.485   1.937  11.203 -0.5286 -0.1768  0.3689
14683TIP3    H165540   3.391   1.943  11.188 -0.2691  0.4747 -1.1416
14683TIP3    H265541   3.525   1.962  11.120  1.0077  0.7573  1.3326
14684TIP3   OH265542   3.954   0.393   5.444 -0.2837 -0.0148  0.1886
14684TIP3    H165543   3.940   0.455   5.515  0.6872  0.7617 -0.2580
14684TIP3    H265544   3.913   0.435   5.368  0.4139  0.1095 -0.1244
14685TIP3   OH265545   3.187   4.785   3.042 -0.4043 -0.3831  0.3445
14685TIP3    H165546   3.120   4.760   3.107 -1.0157  1.9482  0.6972
14685TIP3    H265547   3.139   4.838   2.979  0.7024 -0.5302 -0.6383
14686TIP3   OH265548   1.729   4.023  14.846 -0.7663 -0.3010 -0.2792
14686TIP3    H165549   1.717   4.086  14.775 -1.7575  0.0824  0.2170
14686TIP3    H265550   1.773   4.072  14.915  0.4723 -0.7509 -0.6983
14687TIP3   OH265551   5.022   0.757  14.770  0.7055  0.1563  0.3170
14687TIP3    H165552   4.991   0.668  14.784  1.5869 -0.4499 -1.3384
14687TIP3    H265553   4.958   0.796  14.710  0.1879  0.7513  1.2235
14688TIP3   OH265554   6.431   2.414  10.876  0.2329  0.6081  0.1444
14688TIP3    H165555   6.491   2.466  10.929 -0.3509 -0.3558  1.8096
14688TIP3    H265556   6.427   2.329  10.920  1.1594 -0.9247 -2.4807
14689TIP3   OH265557   5.798   0.946   1.148 -0.8315 -0.6800  0.9360
14689TIP3    H165558   5.830   0.858   1.168 -0.9481 -0.1812  3.6980
14689TIP3    H265559   5.726   0.959   1.210 -1.1736  1.1733  0.1965
14690TIP3   OH265560   2.741   4.758   4.461  0.0996  0.2959  0.7488
14690TIP3    H165561   2.803   4.689   4.485 -0.4552 -0.4880  0.0098
14690TIP3    H265562   2.757   4.828   4.524 -0.2430 -1.0375  2.4009
14691TIP3   OH265563   2.229   6.579   1.825 -0.4397  0.6106  0.3526
14691TIP3    H165564   2.304   6.590   1.766 -0.3633  1.0113  0.5215
14691TIP3    H265565   2.200   6.669   1.843 -0.2908  0.5085  1.1430
14692TIP3   OH265566   5.969   4.472   1.070 -0.2341  0.4428  0.3727
14692TIP3    H165567   5.894   4.428   1.030 -0.3936  1.0300  0.0205
14692TIP3    H265568   6.045   4.429   1.031 -0.3882  0.8317 -0.3843
14693TIP3   OH265569   6.184   2.860   2.983 -0.1946 -0.2830  0.2882
14693TIP3    H165570   6.189   2.941   2.932 -2.1851  1.2900  2.3921
14693TIP3    H265571   6.244   2.800   2.938  0.7458  2.0559 -1.8392
14694TIP3   OH265572   5.297   0.404  15.322  0.2790  0.3827 -0.1681
14694TIP3    H165573   5.221   0.368  15.369  1.7104 -0.1933  1.8718
14694TIP3    H265574   5.283   0.380  15.231 -2.5257  1.2885 -0.0692
14695TIP3   OH265575   2.514   2.903   1.992  0.2407  0.2548 -0.5726
14695TIP3    H165576   2.523   2.814   2.027  0.5516  0.2721 -0.6083
14695TIP3    H265577   2.448   2.895   1.923 -0.9607  0.3643  0.5274
14696TIP3   OH265578   3.000   5.895   3.611  0.0911  0.0246  0.3575
14696TIP3    H165579   2.927   5.843   3.645 -1.1732 -0.4743 -2.7312
14696TIP3    H265580   3.065   5.830   3.586 -0.5541  0.0165 -1.4429
14697TIP3   OH265581   2.900   6.495  11.975 -0.5127  0.0143 -0.2362
14697TIP3    H165582   2.907   6.569  11.914 -0.7453 -1.0999 -1.6633
14697TIP3    H265583   2.986   6.453  11.971 -0.9631 -0.8663 -0.8739
14698TIP3   OH265584   2.646   2.556  15.531 -0.3490  0.1327 -0.2189
14698TIP3    H165585   2.580   2.524  15.470 -0.0711  1.1874 -1.1122
14698TIP3    H265586   2.649   2.651  15.515 -0.8728  0.5945  2.0391
14699TIP3   OH265587   2.940   1.282   0.550  0.4221 -0.5442  0.7976
14699TIP3    H165588   2.856   1.319   0.574  0.7532  2.0297 -1.4921
14699TIP3    H265589   2.919   1.198   0.510 -1.4407  1.0288 -1.8589
14700TIP3   OH265590   2.599   4.782   5.175  0.0646  0.0219  0.1641
14700TIP3    H165591   2.654   4.713   5.213 -1.2329 -0.1080  1.9351
14700TIP3    H265592   2.644   4.807   5.094  2.2290 -0.6994  1.0667
14701TIP3   OH265593   4.789   0.654   3.416  0.1543  0.0911 -0.1540
14701TIP3    H165594   4.741   0.578   3.381 -4.0878  1.7619  1.3400
14701TIP3    H265595   4.836   0.689   3.340 -0.0806 -2.3248 -1.5451
14702TIP3   OH265596   5.909   6.589  12.341  0.3773 -0.3635  0.4247
14702TIP3    H165597   5.817   6.583  12.316  1.1880  0.5733 -3.4644
14702TIP3    H265598   5.912   6.658  12.407 -1.6592 -0.1950  0.4089
14703TIP3   OH265599   1.922   6.629   5.468  0.6761  0.0897  0.1537
14703TIP3    H165600   1.923   6.582   5.551 -0.6926 -1.4977 -0.6718
14703TIP3    H265601   2.014   6.634   5.442  0.9236 -1.3991  0.6835
14704TIP3   OH265602   3.835   5.720  17.288 -0.0523  0.4182  0.1774
14704TIP3    H165603   3.762   5.682  17.240  0.4489  1.2600 -1.3289
14704TIP3    H265604   3.902   5.651  17.289  0.0519  0.4916 -0.6611
14705TIP3   OH265605   6.241   0.401   4.927  0.0706  0.5474 -0.0034
14705TIP3    H165606   6.168   0.340   4.922 -0.0363  0.6650  0.1223
14705TIP3    H265607   6.319   0.346   4.920 -0.0323  0.5613 -1.7225
14706TIP3   OH265608   1.986   5.713  15.119 -0.5698 -0.3183  0.6956
14706TIP3    H165609   1.936   5.774  15.173 -1.2231 -0.2961  0.0844
14706TIP3    H265610   2.011   5.764  15.041 -1.1262 -0.8231  0.1783
14707TIP3   OH265611   4.273   2.634   3.789  0.5928  1.3133 -0.1826
14707TIP3    H165612   4.216   2.711   3.790  1.1159  1.7011 -0.2024
14707TIP3    H265613   4.308   2.629   3.878 -0.8327  0.0390  0.3611
14708TIP3   OH265614   6.524   6.265  15.735  0.4633  0.0388  0.6279
14708TIP3    H165615   6.540   6.280  15.828  1.2452 -0.0720  0.5196
14708TIP3    H265616   6.519   6.170  15.726  1.0390  0.0192  0.4626
14709TIP3   OH265617   2.390   4.834   0.757 -0.3555  0.2944  0.1348
14709TIP3    H165618   2.419   4.921   0.728 -0.3257  0.4436  0.6001
14709TIP3    H265619   2.311   4.852   0.808 -1.2722 -0.1035 -1.1036
14710TIP3   OH265620   5.627   4.632   6.447 -0.1038  0.5907 -0.1494
14710TIP3    H165621   5.557   4.697   6.455 -0.8081 -0.0817 -0.7696
14710TIP3    H265622   5.695   4.676   6.396  0.0569  1.3373  0.6773
14711TIP3   OH265623   6.668   5.972   3.591  0.1851  0.1202  0.1040
14711TIP3    H165624   6.740   6.035   3.592  0.2844  0.1122 -2.0467
14711TIP3    H265625   6.706   5.894   3.550 -1.1429  0.2926 -1.5472
14712TIP3   OH265626   1.965   3.492  13.495 -0.6008  0.5783  0.3501
14712TIP3    H165627   1.958   3.479  13.400  0.0407  1.6059  0.1441
14712TIP3    H265628   2.025   3.424  13.524  1.4745  1.9628 -0.4549
14713TIP3   OH265629   5.038   4.878  14.108  0.3069  0.8200  0.2115
14713TIP3    H165630   5.129   4.904  14.093  0.8038 -0.2410  1.1724
14713TIP3    H265631   5.038   4.841  14.197 -0.9766  0.4020  0.0633
14714TIP3   OH265632   1.551   0.868  14.893 -0.0030  0.2894 -0.1635
14714TIP3    H165633   1.480   0.821  14.850 -1.1842  1.4817  0.4162
14714TIP3    H265634   1.630   0.842  14.846 -0.4777 -2.7468  0.5186
14715TIP3   OH265635   4.044   5.204   2.185  0.2263  0.2147  0.7810
14715TIP3    H165636   3.950   5.223   2.188  0.6448  2.7434  0.8914
14715TIP3    H265637   4.052   5.124   2.134 -1.7150  2.8129 -4.3214
14716TIP3   OH265638   3.072   3.240   1.710  0.7617  0.3960 -0.1821
14716TIP3    H165639   3.001   3.232   1.646  1.0041  0.2315 -0.4348
14716TIP3    H265640   3.138   3.178   1.679 -0.3983 -2.1450  1.9699
14717TIP3   OH265641   6.195   6.399   4.324 -0.6119  0.2848 -0.2679
14717TIP3    H165642   6.194   6.421   4.417 -4.2347  1.0451 -0.3546
14717TIP3    H265643   6.262   6.331   4.316  0.0923  0.4903  2.7917
14718TIP3   OH265644   1.089   0.208   4.758 -0.2365  0.1323  0.0616
14718TIP3    H165645   1.119   0.299   4.762 -0.0566  0.1011 -0.3786
14718TIP3    H265646   0.995   0.212   4.774 -0.7022  0.7011 -2.3360
14719TIP3   OH265647   4.027   2.453  13.118  0.2710  0.0250  0.7982
14719TIP3    H165648   4.056   2.444  13.028 -0.8595 -0.6102  0.4861
14719TIP3    H265649   4.080   2.526  13.153  1.0867 -0.0692 -0.1970
14720TIP3   OH265650   3.083   4.093   0.438 -0.5057  0.0370  0.3983
14720TIP3    H165651   3.072   4.168   0.380 -2.1695  0.5059  1.2572
14720TIP3    H265652   2.997   4.082   0.480 -0.0576 -1.8087  0.9409
14721TIP3   OH265653   6.078   1.925  14.450  0.2168 -0.3959  0.2162
14721TIP3    H165654   6.141   1.886  14.390 -0.2839 -2.0506  0.7070
14721TIP3    H265655   5.993   1.902  14.414 -0.1065  0.5264  0.3683
14722TIP3   OH265656   6.334   2.342   3.943 -0.3701 -0.3112 -0.2278
14722TIP3    H165657   6.378   2.293   4.012 -0.7417  0.2469  0.4217
14722TIP3    H265658   6.352   2.434   3.964 -1.1720 -0.1071 -0.4011
14723TIP3   OH265659   2.684   3.401  14.185 -0.5107  0.0656 -1.4899
14723TIP3    H165660   2.590   3.393  14.169 -0.6210 -0.1834 -0.7802
14723TIP3    H265661   2.705   3.491  14.159 -1.4966  1.0601  0.8196
14724TIP3   OH265662   6.339   4.507   3.672 -0.2624 -0.1795  0.2402
14724TIP3    H165663   6.320   4.596   3.641 -0.2448 -0.4357 -0.5097
14724TIP3    H265664   6.255   4.477   3.708 -0.5223 -0.2011 -0.3608
14725TIP3   OH265665   3.771   2.356   2.680  0.2615 -0.0074 -0.1271
14725TIP3    H165666   3.708   2.312   2.737 -1.8360  1.5013 -1.1491
14725TIP3    H265667   3.809   2.425   2.735  1.3793 -1.1579  0.6046
14726TIP3   OH265668   0.804   2.552   1.642 -0.6135 -0.7509 -0.5007
14726TIP3    H165669   0.852   2.469   1.632 -0.4590 -1.1904  2.6664
14726TIP3    H265670   0.738   2.533   1.709  0.5951  2.0510  1.7298
14727TIP3   OH265671   0.857   1.111   4.831  0.2026 -0.0608  0.0969
14727TIP3    H165672   0.932   1.165   4.807 -0.0977  0.0049 -0.7325
14727TIP3    H265673   0.800   1.114   4.754 -0.1400 -0.9914  0.3023
14728TIP3   OH265674   1.960   3.793   3.746 -0.4558 -0.3167  0.3249
14728TIP3    H165675   2.029   3.804   3.812 -0.9647 -0.5443  0.9057
14728TIP3    H265676   1.918   3.879   3.740  0.6411  0.1539 -0.9106
14729TIP3   OH265677   6.622   0.913  16.951  0.0053  0.1910 -0.3423
14729TIP3    H165678   6.660   0.924  17.039  0.8255  1.4725 -0.8327
14729TIP3    H265679   6.528   0.907  16.967  0.0798  1.1224  0.5903
14730TIP3   OH265680   5.934   6.327   4.870 -0.2713 -0.2381 -0.4687
14730TIP3    H165681   5.948   6.320   4.965 -0.1923 -3.2701 -0.5928
14730TIP3    H265682   5.860   6.387   4.861  1.5990  2.6096  1.2488
14731TIP3   OH265683   5.455   2.510  15.569  0.7256 -0.5424  0.1243
14731TIP3    H165684   5.397   2.466  15.507 -0.6324  4.0569 -2.3532
14731TIP3    H265685   5.543   2.496  15.535  0.3472 -1.1937 -0.6100
14732TIP3   OH265686   4.179   5.030   2.378  0.0473 -0.4375 -0.2223
14732TIP3    H165687   4.154   5.059   2.465  0.3891 -2.0249  0.4450
14732TIP3    H265688   4.128   5.085   2.318  0.1701  1.0065  0.9452
14733TIP3   OH265689   4.250   6.281   1.688 -0.7595 -0.0408  0.8049
14733TIP3    H165690   4.245   6.233   1.771 -0.1245  0.7329  1.3120
14733TIP3    H265691   4.311   6.231   1.635 -0.6385 -0.1692  1.0641
14734TIP3   OH265692   5.667   0.980  12.310 -0.6437  0.0221 -0.3362
14734TIP3    H165693   5.649   0.909  12.371 -2.3784  1.3051  0.7763
14734TIP3    H265694   5.624   0.954  12.229 -2.9610  0.5709  0.6388
14735TIP3   OH265695   3.119   0.807  11.995 -0.3581 -0.5583 -0.1200
14735TIP3    H165696   3.118   0.838  12.085  0.2551  0.2505 -0.3860
14735TIP3    H265697   3.141   0.884  11.943 -1.1120 -0.9193 -1.0069
14736TIP3   OH265698   4.743   6.328   4.093  0.5416  0.0617  0.2174
14736TIP3    H165699   4.721   6.397   4.156  0.0633 -0.4036  0.5628
14736TIP3    H265700   4.836   6.342   4.074  0.2883  1.2643 -0.2860
14737TIP3   OH265701   0.687   3.168  12.129  0.6291  0.3157 -0.7283
14737TIP3    H165702   0.595   3.166  12.101  0.4824 -0.0812 -0.2187
14737TIP3    H265703   0.690   3.235  12.197  0.2573 -1.1626  0.8152
14738TIP3   OH265704   5.223   0.894  14.427  1.4159 -0.6413  0.4389
14738TIP3    H165705   5.307   0.898  14.472  1.1740 -0.4543  0.8883
14738TIP3    H265706   5.244   0.906  14.335  1.8402 -0.1220  0.5992
14739TIP3   OH265707   3.144   0.626  17.211 -0.0110 -0.2276 -0.4118
14739TIP3    H165708   3.079   0.689  17.180 -2.2140 -2.3900 -0.4099
14739TIP3    H265709   3.121   0.544  17.169  1.3973 -1.5823  1.3165
14740TIP3   OH265710   2.680   3.306   1.101  0.0918 -0.3169 -0.5996
14740TIP3    H165711   2.726   3.385   1.131 -1.7253  1.4474 -2.1484
14740TIP3    H265712   2.743   3.263   1.043  0.8440  0.4300 -0.3620
14741TIP3   OH265713   6.714   2.295  12.885  0.0552 -0.6975  0.0344
14741TIP3    H165714   6.723   2.274  12.792 -1.5710 -0.4862 -0.2009
14741TIP3    H265715   6.770   2.231  12.929 -2.4779 -3.7881 -0.8397
14742TIP3   OH265716   0.560   2.442   1.795  0.6848  0.0452  0.6250
14742TIP3    H165717   0.516   2.439   1.711 -1.5874 -2.0066  1.7666
14742TIP3    H265718   0.554   2.533   1.823 -1.9202  0.0704  0.1978
14743TIP3   OH265719   6.203   2.636  13.127 -0.5727  0.1213 -0.3184
14743TIP3    H165720   6.287   2.682  13.134  0.1278 -1.1600  0.0651
14743TIP3    H265721   6.142   2.688  13.180 -0.2602  1.5596 -1.3349
14744TIP3   OH265722   5.662   5.838   3.881 -0.2687 -0.6324  0.4742
14744TIP3    H165723   5.633   5.929   3.876 -0.1697 -0.4144  2.8480
14744TIP3    H265724   5.605   5.791   3.820 -1.7591  0.7002  0.7784
14745TIP3   OH265725   0.340   3.056  15.725  0.0125  0.4143  0.1149
14745TIP3    H165726   0.297   3.022  15.647  0.9759  1.0842 -0.7479
14745TIP3    H265727   0.384   3.136  15.695  1.6189 -0.0887  0.9826
14746TIP3   OH265728   4.310   2.158   5.365 -0.5185  0.1532  0.0861
14746TIP3    H165729   4.316   2.251   5.384 -2.4499  0.2002  0.6232
14746TIP3    H265730   4.263   2.153   5.281 -1.2553 -0.3481  0.5188
14747TIP3   OH265731   4.624   6.423   5.509 -0.0300 -0.0715  1.2969
14747TIP3    H165732   4.640   6.333   5.481  1.8342  0.6108 -0.0154
14747TIP3    H265733   4.630   6.420   5.605 -1.2857 -1.5455  1.3513
14748TIP3   OH265734   1.431   0.247  16.976  0.0326 -0.3678  0.5186
14748TIP3    H165735   1.355   0.295  17.009  0.8528  0.2400  1.5860
14748TIP3    H265736   1.507   0.293  17.013  0.9475 -0.7170 -0.8455
14749TIP3   OH265737   5.466   5.512   5.027  0.3597  0.3604 -0.0910
14749TIP3    H165738   5.504   5.599   5.016  0.3586  0.2519 -1.0097
14749TIP3    H265739   5.373   5.528   5.039  0.4472  0.5201  0.4044
14750TIP3   OH265740   0.760   2.781   2.822  0.4025 -0.1794 -0.5783
14750TIP3    H165741   0.727   2.703   2.867 -0.6098  0.3752 -0.3298
14750TIP3    H265742   0.764   2.848   2.890  0.9449  0.0810 -0.8636
14751TIP3   OH265743   1.427   1.549   2.915  0.1616 -0.2676  0.4785
14751TIP3    H165744   1.466   1.465   2.887  0.0001 -0.4427  0.7731
14751TIP3    H265745   1.457   1.612   2.849  0.0672 -0.6061  0.1052
14752TIP3   OH265746   1.784   2.963   2.901  0.6030  0.1691  0.0093
14752TIP3    H165747   1.829   2.893   2.854  0.7924 -0.0877  0.5735
14752TIP3    H265748   1.696   2.964   2.862  0.1775 -1.2414  0.8686
14753TIP3   OH265749   4.566   5.116  14.819  0.5046  0.7029 -0.0523
14753TIP3    H165750   4.483   5.099  14.775  1.1195 -2.1541 -0.2679
14753TIP3    H265751   4.551   5.089  14.910  1.0825  0.5077 -0.0090
14754TIP3   OH265752   1.878   2.087   5.024 -0.1843  0.3874  0.1644
14754TIP3    H165753   1.784   2.106   5.027 -0.1568  0.4724  0.4642
14754TIP3    H265754   1.887   2.021   4.955 -0.4538  0.4379  0.0806
14755TIP3   OH265755   0.183   6.375   3.894 -0.4208 -0.2036 -0.3293
14755TIP3    H165756   0.277   6.366   3.906 -0.3908  0.3418 -0.1339
14755TIP3    H265757   0.166   6.338   3.807  0.0162 -0.0206 -0.4936
14756TIP3   OH265758   2.139   6.666  12.949  0.1226 -0.5625  0.0454
14756TIP3    H165759   2.233   6.681  12.956 -0.0513 -0.0557  2.5769
14756TIP3    H265760   2.114   6.704  12.866  1.7099  2.0450  0.6509
14757TIP3   OH265761   0.576   0.904  13.343  0.1306  0.2979 -0.1501
14757TIP3    H165762   0.591   0.998  13.349  1.2186  0.1335 -0.1833
14757TIP3    H265763   0.663   0.866  13.330 -0.3664 -0.6641 -0.7930
14758TIP3   OH265764   0.586   2.466   0.083 -0.4998 -0.8866  0.1122
14758TIP3    H165765   0.621   2.537   0.137  1.1883 -1.9874  0.5380
14758TIP3    H265766   0.539   2.511   0.013 -1.1881  0.6067  1.4699
14759TIP3   OH265767   3.945   6.012   1.517  0.0964 -0.2703 -1.0290
14759TIP3    H165768   3.897   6.028   1.436 -0.7010 -1.5074 -0.8202
14759TIP3    H265769   3.888   5.955   1.568  0.2730  1.0445  0.7147
14760TIP3   OH265770   3.623   1.222  12.459  0.3535 -0.1196 -0.3822
14760TIP3    H165771   3.717   1.228  12.474  0.0381  1.4776  1.3917
14760TIP3    H265772   3.586   1.201  12.545 -1.0142  1.2856 -0.5672
14761TIP3   OH265773   0.540   0.014  16.009 -0.7054  0.2121 -1.0172
14761TIP3    H165774   0.511  -0.058  15.953  0.2586 -0.3609 -0.7991
14761TIP3    H265775   0.602  -0.026  16.070 -1.2674  0.9532  0.0666
14762TIP3   OH265776   0.345   4.279  14.418  0.2198 -0.0817  0.8214
14762TIP3    H165777   0.316   4.197  14.377 -2.8018 -0.3060  3.0811
14762TIP3    H265778   0.364   4.254  14.508  1.6054  1.3566  0.9676
14763TIP3   OH265779   4.868   2.552  11.050  0.2879 -0.5105  0.0100
14763TIP3    H165780   4.921   2.475  11.072  1.3284  0.3410  0.5760
14763TIP3    H265781   4.829   2.531  10.965  3.4308 -0.2566 -1.6287
14764TIP3   OH265782   4.394   3.803   1.999  0.0536  0.1564 -0.0201
14764TIP3    H165783   4.429   3.719   2.027 -1.9440 -0.5173  0.6303
14764TIP3    H265784   4.320   3.819   2.057 -0.4907  1.6771 -1.0606
14765TIP3   OH265785   5.309   3.592   4.506  0.1366 -0.2245 -0.2655
14765TIP3    H165786   5.270   3.656   4.566 -0.2068 -1.7881  1.2502
14765TIP3    H265787   5.332   3.518   4.562 -0.6771 -1.9742 -2.1308
14766TIP3   OH265788   1.026   4.051  12.022 -0.0141 -0.2062  0.1975
14766TIP3    H165789   1.025   3.978  12.083 -0.1701  1.1351  1.8809
14766TIP3    H265790   0.935   4.064  11.997  0.0792 -0.9136 -0.5493
14767TIP3   OH265791   3.075   0.539  11.899 -0.4304 -0.1007  0.7078
14767TIP3    H165792   3.081   0.632  11.919 -0.8903  0.1855 -0.3833
14767TIP3    H265793   3.111   0.532  11.810  0.6644 -1.1440  1.2005
14768TIP3   OH265794   0.725   1.931  13.774 -0.4476  0.4643 -0.0873
14768TIP3    H165795   0.772   2.014  13.767  1.2166 -0.5190 -0.9873
14768TIP3    H265796   0.793   1.864  13.776 -1.5367 -0.8018  4.0121
14769TIP3   OH265797   1.222   4.293   4.456 -0.2579  0.4958  0.1368
14769TIP3    H165798   1.130   4.273   4.470  0.1466 -0.0513  2.4264
14769TIP3    H265799   1.267   4.252   4.530  1.6345  2.1481 -0.0111
14770TIP3   OH265800   3.905   1.904  12.836  0.4690  0.1989  0.1126
14770TIP3    H165801   3.835   1.843  12.813  0.7829 -0.8508  1.7811
14770TIP3    H265802   3.865   1.991  12.829 -0.1113 -0.1652 -1.8630
14771TIP3   OH265803   4.269   1.583   2.619  0.0645  0.9049  0.4550
14771TIP3    H165804   4.199   1.526   2.588  0.5219 -0.8524  2.3901
14771TIP3    H265805   4.323   1.600   2.541 -1.8054  1.3327 -0.8111
14772TIP3   OH265806   0.164   2.751   5.186 -0.0132 -0.1599 -0.4800
14772TIP3    H165807   0.070   2.765   5.176 -0.6784  0.3799  4.1960
14772TIP3    H265808   0.195   2.827   5.235  2.8423 -0.4913 -1.5884
14773TIP3   OH265809   1.021   2.946  13.911  0.0631  0.3629  0.2444
14773TIP3    H165810   1.054   2.959  14.000 -0.0656  1.2794  0.1721
14773TIP3    H265811   1.036   2.853  13.893  0.4410  0.2503  1.0776
14774TIP3   OH265812   4.470   0.161   1.316 -0.2733  0.2455 -0.5314
14774TIP3    H165813   4.416   0.223   1.365 -0.4381  0.1777 -0.6257
14774TIP3    H265814   4.437   0.167   1.226 -0.2240  0.0940 -0.5597
14775TIP3   OH265815   3.449   1.904   3.852 -0.4893  0.4977  0.7241
14775TIP3    H165816   3.406   1.932   3.771 -0.5649  2.6741  1.4768
14775TIP3    H265817   3.542   1.924   3.838 -0.3591  0.0027  0.8401
14776TIP3   OH265818   3.382   2.399  16.959 -0.4723 -0.6001  0.3063
14776TIP3    H165819   3.296   2.363  16.937 -1.0014  1.0579 -0.5353
14776TIP3    H265820   3.434   2.386  16.880 -0.9080  1.0532 -0.3141
14777TIP3   OH265821   5.189   4.473   5.148  0.1528 -0.7638 -0.3136
14777TIP3    H165822   5.181   4.441   5.238 -0.0589  0.7386  0.2231
14777TIP3    H265823   5.283   4.472   5.130  0.2513 -0.3968  0.1796
14778TIP3   OH265824   3.644   0.650  12.840 -0.0136  0.1260  0.1451
14778TIP3    H165825   3.654   0.683  12.930 -0.2725 -1.0351  0.6169
14778TIP3    H265826   3.730   0.614  12.819 -0.0807  0.0017  0.0876
14779TIP3   OH265827   5.995   5.068   4.592  0.4043  0.2021  0.0106
14779TIP3    H165828   6.087   5.092   4.581  0.3927  0.9881  1.5039
14779TIP3    H265829   5.997   4.975   4.616  0.7351 -0.0312 -0.8691
14780TIP3   OH265830   3.603   5.811  14.646 -0.5571 -0.5739 -0.1777
14780TIP3    H165831   3.596   5.716  14.660 -1.2683 -0.3796  0.9934
14780TIP3    H265832   3.652   5.843  14.722 -0.0384 -0.0397 -0.7303
14781TIP3   OH265833   0.459   1.808   1.340  0.2791  0.1918  0.2325
14781TIP3    H165834   0.551   1.818   1.366  0.6490  1.7358 -1.4410
14781TIP3    H265835   0.444   1.714   1.341  1.9713 -0.1106  0.2917
14782TIP3   OH265836   4.878   5.041   2.786 -0.5102 -0.3739  0.1044
14782TIP3    H165837   4.906   5.131   2.805  0.1408 -0.9619  2.1790
14782TIP3    H265838   4.930   5.016   2.710 -2.1698  1.6435 -1.8320
14783TIP3   OH265839   0.899   5.668  15.236  0.5207  0.0329 -0.3095
14783TIP3    H165840   0.930   5.676  15.146  0.6216  0.5053 -0.2386
14783TIP3    H265841   0.826   5.607  15.232  0.1864  0.4612 -0.7969
14784TIP3   OH265842   6.512   0.407  17.289 -0.1529  0.2857  1.0173
14784TIP3    H165843   6.554   0.380  17.371  1.0687  0.9721  0.6337
14784TIP3    H265844   6.438   0.460  17.316  1.7138  2.7228  1.7189
14785TIP3   OH265845   6.688   6.476  11.127 -0.1828  0.4143  0.1424
14785TIP3    H165846   6.612   6.475  11.069  1.6378  3.6405 -2.6325
14785TIP3    H265847   6.757   6.432  11.076  0.3743 -0.8026  1.8505
14786TIP3   OH265848   3.863   2.540   1.482  0.0018 -0.3356  0.0258
14786TIP3    H165849   3.776   2.577   1.465  0.0017 -0.2515  0.2062
14786TIP3    H265850   3.894   2.587   1.559  1.6930  2.2244 -2.0394
14787TIP3   OH265851   0.394   5.389   5.693  0.3305 -0.5071 -0.7479
14787TIP3    H165852   0.304   5.417   5.713  0.9083  1.3882 -0.6860
14787TIP3    H265853   0.443   5.470   5.684  2.0943 -1.5196 -0.6279
14788TIP3   OH265854   0.015   0.458   5.470  0.0819 -0.6869 -0.0706
14788TIP3    H165855   0.079   0.511   5.517 -0.3738  1.0364 -1.2601
14788TIP3    H265856  -0.049   0.432   5.537  0.0934  0.6746  0.5075
14789TIP3   OH265857   4.885   4.456   5.829  0.5395 -0.2613  0.1228
14789TIP3    H165858   4.892   4.551   5.819  0.6319 -0.4445 -2.0255
14789TIP3    H265859   4.948   4.434   5.897  0.7973  1.1776  0.3821
14790TIP3   OH265860   6.173   6.501   4.566 -0.0163  0.1240 -0.7508
14790TIP3    H165861   6.083   6.492   4.536 -0.4292  2.1854 -0.2721
14790TIP3    H265862   6.172   6.578   4.623  1.8026 -0.5371  0.2727
14791TIP3   OH265863   6.405   2.212  14.406 -0.0569 -0.0329  0.3424
14791TIP3    H165864   6.498   2.204  14.386  0.0562 -3.7555  1.4993
14791TIP3    H265865   6.402   2.238  14.498 -0.1802  0.2937  0.2477
14792TIP3   OH265866   1.029   6.543  11.583 -0.3407 -0.1328  0.6312
14792TIP3    H165867   0.953   6.562  11.638 -0.4753  0.9360  0.1052
14792TIP3    H265868   1.055   6.628  11.547 -0.6277 -0.8445 -1.4338
14793TIP3   OH265869   3.329   3.592  12.321 -0.3711  0.1673 -0.6765
14793TIP3    H165870   3.297   3.667  12.371 -0.9553 -0.2456 -0.4284
14793TIP3    H265871   3.251   3.541  12.300  0.2219 -1.6212  1.1502
14794TIP3   OH265872   2.891   6.685   5.165  0.3349  0.0489 -0.2844
14794TIP3    H165873   2.866   6.743   5.093  0.5732 -0.3700 -0.7161
14794TIP3    H265874   2.818   6.623   5.172  1.3574 -1.4029 -1.7922
14795TIP3   OH265875   2.784   1.531  15.796  0.0421 -0.4142 -0.4221
14795TIP3    H165876   2.825   1.613  15.824  1.4021 -1.1972 -0.0103
14795TIP3    H265877   2.720   1.557  15.730 -1.1707  1.2043  1.3110
14796TIP3   OH265878   1.242   2.862  11.974  0.0002  0.1985 -0.1251
14796TIP3    H165879   1.321   2.841  12.024 -0.2441  2.0611  1.1453
14796TIP3    H265880   1.176   2.881  12.041 -0.2148  3.2405 -1.0274
14797TIP3   OH265881   1.242   3.482  13.798  0.8568  0.0502 -0.4247
14797TIP3    H165882   1.272   3.571  13.817  3.6912 -0.9287  0.2354
14797TIP3    H265883   1.309   3.447  13.738 -0.7856 -1.2905 -1.5654
14798TIP3   OH265884   3.378   1.091   0.022  0.3183  0.4569  0.3885
14798TIP3    H165885   3.443   1.151  -0.015  0.0068  0.5383 -0.0298
14798TIP3    H265886   3.323   1.067  -0.053 -1.3765  1.9460  1.0786
14799TIP3   OH265887   0.413   6.382   0.104  0.4670 -0.6173  0.1297
14799TIP3    H165888   0.332   6.331   0.101  1.4382 -2.2080  0.0389
14799TIP3    H265889   0.403   6.447   0.035 -1.6352  0.6839  1.5304
14800TIP3   OH265890   6.108   6.355   0.983 -0.0429  0.2463 -0.4789
14800TIP3    H165891   6.102   6.393   0.896 -2.9285  1.4367  0.1199
14800TIP3    H265892   6.195   6.380   1.015  0.9612 -0.0004 -2.8511
14801TIP3   OH265893   6.721   0.566  14.169  0.0488  0.1853 -0.2973
14801TIP3    H165894   6.655   0.499  14.188 -1.6575  2.0566  0.7067
14801TIP3    H265895   6.725   0.619  14.248  0.9249  1.6297 -1.2668
14802TIP3   OH265896   5.645   1.345  12.100  0.0237 -0.0991  0.5889
14802TIP3    H165897   5.646   1.295  12.019 -0.3182 -1.3434  1.3366
14802TIP3    H265898   5.734   1.338  12.135 -0.0941 -0.4165  0.8292
14803TIP3   OH265899   4.080   4.762   3.267  0.3867  0.2627 -0.5256
14803TIP3    H165900   4.039   4.769   3.353  0.3651  1.3414 -0.6192
14803TIP3    H265901   4.111   4.850   3.247  0.2679  0.0578 -1.6884
14804TIP3   OH265902   5.354   3.532  13.637  0.1090 -0.0190 -0.0172
14804TIP3    H165903   5.269   3.524  13.681 -0.0499  1.1069 -0.0761
14804TIP3    H265904   5.379   3.624  13.650  0.1143  0.3231 -2.1188
14805TIP3   OH265905   2.458   0.274  13.229  0.1180  0.3270 -0.5653
14805TIP3    H165906   2.503   0.285  13.313 -1.7773 -0.7050  0.6500
14805TIP3    H265907   2.527   0.288  13.163  1.2886  2.9456  1.0556
14806TIP3   OH265908   6.136   3.057  10.768  0.7287 -0.5080 -0.3463
14806TIP3    H165909   6.077   3.004  10.716 -1.2985 -0.5256  1.8204
14806TIP3    H265910   6.223   3.021  10.750  0.0401 -1.0650 -2.9210
14807TIP3   OH265911   2.551   3.627  14.346  0.1382  0.4996 -0.3667
14807TIP3    H165912   2.471   3.586  14.312  0.6224 -0.8921  0.1034
14807TIP3    H265913   2.546   3.718  14.317 -2.8228  1.1415  1.7579
14808TIP3   OH265914   5.920   6.002  10.711  0.2528  0.7568  0.1139
14808TIP3    H165915   5.917   5.907  10.698  0.3190  0.7958 -0.2029
14808TIP3    H265916   6.010   6.026  10.691  0.4222  0.7929  0.8940
14809TIP3   OH265917   0.110   6.808   4.198  0.1468 -0.1200 -0.7381
14809TIP3    H165918   0.016   6.807   4.218  0.1948 -0.0743 -0.5135
14809TIP3    H265919   0.127   6.721   4.163 -0.0430 -0.0249 -1.0740
14810TIP3   OH265920   0.692   5.969  12.755 -0.1163 -0.1849  0.0386
14810TIP3    H165921   0.733   6.052  12.780 -1.1390  0.5562 -0.7000
14810TIP3    H265922   0.712   5.960  12.661 -0.1457 -0.6954  0.0795
14811TIP3   OH265923   3.104   3.510   5.439  0.0663  0.3918  0.2462
14811TIP3    H165924   3.008   3.511   5.437 -0.0226 -2.1884  0.1507
14811TIP3    H265925   3.126   3.528   5.531 -0.5805 -0.3512  0.5566
14812TIP3   OH265926   6.713   3.653   0.068 -0.3907  0.1729 -0.2375
14812TIP3    H165927   6.646   3.717   0.092 -0.2589  0.7003 -1.2348
14812TIP3    H265928   6.794   3.704   0.061 -0.0006 -0.3515  0.3225
14813TIP3   OH265929   6.595   3.066  15.647  0.0090  0.0634  0.1485
14813TIP3    H165930   6.568   3.052  15.738 -1.3751 -0.6595 -0.3463
14813TIP3    H265931   6.565   2.988  15.601  1.2625  0.1248 -0.8318
14814TIP3   OH265932   6.429   1.408   4.988  0.5967  0.4522 -0.4043
14814TIP3    H165933   6.410   1.427   4.897 -0.1528  0.0228 -0.3448
14814TIP3    H265934   6.384   1.326   5.006  0.3521  0.7609  0.4799
14815TIP3   OH265935   1.305   1.036  14.116 -0.4823 -0.0083 -0.0412
14815TIP3    H165936   1.376   1.057  14.177 -1.5953  1.7071  0.7418
14815TIP3    H265937   1.225   1.056  14.165 -1.4726 -0.4426 -1.4140
14816TIP3   OH265938   4.948   6.627  11.941  0.1713 -0.4420 -0.2670
14816TIP3    H165939   4.936   6.684  12.017 -1.6555  0.0512 -0.8857
14816TIP3    H265940   4.888   6.661  11.875  1.0051 -1.4605 -1.6052
14817TIP3   OH265941   6.486   5.637  13.137 -0.0683 -0.6290  0.6100
14817TIP3    H165942   6.530   5.656  13.220 -0.2523  1.0702  0.3518
14817TIP3    H265943   6.549   5.586  13.087  0.6174 -0.4040  1.2347
14818TIP3   OH265944   5.457   5.500  12.763 -0.0817  0.0328  0.3523
14818TIP3    H165945   5.429   5.592  12.761  0.8153  0.2996 -0.3461
14818TIP3    H265946   5.486   5.482  12.674  0.1116 -0.8146  0.5837
14819TIP3   OH265947   3.054   0.765  11.239 -0.5532 -0.0289  0.2991
14819TIP3    H165948   3.046   0.827  11.167 -1.2402 -1.1160 -0.5793
14819TIP3    H265949   3.123   0.705  11.212 -0.2175  0.0619  0.9334
14820TIP3   OH265950   1.296   6.711  12.771 -0.1807 -0.0113  0.4273
14820TIP3    H165951   1.327   6.776  12.835 -0.3376  0.6310 -0.1316
14820TIP3    H265952   1.304   6.627  12.816  1.5742  0.2170  0.6098
14821TIP3   OH265953   0.732   4.827   4.969 -0.1353  0.2823 -0.6870
14821TIP3    H165954   0.807   4.828   4.909  0.0217 -0.2384 -0.5098
14821TIP3    H265955   0.685   4.908   4.950  0.8078  0.9196 -0.3835
14822TIP3   OH265956   6.578   6.372  13.395  0.4658 -0.2770  0.4425
14822TIP3    H165957   6.571   6.300  13.332 -0.6076  1.1463 -1.1382
14822TIP3    H265958   6.565   6.330  13.480  0.2141 -2.0114 -0.4062
14823TIP3   OH265959   4.640   0.448  17.272 -0.4209 -0.1767 -0.0223
14823TIP3    H165960   4.567   0.489  17.318 -1.1294 -0.7320 -0.6417
14823TIP3    H265961   4.649   0.362  17.314  0.1102  0.0240  0.2870
14824TIP3   OH265962   0.070   6.603   0.877  0.4269  0.1689  0.2051
14824TIP3    H165963   0.117   6.633   0.799 -0.0343  0.6512  0.1031
14824TIP3    H265964   0.056   6.510   0.863 -1.4731  0.6133 -1.2767
14825TIP3   OH265965   2.063   3.852   4.586 -0.2117 -0.3526  0.2656
14825TIP3    H165966   2.102   3.766   4.571 -0.9564 -0.6693  0.1389
14825TIP3    H265967   1.970   3.840   4.570 -0.2148  0.6795 -0.6283
14826TIP3   OH265968   6.151   3.954  15.840  0.2613 -0.0368 -0.2477
14826TIP3    H165969   6.162   3.953  15.935 -0.4639 -1.6647 -0.1513
14826TIP3    H265970   6.158   4.047  15.816 -0.8852  0.5525  1.5432
14827TIP3   OH265971   3.059   0.347   4.732  0.1177 -0.3333  0.3876
14827TIP3    H165972   3.127   0.373   4.794 -0.7619 -1.0006  1.6817
14827TIP3    H265973   2.977   0.358   4.781 -0.5955 -0.8793 -0.6546
14828TIP3   OH265974   0.156   4.718   0.304 -0.4510 -0.0251 -0.1995
14828TIP3    H165975   0.192   4.770   0.376  1.6322 -0.0346 -1.1805
14828TIP3    H265976   0.143   4.781   0.233  1.4925 -0.6796 -1.1835
14829TIP3   OH265977   3.931   6.383   0.788  0.0042 -0.9540 -0.4993
14829TIP3    H165978   3.886   6.450   0.839 -0.7149 -0.4349 -1.7764
14829TIP3    H265979   3.974   6.328   0.854 -2.5237 -1.5121  0.8038
14830TIP3   OH265980   2.086   3.086  16.399  0.4719 -0.0884 -0.3629
14830TIP3    H165981   2.145   3.042  16.460  0.0124  0.0929  0.2174
14830TIP3    H265982   2.065   3.018  16.334 -0.4699 -0.8477  0.6914
14831TIP3   OH265983   6.376   3.611   4.895 -0.2688 -0.3991 -0.0585
14831TIP3    H165984   6.302   3.632   4.953 -1.2047 -1.6388 -0.7649
14831TIP3    H265985   6.401   3.522   4.919  0.7041 -0.1634 -0.1599
14832TIP3   OH265986   5.898   5.778  15.814 -0.4658 -0.4126  0.0522
14832TIP3    H165987   5.914   5.684  15.827 -0.7136 -0.2657  1.6759
14832TIP3    H265988   5.986   5.817  15.815 -0.3828 -0.5894 -0.2885
14833TIP3   OH265989   6.625   4.406  17.298 -0.0559  0.6712  0.2454
14833TIP3    H165990   6.632   4.335  17.235  0.0364  2.3184 -1.7189
14833TIP3    H265991   6.648   4.367  17.382  0.6846 -1.4297 -0.8741
14834TIP3   OH265992   1.623   1.390   5.073  0.7249 -0.3997 -0.4032
14834TIP3    H165993   1.545   1.402   5.127  0.1847  1.2914 -1.4692
14834TIP3    H265994   1.590   1.358   4.990  1.0947  0.7308 -1.0054
14835TIP3   OH265995   6.462   6.481   2.781 -0.1535  0.3363 -0.2922
14835TIP3    H165996   6.381   6.433   2.799  0.2487  0.4838  2.1792
14835TIP3    H265997   6.432   6.568   2.752 -0.9929  1.1571  2.7051
14836TIP3   OH265998   5.311   2.308  17.146  0.1044  0.7636 -0.7449
14836TIP3    H165999   5.300   2.398  17.176  1.4067  0.6912  0.0503
14836TIP3    H266000   5.268   2.305  17.061  0.5953  2.2974 -1.0669
14837TIP3   OH266001   0.403   2.098   0.867 -0.3135  0.2688  0.1710
14837TIP3    H166002   0.335   2.070   0.807  1.3168 -2.0444 -0.7501
14837TIP3    H266003   0.361   2.099   0.953 -1.1289 -3.0525 -0.0711
14838TIP3   OH266004   3.946   0.747   5.349  0.3988 -0.6796 -0.2007
14838TIP3    H166005   3.929   0.835   5.380  0.9263 -0.4928 -0.4285
14838TIP3    H266006   4.017   0.714   5.404  2.4496  0.2362 -2.1425
14839TIP3   OH266007   5.866   3.848  13.239 -0.2310  0.0030  0.6090
14839TIP3    H166008   5.842   3.824  13.328 -0.5002 -0.8530  0.3099
14839TIP3    H266009   5.959   3.871  13.245 -0.2927  0.1317  1.1388
14840TIP3   OH266010   2.197   2.137  14.898  0.0184  0.2841  0.1422
14840TIP3    H166011   2.195   2.206  14.965  1.1839  2.0297 -1.5370
14840TIP3    H266012   2.136   2.167  14.831  0.0258 -0.6945 -0.3143
14841TIP3   OH266013   5.520   0.874  12.887 -0.1388 -0.3213 -0.1010
14841TIP3    H166014   5.505   0.967  12.870 -0.0870 -0.2587  0.1901
14841TIP3    H266015   5.494   0.830  12.806 -2.9812 -0.3392  0.7251
14842TIP3   OH266016   5.494   4.139  16.459  0.0422  0.1412  0.1351
14842TIP3    H166017   5.510   4.230  16.435  0.7097  0.2539  0.9735
14842TIP3    H266018   5.551   4.123  16.535  1.3292 -1.5224 -1.1055
14843TIP3   OH266019   3.332   2.784  17.268  0.3149 -0.0367  0.1624
14843TIP3    H166020   3.381   2.866  17.262  2.2188 -1.0296  1.2125
14843TIP3    H266021   3.358   2.735  17.190  1.0793 -0.5862  0.7463
14844TIP3   OH266022   6.217   4.516  15.909  0.0944 -0.0642  0.7397
14844TIP3    H166023   6.261   4.601  15.920  1.3861 -0.3134 -1.8149
14844TIP3    H266024   6.267   4.457  15.965  2.4323 -0.0911 -1.2243
14845TIP3   OH266025   4.140   0.082  16.666  0.6314  0.4659  0.4554
14845TIP3    H166026   4.126  -0.007  16.698  2.8058 -0.2883 -0.5225
14845TIP3    H266027   4.062   0.100  16.613 -1.3105  0.3853  3.0689
14846TIP3   OH266028   2.525   4.720   0.084 -0.1494  0.7584  0.1657
14846TIP3    H166029   2.479   4.637   0.102  1.7771 -0.3668  0.1703
14846TIP3    H266030   2.545   4.755   0.170 -1.2943  1.4586  0.1672
14847TIP3   OH266031   6.040   2.622  14.101 -0.2863 -0.6984  0.2513
14847TIP3    H166032   6.006   2.539  14.136 -0.8522 -2.0015 -2.9725
14847TIP3    H266033   5.974   2.687  14.126 -1.1440 -1.7220  0.7429
14848TIP3   OH266034   5.135   5.934  16.297 -0.0451 -0.7293  0.1639
14848TIP3    H166035   5.101   5.885  16.222  1.6034 -1.8244  0.0744
14848TIP3    H266036   5.161   6.019  16.259 -0.2375 -0.8589 -0.2705
14849TIP3   OH266037   6.727   4.373  15.731  0.3512  0.2703  0.3723
14849TIP3    H166038   6.633   4.387  15.725  0.2273 -0.1791  1.0875
14849TIP3    H266039   6.766   4.448  15.686 -0.3332  1.2050  1.2815
14850TIP3   OH266040   4.370   2.626   1.202 -0.6404  0.6131 -0.2098
14850TIP3    H166041   4.299   2.590   1.255 -1.6183 -0.2187 -2.0140
14850TIP3    H266042   4.343   2.715   1.182 -1.2125  0.2870 -0.9231
14851TIP3   OH266043   4.417   6.731  13.240  0.0208  1.3376  0.4440
14851TIP3    H166044   4.380   6.643  13.232  0.4030  1.2372 -0.3047
14851TIP3    H266045   4.403   6.755  13.332 -1.6601  1.2013  0.2553
14852TIP3   OH266046   3.882   5.095  16.117  0.0099 -0.6352  0.0882
14852TIP3    H166047   3.977   5.099  16.131  0.2451  2.3473 -1.5093
14852TIP3    H266048   3.871   5.040  16.040  0.6036  0.1534 -0.5736
14853TIP3   OH266049   0.591   3.818   1.205 -0.1033  0.7382 -0.5143
14853TIP3    H166050   0.579   3.912   1.195 -0.0978  0.6946 -0.9543
14853TIP3    H266051   0.575   3.782   1.117 -1.3074  0.2064 -0.0910
14854TIP3   OH266052   2.973   2.273  13.182  0.2469  0.2957 -0.8455
14854TIP3    H166053   2.938   2.241  13.099 -1.6148 -0.9137  0.3189
14854TIP3    H266054   3.012   2.357  13.161 -1.1627  0.5379 -2.7637
14855TIP3   OH266055   4.875   5.872  11.110 -0.6221 -0.4005  0.8106
14855TIP3    H166056   4.885   5.824  11.192 -0.8851 -0.1102  1.0152
14855TIP3    H266057   4.882   5.805  11.042 -0.3079 -0.6295  1.0668
14856TIP3   OH266058   2.780   4.349  11.340  0.3893  0.2725 -0.1901
14856TIP3    H166059   2.747   4.348  11.430 -0.7645 -1.1603 -0.5986
14856TIP3    H266060   2.854   4.289  11.340 -0.9601 -1.4725 -0.6291
14857TIP3   OH266061   5.941   0.058  12.002 -0.3191  0.4574 -0.5225
14857TIP3    H166062   5.851   0.052  12.033 -0.0895 -0.7258 -0.0115
14857TIP3    H266063   5.965  -0.033  11.980  1.3156  0.4553  1.0053
14858TIP3   OH266064   6.103   0.920   5.052  0.1991  0.3263  0.1472
14858TIP3    H166065   6.069   0.886   5.135  0.6966 -0.3511  0.0794
14858TIP3    H266066   6.092   1.015   5.059 -0.1632  0.2412  0.8086
14859TIP3   OH266067   4.474   1.241  17.003 -0.3309 -1.0203  0.1238
14859TIP3    H166068   4.553   1.288  16.978  0.1168 -2.4567 -1.3756
14859TIP3    H266069   4.480   1.231  17.098  0.7517 -0.1881  0.1596
14860TIP3   OH266070   2.435   4.312   3.920  0.2741  0.0401  0.0054
14860TIP3    H166071   2.477   4.321   3.835  0.9832  1.2129  0.4462
14860TIP3    H266072   2.369   4.381   3.922 -0.3250 -0.5313  0.0785
14861TIP3   OH266073   5.607   5.359   4.866 -0.2023 -0.4425  0.3754
14861TIP3    H166074   5.554   5.430   4.902  0.3738  1.1199 -1.6244
14861TIP3    H266075   5.545   5.287   4.852 -1.3635  0.5938  0.0709
14862TIP3   OH266076   1.290   1.430   3.137  0.0100 -0.2947 -0.4458
14862TIP3    H166077   1.329   1.468   3.058 -0.1479 -0.3945 -0.5735
14862TIP3    H266078   1.343   1.352   3.154  2.6245  1.7511  1.8361
14863TIP3   OH266079   2.204   5.605   2.125  0.1206 -0.3148 -0.8406
14863TIP3    H166080   2.168   5.693   2.112 -0.5559 -0.4911 -0.2465
14863TIP3    H266081   2.147   5.548   2.075  0.3199 -0.4624 -0.8998
14864TIP3   OH266082   5.869   4.289   0.091 -0.3617  0.2345 -0.7159
14864TIP3    H166083   5.864   4.213   0.149 -1.4848  1.2000  0.5245
14864TIP3    H266084   5.882   4.363   0.151  0.2188  1.0708 -1.8519
14865TIP3   OH266085   5.770   2.988   2.651  0.1376 -0.4198  0.1478
14865TIP3    H166086   5.680   3.000   2.681 -0.3192 -1.1306 -0.8827
14865TIP3    H266087   5.799   2.907   2.694 -0.1263 -0.8231 -0.4230
14866TIP3   OH266088   1.710   0.053  17.199 -0.0494  0.1032  0.1028
14866TIP3    H166089   1.668   0.139  17.188  2.4043  1.2460 -1.2800
14866TIP3    H266090   1.645   0.000  17.245 -1.5994  2.7459  1.1984
14867TIP3   OH266091   6.021   3.962   1.568 -0.5094  0.6418 -0.0524
14867TIP3    H166092   6.009   3.997   1.480 -0.7192 -0.3682 -0.4346
14867TIP3    H266093   6.115   3.948   1.576 -0.6149 -0.5681 -0.6496
14868TIP3   OH266094   2.552   6.005   0.024 -0.0401  0.4060 -0.2145
14868TIP3    H166095   2.491   5.936   0.052  0.5189 -0.3405 -0.8014
14868TIP3    H266096   2.565   6.058   0.103 -1.5842  0.6987 -0.1156
14869TIP3   OH266097   6.383   0.866   2.721  0.1728 -0.2213 -0.1816
14869TIP3    H166098   6.438   0.815   2.781 -0.1612  0.2325  0.5155
14869TIP3    H266099   6.401   0.957   2.743 -1.0154 -0.0623  0.2093
14870TIP3   OH266100   2.243   2.214   3.647  0.4615 -0.2294  0.3164
14870TIP3    H166101   2.244   2.207   3.552  1.9728  0.6665  0.2429
14870TIP3    H266102   2.203   2.299   3.665  1.1911  0.0936  0.4329
14871TIP3   OH266103   6.658   4.509  10.771 -0.2160 -0.0969 -0.0131
14871TIP3    H166104   6.713   4.580  10.738 -2.2676  1.9712  0.7382
14871TIP3    H266105   6.599   4.488  10.698 -0.0635 -0.5249 -0.0102
14872TIP3   OH266106   1.757   0.151  14.562  0.4070  0.1179  0.0827
14872TIP3    H166107   1.828   0.153  14.626 -0.6309 -1.6766  1.3864
14872TIP3    H266108   1.700   0.224  14.587  1.1021  0.7534 -0.1591
14873TIP3   OH266109   1.118   4.988   1.874  0.1598  0.7221  1.0480
14873TIP3    H166110   1.064   4.930   1.928  1.4316  0.9102  2.6064
14873TIP3    H266111   1.175   4.928   1.825 -0.6312  0.5750  0.2677
14874TIP3   OH266112   1.639   3.240  15.510 -0.8782 -0.4820  0.5102
14874TIP3    H166113   1.587   3.173  15.554 -0.9852 -0.7151  0.0230
14874TIP3    H266114   1.689   3.193  15.443 -0.2912 -0.2094  0.7485
14875TIP3   OH266115   1.574   5.843  14.703 -0.3672  0.5698 -0.1273
14875TIP3    H166116   1.612   5.919  14.747 -3.1880  2.6275 -0.9821
14875TIP3    H266117   1.579   5.864  14.610 -3.0925  0.7984 -0.2980
14876TIP3   OH266118   3.881   5.357  11.544  0.1393  0.1730  0.0296
14876TIP3    H166119   3.882   5.300  11.467  0.0718  1.6494 -1.1105
14876TIP3    H266120   3.974   5.375  11.561  0.2366 -1.1597  1.1236
14877TIP3   OH266121   1.808   6.635   4.296  0.3388  0.1570  0.2500
14877TIP3    H166122   1.763   6.701   4.350 -0.5706 -0.5139  0.3327
14877TIP3    H266123   1.752   6.558   4.300  1.1662 -0.4864 -0.2153
14878TIP3   OH266124   5.567   3.656   3.365  0.2050  0.2642 -0.4653
14878TIP3    H166125   5.506   3.588   3.336  0.6955 -0.0567 -0.7612
14878TIP3    H266126   5.616   3.614   3.436  3.1829 -1.0996 -3.1114
14879TIP3   OH266127   2.307   0.087  14.223  0.0934 -0.1698  0.0168
14879TIP3    H166128   2.306   0.136  14.141 -1.3016 -0.8033 -0.3794
14879TIP3    H266129   2.219   0.100  14.259  0.2843 -0.9293  0.7798
14880TIP3   OH266130   0.828   1.410   2.178 -0.0290 -0.1221  0.3894
14880TIP3    H166131   0.822   1.449   2.265  1.2020 -1.6781  1.2368
14880TIP3    H266132   0.922   1.402   2.161 -0.2424 -1.0521 -0.4986
14881TIP3   OH266133   4.639   0.594  15.133 -0.1175  0.9187  0.4556
14881TIP3    H166134   4.578   0.636  15.072 -1.4587 -0.2238  0.9479
14881TIP3    H266135   4.660   0.511  15.092  0.9575  1.2050  0.4027
14882TIP3   OH266136   2.737   3.494   1.751  0.4922  0.5054 -0.4237
14882TIP3    H166137   2.718   3.405   1.782  1.4829  0.5960  0.4851
14882TIP3    H266138   2.670   3.511   1.684 -0.3860 -0.5029  0.1779
14883TIP3   OH266139   3.185   0.173   4.175  0.0656  0.3132 -0.1079
14883TIP3    H166140   3.183   0.116   4.099 -1.0802  0.9331 -0.5687
14883TIP3    H266141   3.112   0.143   4.230  1.7114 -1.0261  1.4593
14884TIP3   OH266142   2.968   1.478  12.725  0.0309  0.1380 -0.4310
14884TIP3    H166143   2.953   1.384  12.737  1.0085  0.0283 -0.0107
14884TIP3    H266144   3.043   1.497  12.781 -0.8330  1.3867  0.3383
14885TIP3   OH266145   5.677   6.507  10.994  0.3798 -0.2123 -0.3364
14885TIP3    H166146   5.711   6.507  10.905  1.8120 -1.0438  0.1702
14885TIP3    H266147   5.582   6.504  10.983  0.5332 -2.8648 -1.8897
14886TIP3   OH266148   2.216   5.239  14.805 -0.5255 -0.4642 -0.2675
14886TIP3    H166149   2.174   5.165  14.850 -0.8345  0.3875  0.8726
14886TIP3    H266150   2.297   5.253  14.853 -0.2552 -0.3301 -0.7578
14887TIP3   OH266151   5.621   1.145  15.704 -0.1535  0.0323  0.3643
14887TIP3    H166152   5.633   1.190  15.788  1.1890 -0.7006  0.5951
14887TIP3    H266153   5.710   1.125  15.675 -0.6694 -2.7536  0.4482
14888TIP3   OH266154   3.865   3.600   5.464  0.3034 -0.1539 -0.4768
14888TIP3    H166155   3.848   3.564   5.550 -0.2764  0.2038 -0.4404
14888TIP3    H266156   3.932   3.667   5.479  1.1914 -1.0157 -0.5090
14889TIP3   OH266157   0.680   0.216  13.161  0.1052  0.4811 -0.1270
14889TIP3    H166158   0.673   0.138  13.215 -0.7971  0.3386 -0.4259
14889TIP3    H266159   0.690   0.288  13.223 -2.7206  0.5349  0.3851
14890TIP3   OH266160   5.906   5.303   3.947 -0.0646 -0.0528  0.2166
14890TIP3    H166161   5.833   5.244   3.967  0.8964 -0.8748  1.4867
14890TIP3    H266162   5.926   5.344   4.031  0.6711  0.4821 -0.2152
14891TIP3   OH266163   2.101   4.693   3.164  0.1791  0.0979  0.0188
14891TIP3    H166164   2.059   4.775   3.191 -2.4740 -0.5349 -1.7430
14891TIP3    H266165   2.148   4.715   3.084  0.1282  0.0725 -0.0182
14892TIP3   OH266166   2.669   5.006   2.836  0.3540 -0.4341  0.0482
14892TIP3    H166167   2.754   4.964   2.823 -0.4682 -1.7970 -1.0845
14892TIP3    H266168   2.691   5.094   2.867  2.1486 -1.1763  1.0498
14893TIP3   OH266169   5.656   4.218  16.161  0.2473  0.2112 -0.0495
14893TIP3    H166170   5.698   4.295  16.200 -1.3995  1.3208 -0.3422
14893TIP3    H266171   5.712   4.145  16.187  1.5101  1.4131  0.8102
14894TIP3   OH266172   3.547   0.446   4.784  0.6809 -0.0419  0.0468
14894TIP3    H166173   3.553   0.530   4.739 -0.2728  0.4138  0.7133
14894TIP3    H266174   3.541   0.381   4.714 -0.3442  0.6111 -0.5055
14895TIP3   OH266175   2.700   1.269   1.275  0.4028  0.3145 -0.1042
14895TIP3    H166176   2.743   1.272   1.360  0.6832  1.5563 -0.2746
14895TIP3    H266177   2.743   1.337   1.224 -0.4087  0.2205 -0.9335
14896TIP3   OH266178   1.577   4.884  11.933  0.2653  0.6814 -0.7889
14896TIP3    H166179   1.506   4.854  11.990  0.4307 -0.0647 -0.9649
14896TIP3    H266180   1.656   4.843  11.968  0.3346  0.0301 -1.6802
14897TIP3   OH266181   2.565   1.529  16.228 -0.5203 -0.4003  0.3877
14897TIP3    H166182   2.530   1.499  16.144  1.9826  1.0394 -1.2926
14897TIP3    H266183   2.522   1.613  16.243  1.6801  1.1711 -1.4670
14898TIP3   OH266184   0.763   2.011   1.553  0.1156 -0.0648  0.2891
14898TIP3    H166185   0.853   2.022   1.583  0.5463  0.2062 -1.0414
14898TIP3    H266186   0.758   1.920   1.524  0.9033  0.6561 -2.4464
14899TIP3   OH266187   3.637   3.738  10.731 -0.1225  0.2866 -0.4238
14899TIP3    H166188   3.684   3.655  10.729 -1.8161 -0.8412  1.8417
14899TIP3    H266189   3.698   3.800  10.772  0.7389 -0.1341 -1.0655
14900TIP3   OH266190   5.186   2.476   3.828 -0.9448  0.1095  0.6063
14900TIP3    H166191   5.274   2.508   3.807 -0.3890 -1.2964  0.6763
14900TIP3    H266192   5.127   2.544   3.796  0.0870  0.1466 -1.3299
14901TIP3   OH266193   4.092   3.918   3.464  0.1808 -0.3669  0.5947
14901TIP3    H166194   4.051   3.930   3.378  3.0118  1.8136 -0.6143
14901TIP3    H266195   4.139   3.835   3.457  0.7196 -0.0105 -0.1473
14902TIP3   OH266196   4.822   1.838   2.056 -0.5618 -0.2848  0.0322
14902TIP3    H166197   4.803   1.774   1.987  0.6662 -1.5115  0.7716
14902TIP3    H266198   4.753   1.904   2.047 -2.1215 -1.8870 -0.5472
14903TIP3   OH266199   4.615   1.061   1.298  0.3020 -0.1012 -0.3667
14903TIP3    H166200   4.561   1.040   1.222  0.5677  0.2257 -0.6511
14903TIP3    H266201   4.694   1.100   1.261  0.7427 -0.5874  0.0396
14904TIP3   OH266202   3.124   1.393  10.824  0.3095  0.4420  0.3053
14904TIP3    H166203   3.213   1.376  10.854 -0.0028  1.4366  1.9380
14904TIP3    H266204   3.115   1.343  10.744  1.4253 -1.9225  1.5635
14905TIP3   OH266205   5.093   4.019   0.583  0.1264 -0.0583  0.2274
14905TIP3    H166206   5.164   4.030   0.646  1.7762 -0.3326 -1.4977
14905TIP3    H266207   5.052   3.936   0.608 -0.5326  0.7759  2.0813
14906TIP3   OH266208   4.467   1.195   1.524  0.0067  0.2147  0.1384
14906TIP3    H166209   4.519   1.222   1.449  0.8606 -1.1408  0.1976
14906TIP3    H266210   4.404   1.132   1.489 -0.9836  1.1370  0.2270
14907TIP3   OH266211   6.141   0.097   4.031 -0.4917 -0.3004 -0.0918
14907TIP3    H166212   6.060   0.049   4.041 -0.7026  0.0969  0.1408
14907TIP3    H266213   6.204   0.051   4.088 -0.9282  0.2257  0.8403
14908TIP3   OH266214   1.538   4.527   0.321  0.0681  0.0125  0.0385
14908TIP3    H166215   1.487   4.588   0.374  1.6741  0.4932  1.1188
14908TIP3    H266216   1.545   4.570   0.235  1.9683  1.9184  1.0464
14909TIP3   OH266217   3.737   3.009  12.234  0.5623  0.0072  0.5933
14909TIP3    H166218   3.753   3.011  12.329  0.8604 -1.4070  0.5997
14909TIP3    H266219   3.824   3.018  12.195  0.3796  1.1654  0.4268
14910TIP3   OH266220   6.138   2.860  16.164  0.2503  0.0788  0.1085
14910TIP3    H166221   6.054   2.852  16.210  0.1164 -2.0510 -0.4077
14910TIP3    H266222   6.143   2.782  16.109  2.5280  0.2085  0.0340
14911TIP3   OH266223   4.389   3.453   1.517 -0.1267  0.0380  0.3394
14911TIP3    H166224   4.371   3.543   1.546  0.0046 -0.5860  2.5279
14911TIP3    H266225   4.304   3.420   1.486 -0.6154  0.2962  1.3646
14912TIP3   OH266226   5.348   2.586  12.019  0.7383 -0.3010  0.0278
14912TIP3    H166227   5.345   2.591  11.924  0.2039 -2.9623 -0.1704
14912TIP3    H266228   5.435   2.620  12.042  0.5112  1.2913 -1.2585
14913TIP3   OH266229   2.139   5.205  14.536  0.0257  0.0970  0.1028
14913TIP3    H166230   2.180   5.121  14.516 -0.8965 -0.7592  1.6317
14913TIP3    H266231   2.180   5.233  14.618 -2.3090 -0.7524  1.6327
14914TIP3   OH266232   4.864   0.309  12.936 -0.3355 -0.7696  0.4922
14914TIP3    H166233   4.802   0.374  12.970 -0.9873 -0.7819 -0.6163
14914TIP3    H266234   4.812   0.229  12.929 -0.5069 -0.5406 -1.3866
14915TIP3   OH266235   6.534   3.047  12.987  1.1728  0.0240 -0.2882
14915TIP3    H166236   6.598   3.000  13.040  0.3307 -0.8150  0.0098
14915TIP3    H266237   6.583   3.121  12.951  2.5073 -1.0310 -0.7217
14916TIP3   OH266238   4.054   6.385  16.415 -0.4131  0.1170 -0.2538
14916TIP3    H166239   3.993   6.347  16.477  0.0159 -0.0708  0.0614
14916TIP3    H266240   4.137   6.339  16.431 -0.1559  0.4496 -0.5850
14917TIP3   OH266241   3.301   1.697  16.545  0.6821 -0.0426 -0.3063
14917TIP3    H166242   3.287   1.709  16.639  3.1879  2.1606 -0.1100
14917TIP3    H266243   3.234   1.634  16.519 -1.0178  0.3505  2.6617
14918TIP3   OH266244   3.407   6.654   1.667  0.1831  0.0650  0.2863
14918TIP3    H166245   3.467   6.700   1.609 -0.7315  1.0420  0.0907
14918TIP3    H266246   3.337   6.622   1.610 -1.0054  1.4970  0.8488
14919TIP3   OH266247   6.127   4.294  15.487 -0.5339 -0.2089  0.3733
14919TIP3    H166248   6.170   4.217  15.450  0.5971  1.0903 -1.2080
14919TIP3    H266249   6.063   4.259  15.548 -0.8524 -2.4341 -1.1016
14920TIP3   OH266250   2.121   3.915  15.407 -0.9855 -0.0729  0.7137
14920TIP3    H166251   2.120   3.912  15.503 -1.7349 -1.7524  0.6895
14920TIP3    H266252   2.077   3.834  15.380  0.1951 -0.1726 -1.0604
14921TIP3   OH266253   4.176   3.490  13.815  0.3927  0.0616 -0.5193
14921TIP3    H166254   4.228   3.469  13.893  0.6612 -0.2018 -0.7684
14921TIP3    H266255   4.178   3.410  13.763  0.3834  0.3061 -0.8935
14922TIP3   OH266256   1.611   1.859  14.667 -0.7428  0.1491 -0.0905
14922TIP3    H166257   1.593   1.928  14.603 -1.9025 -0.5996 -0.6130
14922TIP3    H266258   1.698   1.878  14.700 -0.0803  0.5291 -1.9456
14923TIP3   OH266259   2.718   6.318  13.044 -0.0462  0.5585  0.5317
14923TIP3    H166260   2.693   6.293  13.133 -2.3629  0.1705 -0.1725
14923TIP3    H266261   2.680   6.251  12.988 -2.1061  2.8760 -1.0354
14924TIP3   OH266262   1.776   0.070  12.488  0.2332 -0.5909 -0.5641
14924TIP3    H166263   1.757   0.078  12.394 -1.3813 -0.1950 -0.2244
14924TIP3    H266264   1.872   0.071  12.493  0.3485 -0.8750 -2.2232
14925TIP3   OH266265   5.865   1.668  13.321 -0.2738  0.2693 -0.4482
14925TIP3    H166266   5.925   1.701  13.254  0.1754 -3.1246 -1.9613
14925TIP3    H266267   5.923   1.633  13.389 -0.5438 -0.7381 -0.7110
14926TIP3   OH266268   0.730   0.694  12.566 -0.2800  0.0491  0.3649
14926TIP3    H166269   0.749   0.644  12.646  1.4556  0.5294  0.2985
14926TIP3    H266270   0.777   0.647  12.497 -1.5099 -0.1824 -0.3428
14927TIP3   OH266271   5.904   1.395  14.075  0.1074  0.5864 -0.3044
14927TIP3    H166272   5.851   1.322  14.042 -0.1274  0.3218  0.6217
14927TIP3    H266273   5.979   1.353  14.118 -0.7255  0.7975  1.4488
14928TIP3   OH266274   4.578   3.064   2.942 -0.1810  0.1628 -0.0035
14928TIP3    H166275   4.500   3.040   2.892  0.1665  0.3676 -0.6492
14928TIP3    H266276   4.589   2.992   3.005 -0.3335 -0.3447 -0.5517
14929TIP3   OH266277   2.920   0.920  16.203 -0.1629  0.3316 -0.1097
14929TIP3    H166278   2.946   0.851  16.265  0.4164 -0.4885 -1.2343
14929TIP3    H266279   2.825   0.913  16.199 -0.1143 -0.4200 -0.1996
14930TIP3   OH266280   3.196   2.148  11.253  0.4948 -0.6364 -0.0550
14930TIP3    H166281   3.101   2.143  11.248  0.3584  1.5711 -1.1723
14930TIP3    H266282   3.219   2.099  11.331 -1.4579 -1.9993 -0.2668
14931TIP3   OH266283   4.460   5.485  14.324  0.0202 -0.2179 -0.3307
14931TIP3    H166284   4.461   5.505  14.417 -0.6981 -2.4683  0.2054
14931TIP3    H266285   4.433   5.567  14.282  2.0714  1.3648  1.2358
14932TIP3   OH266286   0.605   0.334  16.497  0.3249 -0.1880  0.1442
14932TIP3    H166287   0.611   0.255  16.444  0.2551 -0.4803  0.5703
14932TIP3    H266288   0.695   0.366  16.502  0.2666  0.1238 -0.5637
14933TIP3   OH266289   2.967   6.481   0.445  0.4345  0.1820 -0.0790
14933TIP3    H166290   2.960   6.543   0.372  1.7669 -0.9211 -1.2049
14933TIP3    H266291   3.047   6.507   0.490 -0.5608  1.0745  1.2697
14934TIP3   OH266292   4.817   5.970   1.009  0.1405  0.5656  0.6787
14934TIP3    H166293   4.774   6.054   0.989  1.2423  0.5716 -2.0611
14934TIP3    H266294   4.903   5.977   0.968  0.8804 -1.3253  1.8177
14935TIP3   OH266295   1.890   1.000  11.944  0.1400 -0.6539 -0.1803
14935TIP3    H166296   1.810   1.040  11.978  1.2795  0.6308  1.0966
14935TIP3    H266297   1.915   1.056  11.871  0.9407  0.1746  0.6959
14936TIP3   OH266298   2.853   5.597   0.565  0.0372 -0.3023 -0.0726
14936TIP3    H166299   2.900   5.624   0.486 -0.5133 -0.5313 -0.4854
14936TIP3    H266300   2.807   5.517   0.539  1.7391 -1.7692  1.1447
14937TIP3   OH266301   5.575   5.713  12.223 -0.0897 -0.3595  0.0337
14937TIP3    H166302   5.590   5.684  12.133 -0.1784 -0.1986 -0.0323
14937TIP3    H266303   5.653   5.765  12.244 -0.2924  0.0117 -0.1196
14938TIP3   OH266304   2.585   1.231   1.951 -0.6338  0.1481 -0.4767
14938TIP3    H166305   2.649   1.294   1.918  1.7893 -2.2681 -0.7803
14938TIP3    H266306   2.591   1.237   2.046 -1.9369  1.7197 -0.4548
14939TIP3   OH266307   1.045   3.161   2.373 -0.8098 -0.1556 -0.4329
14939TIP3    H166308   1.072   3.085   2.424  0.4883  0.7157  0.2313
14939TIP3    H266309   1.021   3.125   2.288  1.1941 -1.1578 -0.6214
14940TIP3   OH266310   5.536   0.542   2.157 -0.1408  0.2704  0.2573
14940TIP3    H166311   5.479   0.608   2.196  0.6675  0.6925  0.7546
14940TIP3    H266312   5.577   0.586   2.082 -0.1428  0.1081  0.1592
14941TIP3   OH266313   3.069   5.276  16.579  1.2033  0.0409  0.4348
14941TIP3    H166314   3.009   5.220  16.629  1.0860 -0.8914 -0.7038
14941TIP3    H266315   3.148   5.223  16.568  0.5840 -0.5229 -1.8688
14942TIP3   OH266316   1.742   3.512  16.294  0.3720  0.1792  0.0221
14942TIP3    H166317   1.802   3.487  16.225 -0.2127  1.1239 -0.8591
14942TIP3    H266318   1.756   3.606  16.305 -0.0941  0.1831  0.6468
14943TIP3   OH266319   3.217   2.296  17.261  0.4246  0.3228 -0.1172
14943TIP3    H166320   3.132   2.263  17.293  0.2659 -0.7422 -1.5425
14943TIP3    H266321   3.245   2.358  17.328 -0.7743 -0.4186  1.1330
14944TIP3   OH266322   0.098   5.357   0.856 -0.2813 -0.1236  0.3601
14944TIP3    H166323   0.046   5.407   0.794  1.0577 -1.4216 -1.9305
14944TIP3    H266324   0.181   5.404   0.862 -0.9921  1.0152  2.7092
14945TIP3   OH266325   3.519   4.281  13.302  0.0930  0.1393  0.5477
14945TIP3    H166326   3.565   4.311  13.380  0.7225  0.4242  0.0764
14945TIP3    H266327   3.571   4.316  13.229 -0.1562 -0.6135  0.0003
14946TIP3   OH266328   2.825   0.894   3.930  0.3200  0.6825  0.5574
14946TIP3    H166329   2.820   0.814   3.878 -1.0969  0.9519  0.2409
14946TIP3    H266330   2.879   0.953   3.877  0.0089  0.4939  0.0225
14947TIP3   OH266331   1.510   2.252   3.841  0.1761  0.5659  0.1388
14947TIP3    H166332   1.415   2.257   3.850  0.1278  0.0946 -0.0582
14947TIP3    H266333   1.529   2.299   3.760 -0.1529 -1.3368 -1.1153
14948TIP3   OH266334   5.115   4.160   2.996 -0.2657  0.7951 -0.4194
14948TIP3    H166335   5.028   4.201   2.994  0.1026  1.6074 -0.5099
14948TIP3    H266336   5.116   4.110   3.077 -0.9376  0.5079 -0.5837
14949TIP3   OH266337   0.356   3.975  11.651 -0.0372  0.6109 -0.7721
14949TIP3    H166338   0.384   4.012  11.567  0.1210  1.2190 -0.4554
14949TIP3    H266339   0.351   4.051  11.709 -3.1738  0.7076 -1.0161
14950TIP3   OH266340   0.516   2.184   5.591 -0.7809 -0.1318  0.2769
14950TIP3    H166341   0.518   2.276   5.616 -1.6901  0.2624 -1.0056
14950TIP3    H266342   0.603   2.151   5.613 -0.6006  0.9081  1.1839
14951TIP3   OH266343   2.529   2.275   3.665  0.1611 -0.4671  0.4123
14951TIP3    H166344   2.444   2.246   3.698 -0.6050  1.9083  0.6686
14951TIP3    H266345   2.572   2.314   3.741 -0.6664  2.9435 -0.7086
14952TIP3   OH266346   0.730   3.154   3.819 -0.3609  0.0280 -0.2551
14952TIP3    H166347   0.764   3.187   3.736 -0.4565  0.8488  0.0218
14952TIP3    H266348   0.699   3.232   3.865  0.3555 -0.3166  0.8523
14953TIP3   OH266349   2.413   4.276   1.119  0.3968  0.6788 -0.3707
14953TIP3    H166350   2.349   4.205   1.108  0.1916  1.0093 -1.4437
14953TIP3    H266351   2.476   4.242   1.183  0.6688 -0.7392 -1.3332
14954TIP3   OH266352   2.852   4.954   0.855 -0.0513 -0.5480  0.1951
14954TIP3    H166353   2.806   4.981   0.934 -0.0475  0.8841 -0.2624
14954TIP3    H266354   2.896   5.034   0.824  2.7486 -1.8270  0.6028
14955TIP3   OH266355   3.842   1.860  14.563  0.4691 -0.1060  0.6498
14955TIP3    H166356   3.771   1.804  14.597  0.8511  0.0082  1.6826
14955TIP3    H266357   3.826   1.864  14.469  0.0718 -1.4612  0.6292
14956TIP3   OH266358   0.512   4.209  10.736  0.0167  0.1005 -0.5992
14956TIP3    H166359   0.568   4.219  10.658  1.4032 -0.5986  0.2655
14956TIP3    H266360   0.447   4.143  10.711  0.1913  0.1801 -1.2908
14957TIP3   OH266361   2.329   5.015  15.608  0.7724 -0.1403 -0.5796
14957TIP3    H166362   2.312   4.998  15.700 -2.0209  0.0874 -0.9746
14957TIP3    H266363   2.327   4.928  15.567 -0.6871 -0.0393 -0.7703
14958TIP3   OH266364   3.279   1.249  12.492  0.4505  0.0352 -0.0620
14958TIP3    H166365   3.227   1.243  12.573 -1.8662  2.1186 -1.2749
14958TIP3    H266366   3.303   1.158  12.474 -1.6640 -0.8980  1.3197
14959TIP3   OH266367   3.193   1.819   0.057 -0.8985 -0.1309 -0.2671
14959TIP3    H166368   3.131   1.865   0.113 -1.2015 -2.7993  1.7822
14959TIP3    H266369   3.266   1.880   0.047 -2.0356  1.4642  0.7732
14960TIP3   OH266370   5.306   4.017  15.942 -0.2438 -0.2286 -0.5275
14960TIP3    H166371   5.378   3.985  15.889  0.3727  0.6570 -0.2484
14960TIP3    H266372   5.342   4.092  15.990 -1.7267  1.1303 -1.4399
14961TIP3   OH266373   3.988   0.978   5.521 -0.7599  0.6427  0.1540
14961TIP3    H166374   4.073   0.962   5.479 -1.0338  1.3133 -0.6860
14961TIP3    H266375   3.986   1.073   5.534 -0.4767  0.4248  2.1723
14962TIP3   OH266376   4.712   0.597  14.789 -0.2516 -0.3577  0.2785
14962TIP3    H166377   4.664   0.607  14.707 -0.2263 -2.3563 -0.0413
14962TIP3    H266378   4.684   0.511  14.822  0.4596 -0.0008  1.8768
14963TIP3   OH266379   3.778   5.799   2.412  0.4514  0.3351 -0.0741
14963TIP3    H166380   3.857   5.745   2.416  0.2818  0.0918  0.0013
14963TIP3    H266381   3.720   5.752   2.353  0.8077  1.1016 -1.0589
14964TIP3   OH266382   0.289   2.661  17.193 -0.6453  0.4435  0.4933
14964TIP3    H166383   0.366   2.611  17.166 -0.4544  2.0730 -2.2943
14964TIP3    H266384   0.318   2.709  17.271  0.2960 -0.8920  1.0096
14965TIP3   OH266385   0.468   0.057  12.711 -0.6984  0.3396 -0.3522
14965TIP3    H166386   0.560   0.030  12.703 -0.9487 -0.2308 -1.5762
14965TIP3    H266387   0.459   0.084  12.802  0.5852  0.0211 -0.1056
14966TIP3   OH266388   2.163   5.446   4.441 -0.2681  0.9970  0.2447
14966TIP3    H166389   2.116   5.364   4.456 -1.7428  1.9603  1.1426
14966TIP3    H266390   2.247   5.434   4.485 -0.8764  0.3291  1.2751
14967TIP3   OH266391   2.007   1.310  14.874  0.3144 -0.3954 -0.7469
14967TIP3    H166392   2.090   1.357  14.888  0.7927 -1.4375  0.1328
14967TIP3    H266393   1.998   1.303  14.779  1.2153 -0.2119 -0.8540
14968TIP3   OH266394   5.516   4.436   1.196 -0.4931 -0.5638  0.0902
14968TIP3    H166395   5.515   4.369   1.264  0.3134 -0.1475  0.5389
14968TIP3    H266396   5.425   4.446   1.170 -0.8075 -0.7748  1.0745
14969TIP3   OH266397   3.939   5.893  16.610 -0.2482 -0.2611 -0.2821
14969TIP3    H166398   4.032   5.916  16.616 -0.1925 -0.8514  1.3704
14969TIP3    H266399   3.938   5.802  16.581 -0.3624  0.0434 -1.2961
14970TIP3   OH266400   6.568   1.561   2.826  0.2871  0.1205  0.0325
14970TIP3    H166401   6.580   1.534   2.917 -0.4924 -0.2205  0.0375
14970TIP3    H266402   6.589   1.482   2.775  0.8179  0.3382 -0.0957
14971TIP3   OH266403   6.526   1.006   2.193  0.2323 -0.5906  0.2365
14971TIP3    H166404   6.597   1.017   2.129  1.7408 -1.3957  1.6848
14971TIP3    H266405   6.555   1.056   2.269 -1.3652  0.0723  0.4427
14972TIP3   OH266406   0.282   2.101  11.305  0.3693  0.1921 -0.2418
14972TIP3    H166407   0.215   2.044  11.267  0.5003 -0.4782  0.5140
14972TIP3    H266408   0.359   2.089  11.250  0.6174 -0.9191  0.3360
14973TIP3   OH266409   4.978   4.124  13.750  0.1191  0.0685 -0.1071
14973TIP3    H166410   5.014   4.195  13.696 -1.1161  1.1864  0.4850
14973TIP3    H266411   4.963   4.164  13.836  0.4500 -1.2268  0.5805
14974TIP3   OH266412   3.806   6.457   5.064 -0.1243  0.3885 -0.7822
14974TIP3    H166413   3.818   6.549   5.042 -1.6728  0.5795 -0.9799
14974TIP3    H266414   3.842   6.448   5.152  0.6496  1.0243 -1.0282
14975TIP3   OH266415   4.125   3.350  16.626  0.5641  0.3318  0.2233
14975TIP3    H166416   4.196   3.373  16.565  1.0257  0.9572  0.9788
14975TIP3    H266417   4.167   3.293  16.691  0.0322 -0.4853 -0.1374
14976TIP3   OH266418   0.342   3.074  14.385 -0.0541 -0.1917  0.2366
14976TIP3    H166419   0.356   3.144  14.322  1.1433 -0.3741  0.2828
14976TIP3    H266420   0.259   3.034  14.358 -0.3897  0.7847 -0.2128
14977TIP3   OH266421   3.468   1.075  14.984 -0.6452 -0.2145  0.1156
14977TIP3    H166422   3.523   1.001  14.961  0.9366  0.1661  2.3846
14977TIP3    H266423   3.421   1.047  15.063  0.9976  1.5429  1.8344
14978TIP3   OH266424   2.051   1.041  11.428  0.6855 -0.3716  0.1962
14978TIP3    H166425   2.020   1.123  11.390 -0.5257 -1.5582 -1.5307
14978TIP3    H266426   2.119   1.010  11.368 -1.5536 -2.4885 -1.4830
14979TIP3   OH266427   0.319   0.654  17.186 -0.0448  0.1587 -0.5250
14979TIP3    H166428   0.413   0.665  17.202  0.0203 -1.5806  0.5592
14979TIP3    H266429   0.279   0.732  17.225  0.9245  0.9928 -1.1256
14980TIP3   OH266430   5.206   5.363   4.866  0.0936 -0.5200 -0.3290
14980TIP3    H166431   5.131   5.353   4.924 -0.9646 -0.0187 -1.5396
14980TIP3    H266432   5.220   5.276   4.829 -0.1789 -0.5235 -0.4271
14981TIP3   OH266433   1.895   0.160   4.603  0.0849  0.1545  0.7327
14981TIP3    H166434   1.943   0.093   4.554 -0.0202 -0.6416  1.6872
14981TIP3    H266435   1.942   0.242   4.585 -0.1199 -0.0686 -0.8882
14982TIP3   OH266436   4.914   0.587   0.381  0.1226 -0.0674 -0.6120
14982TIP3    H166437   4.831   0.632   0.397  0.8894  1.2026 -0.0480
14982TIP3    H266438   4.889   0.501   0.348 -1.4020  0.5820 -1.2250
14983TIP3   OH266439   6.384   2.824  17.145  0.0089 -0.1889 -0.6090
14983TIP3    H166440   6.437   2.891  17.101 -0.1728  0.4736  0.1627
14983TIP3    H266441   6.448   2.759  17.176  0.2962  0.2059 -0.3685
14984TIP3   OH266442   3.739   4.821   3.138 -0.0014 -0.0892 -0.3371
14984TIP3    H166443   3.714   4.807   3.230  1.8062  2.2588  0.5857
14984TIP3    H266444   3.663   4.864   3.099 -0.7092 -0.9306  0.0564
14985TIP3   OH266445   6.180   6.805   5.716 -0.1351  0.2719  0.1316
14985TIP3    H166446   6.243   6.760   5.659 -1.0737 -0.7645 -0.1272
14985TIP3    H266447   6.126   6.735   5.752 -0.1192  0.9915  1.6445
14986TIP3   OH266448   0.527   4.930  17.056  0.2136  0.1135  0.5713
14986TIP3    H166449   0.438   4.897  17.063 -0.2583  1.1136 -0.4623
14986TIP3    H266450   0.582   4.854  17.074 -0.8372 -0.4999  1.2918
14987TIP3   OH266451   0.150   0.850   5.051 -1.0631 -0.2679  0.2562
14987TIP3    H166452   0.174   0.780   5.112 -1.4323 -1.2711 -0.7126
14987TIP3    H266453   0.067   0.821   5.013  0.3164 -0.8792 -2.4947
14988TIP3   OH266454   4.903   3.167   3.763  0.0323  0.0285 -0.5937
14988TIP3    H166455   4.916   3.232   3.832 -2.3803  0.4893 -0.4932
14988TIP3    H266456   4.982   3.174   3.709  1.9044 -0.1755  1.9143
14989TIP3   OH266457   4.334   6.656   5.123  0.0507  0.3369  0.1207
14989TIP3    H166458   4.408   6.638   5.182  0.3154  0.7760 -0.0724
14989TIP3    H266459   4.363   6.623   5.038 -0.1636  0.0921  0.1386
14990TIP3   OH266460   6.772   2.710   3.778 -0.1837 -1.1131  0.0401
14990TIP3    H166461   6.768   2.782   3.715  0.1680 -0.3847  0.8284
14990TIP3    H266462   6.693   2.658   3.761 -1.2906  0.3563  0.4939
14991TIP3   OH266463   0.783   2.957   6.252  0.3180 -0.9137  0.0740
14991TIP3    H166464   0.797   3.024   6.186 -2.4290 -0.9864 -0.6676
14991TIP3    H266465   0.830   2.880   6.219  2.4792  0.1922  0.3550
14992TIP3   OH266466   0.164   3.728  11.654  0.0238  0.2070 -0.0801
14992TIP3    H166467   0.193   3.818  11.667  0.0482  0.1769  0.0701
14992TIP3    H266468   0.229   3.691  11.594 -0.2736  0.4418 -0.5516
14993TIP3   OH266469   5.597   0.086  11.097  0.4140  0.3350  0.0422
14993TIP3    H166470   5.619   0.060  11.008  3.8252  1.5520  0.3707
14993TIP3    H266471   5.606   0.181  11.097 -0.0820  0.4062  1.5414
14994TIP3   OH266472   2.210   4.071   6.218  0.3498 -0.1523 -0.0041
14994TIP3    H166473   2.238   3.985   6.250 -0.2491 -0.3917 -0.1127
14994TIP3    H266474   2.246   4.133   6.282 -0.8338 -0.6281  1.1690
14995TIP3   OH266475   1.107   3.306  14.428  0.4497 -0.1242  0.2325
14995TIP3    H166476   1.089   3.400  14.435 -0.5081 -0.3125  0.4352
14995TIP3    H266477   1.178   3.290  14.490 -0.1667  0.2665  1.0412
14996TIP3   OH266478   2.877   3.875   5.146 -0.1306 -0.8302  0.1297
14996TIP3    H166479   2.878   3.956   5.198 -0.3173 -0.2142 -0.8001
14996TIP3    H266480   2.807   3.823   5.184 -0.4709 -0.2596  0.2946
14997TIP3   OH266481   3.539   6.763  13.583 -0.3374  0.1741 -0.9980
14997TIP3    H166482   3.568   6.846  13.622  0.6536 -0.9027  0.7296
14997TIP3    H266483   3.445   6.775  13.568 -1.0342  0.5160  2.5597
14998TIP3   OH266484   1.412   4.519   3.766  0.6552 -0.0053  0.2318
14998TIP3    H166485   1.445   4.438   3.725  1.0789 -0.0870  0.7183
14998TIP3    H266486   1.431   4.587   3.702 -3.8775 -0.7830 -2.3736
14999TIP3   OH266487   5.273   0.150   4.451  0.9223 -0.2558  0.4450
14999TIP3    H166488   5.350   0.108   4.414  0.3396 -0.3909 -0.6538
14999TIP3    H266489   5.237   0.086   4.512 -1.8024 -2.9718 -3.4843
15000TIP3   OH266490   5.983   6.340   3.633 -0.1297 -0.6118 -0.2996
15000TIP3    H166491   5.910   6.364   3.575  0.3189 -1.3362 -1.1988
15000TIP3    H266492   5.973   6.396   3.710 -0.6955  0.4495 -1.1219
15001TIP3   OH266493   5.528   4.659   1.514 -0.5536  0.4700  0.3214
15001TIP3    H166494   5.614   4.670   1.554 -1.3751  3.0890  1.6195
15001TIP3    H266495   5.520   4.733   1.454 -1.7944  0.1143  0.0235
15002TIP3   OH266496   2.520   3.048   1.015 -0.5195 -0.7382  0.5387
15002TIP3    H166497   2.554   3.125   1.060 -1.4707  0.6656 -1.0009
15002TIP3    H266498   2.586   2.980   1.030  0.7509  0.5906  1.2744
15003TIP3   OH266499   5.630   2.248   3.501  0.2961  0.1324 -0.5371
15003TIP3    H166500   5.567   2.260   3.430 -0.9335  0.4854  0.5664
15003TIP3    H266501   5.708   2.295   3.472 -0.6157  1.3463 -1.1189
15004TIP3   OH266502   2.370   2.948  12.226 -0.4555 -0.3247  0.1650
15004TIP3    H166503   2.345   2.964  12.317 -3.2321 -0.0563 -0.5435
15004TIP3    H266504   2.450   2.896  12.231 -0.0124  0.4680  2.7221
15005TIP3   OH266505   3.755   0.466   1.933  0.3308 -0.2443 -0.0056
15005TIP3    H166506   3.746   0.378   1.897 -1.3963 -0.0274 -0.1703
15005TIP3    H266507   3.708   0.463   2.016 -0.0578  0.6018 -0.1844
15006TIP3   OH266508   2.100   0.767  14.788 -0.4419  0.4589  0.9029
15006TIP3    H166509   2.025   0.709  14.801 -0.6572  0.4880 -0.1618
15006TIP3    H266510   2.138   0.777  14.876 -1.1437 -0.2784  1.3009
15007TIP3   OH266511   5.367   0.514   3.497  0.2053 -0.0294  0.5574
15007TIP3    H166512   5.409   0.584   3.547  1.1458 -0.7971  0.8558
15007TIP3    H266513   5.407   0.519   3.410 -0.0547  0.0870  0.4431
15008TIP3   OH266514   4.938   4.875   6.707  0.4727 -0.7790  0.4672
15008TIP3    H166515   4.990   4.799   6.733  0.7712 -0.6197  0.3374
15008TIP3    H266516   4.996   4.927   6.653 -0.3967 -1.5073 -1.2653
15009TIP3   OH266517   0.231   4.751   1.950  0.2145  0.0738 -0.5385
15009TIP3    H166518   0.287   4.804   2.007 -0.6471  1.2052 -0.7037
15009TIP3    H266519   0.242   4.661   1.982  0.0156  0.6214  1.2213
15010TIP3   OH266520   5.411   0.603   5.853 -0.4656  0.1596 -0.1866
15010TIP3    H166521   5.318   0.586   5.868 -0.4734 -2.5435 -2.4482
15010TIP3    H266522   5.453   0.582   5.935 -1.7670  0.9966  0.7460
15011TIP3   OH266523   4.481   1.632  14.046 -0.3253  0.0829 -0.1198
15011TIP3    H166524   4.543   1.619  13.974  0.1515  2.5792 -0.2416
15011TIP3    H266525   4.461   1.726  14.045 -2.0801 -0.1913  1.5916
15012TIP3   OH266526   4.803   6.289   1.297 -0.0957  0.2725 -0.0624
15012TIP3    H166527   4.893   6.288   1.265  0.3775  1.5494  1.1351
15012TIP3    H266528   4.750   6.264   1.222  1.2881 -1.1214 -0.6335
15013TIP3   OH266529   2.572   0.335  12.620 -0.4790 -0.5573  0.6644
15013TIP3    H166530   2.612   0.369  12.540 -1.4941  0.1338  0.4373
15013TIP3    H266531   2.587   0.240  12.616  0.1623 -0.4383  0.0549
15014TIP3   OH266532   3.544   2.327   2.237  0.2919  0.0971 -0.4597
15014TIP3    H166533   3.560   2.299   2.328  0.6729  1.8423  0.0350
15014TIP3    H266534   3.487   2.403   2.245  0.5940  0.4699 -1.6735
15015TIP3   OH266535   2.700   4.083  13.112 -0.2324 -0.4385  0.4758
15015TIP3    H166536   2.725   4.118  13.027 -1.1775 -0.3864  0.2093
15015TIP3    H266537   2.708   3.988  13.103 -1.1836 -0.4859  0.0376
15016TIP3   OH266538   3.539   1.255   3.255  0.3536 -0.1399  0.3347
15016TIP3    H166539   3.519   1.175   3.205  2.5259 -0.9072  0.5928
15016TIP3    H266540   3.624   1.284   3.221  0.7243  0.7028  1.8949
15017TIP3   OH266541   2.353   2.131   0.731 -0.7009 -0.5856 -0.2843
15017TIP3    H166542   2.404   2.126   0.651 -0.9010 -0.4143 -0.4236
15017TIP3    H266543   2.270   2.087   0.710 -0.1308 -2.0144  0.3264
15018TIP3   OH266544   6.578   6.641  14.583  0.3536  0.4002 -0.2835
15018TIP3    H166545   6.519   6.610  14.515  0.1330  1.0028 -0.3768
15018TIP3    H266546   6.574   6.737  14.576 -0.1925  0.4924  1.0252
15019TIP3   OH266547   2.860   2.876   5.097  0.6751  0.2273 -0.6858
15019TIP3    H166548   2.828   2.833   5.177  0.8298 -0.3434 -0.9295
15019TIP3    H266549   2.842   2.813   5.028  1.6802  0.2044 -0.9312
15020TIP3   OH266550   0.940   3.950   1.471 -0.3834 -0.1022  0.2603
15020TIP3    H166551   0.974   3.890   1.405 -1.7049  0.2690 -0.8159
15020TIP3    H266552   0.929   3.896   1.550  0.1821 -0.8145 -0.1394
15021TIP3   OH266553   3.784   5.217   2.738  0.1522  0.0654  0.2701
15021TIP3    H166554   3.791   5.255   2.826  0.5597  0.0081  0.2636
15021TIP3    H266555   3.733   5.137   2.751  0.1565  0.0899  0.4445
15022TIP3   OH266556   2.118   2.879   2.383  0.4414 -0.2442 -0.0438
15022TIP3    H166557   2.062   2.804   2.366 -2.7754  2.0585 -0.6194
15022TIP3    H266558   2.130   2.921   2.298  0.2216  1.0812  0.5404
15023TIP3   OH266559   4.329   1.805   1.839  0.7246  0.1892 -0.1019
15023TIP3    H166560   4.334   1.885   1.891  0.7190  0.8365 -1.0673
15023TIP3    H266561   4.365   1.830   1.754  1.8375 -1.1589 -0.0568
15024TIP3   OH266562   5.803   6.617  14.416  0.1905  0.5235  0.0981
15024TIP3    H166563   5.719   6.589  14.451  1.2405 -0.5777  1.9347
15024TIP3    H266564   5.808   6.710  14.437 -0.2401  0.4062  0.7480
15025TIP3   OH266565   5.655   2.226   4.021 -0.2231 -0.6437 -0.7363
15025TIP3    H166566   5.732   2.185   4.060  0.9405  2.3132  0.3781
15025TIP3    H266567   5.673   2.228   3.928  1.0378 -0.1098 -0.5022
15026TIP3   OH266568   0.868   4.057  15.083 -0.1692  0.8019 -0.2143
15026TIP3    H166569   0.826   4.024  15.004 -0.3458 -0.5334  0.4202
15026TIP3    H266570   0.809   4.126  15.115 -0.7078  0.5106 -0.5814
15027TIP3   OH266571   5.674   2.381  16.755 -0.4500  0.1068 -0.5801
15027TIP3    H166572   5.624   2.313  16.801 -0.8190  1.4073  1.0613
15027TIP3    H266573   5.607   2.437  16.715 -0.3066  1.0482  0.4345
15028TIP3   OH266574   6.466   4.204  14.880  0.3226 -0.3346 -0.1193
15028TIP3    H166575   6.438   4.179  14.792 -2.9616  0.6478  0.4901
15028TIP3    H266576   6.443   4.128  14.934  0.2913 -0.1107  0.1863
15029TIP3   OH266577   2.771   6.099  14.228 -0.2349 -0.2420  0.0248
15029TIP3    H166578   2.816   6.152  14.294 -0.4274 -1.3791  1.1143
15029TIP3    H266579   2.684   6.139  14.220 -0.2760 -0.1989  0.6154
15030TIP3   OH266580   6.245   5.582   0.252  0.2793  0.2582 -0.2755
15030TIP3    H166581   6.259   5.509   0.192  0.3188  1.2206 -1.4880
15030TIP3    H266582   6.155   5.610   0.234 -0.0538 -0.0390  0.8294
15031TIP3   OH266583   4.687   4.450   0.989  0.0305  0.2835 -0.2390
15031TIP3    H166584   4.728   4.449   1.075  0.3222  1.7309 -0.3384
15031TIP3    H266585   4.638   4.532   0.985 -2.5028 -1.1266 -0.3465
15032TIP3   OH266586   0.654   0.080  16.388 -0.0097  0.1973 -0.1979
15032TIP3    H166587   0.709   0.016  16.434  1.4430  1.7437  0.2894
15032TIP3    H266588   0.704   0.104  16.311 -0.7207  0.4796 -0.5861
15033TIP3   OH266589   5.824   0.108   2.677  0.3504  0.1913 -0.1412
15033TIP3    H166590   5.736   0.091   2.642  0.5936 -1.6481  0.0873
15033TIP3    H266591   5.872   0.027   2.662  1.4218  0.4795  1.5312
15034TIP3   OH266592   5.014   5.980  15.613  0.1213 -0.2489  0.2507
15034TIP3    H166593   5.081   5.966  15.546 -0.7416 -2.6791 -0.2128
15034TIP3    H266594   5.005   6.075  15.618  2.6365  0.1188 -0.6055
15035TIP3   OH266595   2.537   3.859  13.625  0.0457 -0.6598  0.4442
15035TIP3    H166596   2.446   3.880  13.604  0.4911  0.5050 -0.3988
15035TIP3    H266597   2.579   3.845  13.540  1.2869  1.6139  0.5919
15036TIP3   OH266598   2.346   2.638   2.324  0.0147 -0.2473  0.2688
15036TIP3    H166599   2.373   2.552   2.358 -0.4110 -0.6791 -0.4495
15036TIP3    H266600   2.326   2.690   2.402  1.9781 -0.2146  0.7990
15037TIP3   OH266601   6.577   6.356  11.910 -1.1423  0.7227 -0.0506
15037TIP3    H166602   6.645   6.395  11.856  0.3000 -1.7509 -0.1481
15037TIP3    H266603   6.591   6.394  11.997 -0.2154  0.9596 -0.2927
15038TIP3   OH266604   4.283   1.516   3.400  0.4262  0.4027 -0.1390
15038TIP3    H166605   4.324   1.565   3.471 -0.5916 -0.9524  1.4483
15038TIP3    H266606   4.213   1.573   3.368  0.5261  0.7889  0.3258
15039TIP3   OH266607   1.072   0.851   0.633 -0.5517 -0.0282 -0.8509
15039TIP3    H166608   1.104   0.789   0.698 -1.5447 -0.5500 -0.8449
15039TIP3    H266609   0.984   0.873   0.663 -0.8008  0.1650 -1.7153
15040TIP3   OH266610   2.133   3.492   2.391 -0.0283 -0.3669 -0.7024
15040TIP3    H166611   2.052   3.511   2.440 -0.6174 -0.4416 -1.6145
15040TIP3    H266612   2.196   3.557   2.423 -0.5157 -0.1552 -0.1458
15041TIP3   OH266613   4.264   2.647   2.621 -0.3151  0.1127 -0.0879
15041TIP3    H166614   4.344   2.650   2.673  0.5834 -0.6880 -1.3520
15041TIP3    H266615   4.290   2.683   2.536 -1.5701  0.8072 -0.1871
15042TIP3   OH266616   2.910   2.196   1.765  0.1177  0.5300 -0.2545
15042TIP3    H166617   2.891   2.290   1.776 -0.0923  0.5425 -0.6830
15042TIP3    H266618   2.947   2.190   1.677  0.3428  0.2410 -0.1375
15043TIP3   OH266619   3.360   5.859   1.396  0.1767 -0.2993  0.3042
15043TIP3    H166620   3.413   5.798   1.345 -0.4832 -0.3900 -0.2875
15043TIP3    H266621   3.342   5.812   1.478 -2.0493 -1.7849 -0.9428
15044TIP3   OH266622   2.475   3.120  13.277 -0.0440  0.2689 -0.3792
15044TIP3    H166623   2.429   3.043  13.245 -0.0310  0.5167 -1.0001
15044TIP3    H266624   2.510   3.093  13.362 -0.7821 -0.1243 -0.1910
15045TIP3   OH266625   0.538   3.365   1.930 -0.3640  0.3972 -0.2355
15045TIP3    H166626   0.524   3.435   1.993 -0.5892 -0.1109  0.2882
15045TIP3    H266627   0.632   3.368   1.911 -0.1808  0.1757  0.5889
15046TIP3   OH266628   3.860   2.206   0.746 -0.0224 -0.3323  0.0761
15046TIP3    H166629   3.910   2.286   0.762 -0.1357 -0.0614 -0.8392
15046TIP3    H266630   3.771   2.236   0.729 -0.1044 -0.6630 -0.0815
15047TIP3   OH266631   2.484   4.455  16.832  0.1248  0.3046  0.4850
15047TIP3    H166632   2.566   4.488  16.795  1.3078 -1.1496  1.7114
15047TIP3    H266633   2.467   4.512  16.907 -0.2403  0.8807 -0.0286
15048TIP3   OH266634   2.725   4.465   0.037 -0.1489 -0.5289  0.0570
15048TIP3    H166635   2.784   4.393   0.012 -0.4028 -0.2524 -1.4734
15048TIP3    H266636   2.780   4.543   0.031 -0.3871 -0.3858 -0.3248
15049TIP3   OH266637   2.959   5.828   5.327  0.2625  0.0915  0.4705
15049TIP3    H166638   2.991   5.917   5.340 -1.1767  0.6044  0.6827
15049TIP3    H266639   3.011   5.774   5.387  1.3675  0.7141  0.1078
15050TIP3   OH266640   6.610   6.748  15.508 -0.5057  0.3661 -0.1289
15050TIP3    H166641   6.678   6.727  15.444  0.0012  1.0599  0.1717
15050TIP3    H266642   6.550   6.674  15.503 -0.3493  0.2836 -1.2304
15051TIP3   OH266643   1.636   0.205  10.829  0.1750  0.0085  0.4374
15051TIP3    H166644   1.605   0.122  10.791  0.6018  1.3825 -3.3256
15051TIP3    H266645   1.671   0.180  10.915 -3.4512 -2.9688  1.3269
15052TIP3   OH266646   6.644   5.572  15.326 -0.2804 -0.4851  0.3396
15052TIP3    H166647   6.549   5.567  15.340 -0.2474  0.7285  1.0901
15052TIP3    H266648   6.682   5.544  15.409 -0.0632  3.1822  1.6520
15053TIP3   OH266649   2.003   6.403   5.919  0.9272 -0.4591  0.3802
15053TIP3    H166650   1.994   6.374   5.828 -0.0468 -1.4129  0.7688
15053TIP3    H266651   1.956   6.337   5.970  3.0103 -0.9886  1.7672
15054TIP3   OH266652   4.066   3.742   4.021 -0.3235 -0.5226 -0.0770
15054TIP3    H166653   4.053   3.832   3.992 -1.9396 -0.1299  1.6067
15054TIP3    H266654   4.097   3.695   3.944  0.9060  1.5248 -0.9091
15055TIP3   OH266655   4.026   6.717   3.397 -0.1877 -0.2831  0.2429
15055TIP3    H166656   3.953   6.683   3.450  1.6871 -1.1653  2.4342
15055TIP3    H266657   4.076   6.771   3.458  1.3303 -0.1770 -1.0436
15056TIP3   OH266658   4.225   1.932  10.695 -0.2045 -0.2389  0.1778
15056TIP3    H166659   4.180   1.897  10.618  2.5924 -1.1970 -1.1248
15056TIP3    H266660   4.266   1.855  10.735  1.6541  0.7955  0.3306
15057TIP3   OH266661   4.577   1.074  14.857  0.3979 -0.2170  0.3830
15057TIP3    H166662   4.496   1.041  14.819  0.6505 -1.5074  0.8981
15057TIP3    H266663   4.549   1.122  14.936  0.1149 -0.3983  0.3937
15058TIP3   OH266664   1.202   3.587  12.720  0.4156 -0.0199 -0.0057
15058TIP3    H166665   1.220   3.513  12.661 -1.6596 -0.9450  0.4180
15058TIP3    H266666   1.235   3.663  12.673  0.3228 -0.9331 -1.6373
15059TIP3   OH266667   0.682   5.593  16.352 -0.0046 -0.3912  0.3413
15059TIP3    H166668   0.613   5.631  16.298  1.0836  2.4857  0.7953
15059TIP3    H266669   0.763   5.621  16.311  0.8536 -0.6440  1.8055
15060TIP3   OH266670   0.572   1.698  17.227  0.2642 -0.4093  0.4278
15060TIP3    H166671   0.479   1.711  17.244  0.2040 -0.0910 -0.1250
15060TIP3    H266672   0.616   1.760  17.284  0.1651 -0.9220  1.0762
15061TIP3   OH266673   2.334   5.683   4.973  0.2579 -0.2193  0.0832
15061TIP3    H166674   2.350   5.599   4.928 -0.3267 -0.4401  0.2776
15061TIP3    H266675   2.419   5.728   4.969  0.7361 -1.0507  0.4644
15062TIP3   OH266676   5.435   4.566  12.181  0.3724  0.4547  0.0281
15062TIP3    H166677   5.510   4.561  12.240  0.0829  0.4363  0.3988
15062TIP3    H266678   5.363   4.596  12.236 -0.7322 -2.6351  0.4656
15063TIP3   OH266679   3.482   3.374  14.785  0.1275 -0.1610 -0.2631
15063TIP3    H166680   3.400   3.421  14.770  0.7984  0.8074 -1.0497
15063TIP3    H266681   3.487   3.365  14.880 -0.2162  1.0307 -0.1178
15064TIP3   OH266682   1.975   3.800  12.118  0.2977  0.3398  0.0156
15064TIP3    H166683   1.959   3.757  12.034  0.6631 -0.6792  0.4509
15064TIP3    H266684   2.070   3.805  12.125  0.2743  0.2549  0.4472
15065TIP3   OH266685   3.432   5.036  15.008 -0.0669 -0.6778 -0.1633
15065TIP3    H166686   3.407   5.082  14.928 -0.0994 -1.2387 -0.4813
15065TIP3    H266687   3.412   5.097  15.079  1.5191  0.5044 -0.6671
15066TIP3   OH266688   4.503   2.062   3.024  1.0516  0.1316 -0.0425
15066TIP3    H166689   4.508   2.102   3.110 -0.0546  1.2860 -0.4791
15066TIP3    H266690   4.593   2.058   2.993  1.2329  2.1482  0.1052
15067TIP3   OH266691   2.736   2.841   0.414 -0.3671  0.3588  0.0385
15067TIP3    H166692   2.826   2.857   0.388 -0.2550  0.5000  0.4941
15067TIP3    H266693   2.695   2.800   0.338 -0.1032  0.9347 -0.4191
15068TIP3   OH266694   0.084   6.692   5.988  0.1240 -0.5266 -0.1998
15068TIP3    H166695  -0.010   6.684   5.974  0.1376  0.5698 -1.0343
15068TIP3    H266696   0.116   6.602   5.987 -0.8613 -0.8837 -0.3009
15069TIP3   OH266697   1.417   4.367  13.697  0.4593  0.8123  0.1774
15069TIP3    H166698   1.406   4.342  13.605  1.5623 -0.1234  0.2819
15069TIP3    H266699   1.427   4.284  13.743  1.7679  1.3485  0.8822
15070TIP3   OH266700   2.166   4.884  16.549 -0.0251  0.1526 -0.2318
15070TIP3    H166701   2.211   4.930  16.477 -0.4655 -0.2906 -0.7970
15070TIP3    H266702   2.134   4.804  16.509  1.1658 -0.9132  0.8633
15071TIP3   OH266703   1.282   5.143   1.504 -0.1454 -0.0059 -0.3110
15071TIP3    H166704   1.350   5.195   1.547 -0.2261 -0.4995  0.4343
15071TIP3    H266705   1.330   5.086   1.443 -0.1288  1.5672 -1.8393
15072TIP3   OH266706   3.751   0.434   2.207  0.2377 -0.2753  0.5509
15072TIP3    H166707   3.788   0.359   2.254  1.4221  0.0229  0.1305
15072TIP3    H266708   3.826   0.490   2.189 -0.4944  0.5522  0.0068
15073TIP3   OH266709   0.365   5.972   6.782 -0.1086 -0.7458  0.1631
15073TIP3    H166710   0.378   5.966   6.687  0.1544  0.2288  0.1276
15073TIP3    H266711   0.451   5.953   6.818 -0.1675 -0.9431  0.1997
15074TIP3   OH266712   3.323   1.167   2.433 -0.3349 -0.1081 -0.1672
15074TIP3    H166713   3.239   1.136   2.467  0.1946 -0.4351  0.8877
15074TIP3    H266714   3.357   1.094   2.382 -2.1342  1.1123 -3.4445
15075TIP3   OH266715   4.107   2.440  14.844 -0.0497  0.0665 -0.1431
15075TIP3    H166716   4.083   2.349  14.824  0.3988  0.1993 -1.4030
15075TIP3    H266717   4.170   2.434  14.915  0.6969 -0.6824 -0.8562
15076TIP3   OH266718   2.534   2.738   3.473  0.3151 -0.1880 -0.4970
15076TIP3    H166719   2.542   2.679   3.398 -0.5835 -0.1499 -0.6302
15076TIP3    H266720   2.618   2.784   3.476  0.6594 -0.7677 -0.9861
15077TIP3   OH266721   5.245   5.745   3.438  0.1049  0.8366  0.0044
15077TIP3    H166722   5.168   5.728   3.493 -0.0752  3.1166  0.5870
15077TIP3    H266723   5.212   5.742   3.348 -0.0385 -0.9160  0.0888
15078TIP3   OH266724   5.889   3.893   0.703  0.8284  0.0337  0.0313
15078TIP3    H166725   5.984   3.885   0.704  0.8058 -0.9839  2.9169
15078TIP3    H266726   5.864   3.892   0.795 -1.9237  1.4373 -0.6052
15079TIP3   OH266727   1.835   1.557  16.442  0.4450 -0.3703 -0.1779
15079TIP3    H166728   1.845   1.493  16.372  0.9055 -0.3934 -0.0977
15079TIP3    H266729   1.911   1.541  16.499  1.8816  1.7675 -1.3621
15080TIP3   OH266730   6.035   2.305  16.112  0.1705 -0.7698 -0.0688
15080TIP3    H166731   5.954   2.355  16.099 -0.0759 -0.1421  3.1812
15080TIP3    H266732   6.080   2.311  16.027 -2.5599 -0.0567 -1.5817
15081TIP3   OH266733   0.610   3.454  17.271 -0.5047  0.0344 -0.5954
15081TIP3    H166734   0.615   3.546  17.297 -2.2718  0.1013 -0.3691
15081TIP3    H266735   0.701   3.423  17.272  0.1987  1.9534 -1.3642
15082TIP3   OH266736   5.106   1.706   6.447 -0.0113 -0.1870 -0.0167
15082TIP3    H166737   5.150   1.777   6.399 -0.6030 -0.5821 -1.1768
15082TIP3    H266738   5.160   1.628   6.428 -1.6492 -0.8819 -2.2628
15083TIP3   OH266739   1.930   3.351  12.446 -0.1456 -0.2507 -0.3662
15083TIP3    H166740   1.874   3.424  12.422 -3.1316 -1.6439  1.7003
15083TIP3    H266741   1.957   3.370  12.536 -0.2855 -1.3004 -0.0920
15084TIP3   OH266742   1.437   3.481   1.191 -0.0186  0.5277 -0.4329
15084TIP3    H166743   1.403   3.448   1.108 -2.0569  3.2642 -0.8072
15084TIP3    H266744   1.385   3.559   1.209  1.0054  0.5781  2.9667
15085TIP3   OH266745   0.900   5.790  15.496 -0.3845  0.3246  0.3147
15085TIP3    H166746   0.810   5.816  15.516 -1.2417 -0.2282 -2.3995
15085TIP3    H266747   0.901   5.776  15.402  2.5598  0.2145  0.2560
15086TIP3   OH266748   5.878   2.320  16.608  0.2975  0.1863  0.7030
15086TIP3    H166749   5.945   2.328  16.676  0.2680 -0.0421  0.7581
15086TIP3    H266750   5.796   2.344  16.652 -0.0275 -1.7905  1.2674
15087TIP3   OH266751   4.988   0.131   0.397 -0.2355  0.3360 -0.0281
15087TIP3    H166752   4.983   0.040   0.428  1.7291  0.7303  1.6205
15087TIP3    H266753   4.933   0.180   0.458 -2.3309  0.1802 -1.6533
15088TIP3   OH266754   5.914   3.713   4.190 -0.4799  0.0528  0.0046
15088TIP3    H166755   5.970   3.790   4.179 -0.9641  0.5686  0.9408
15088TIP3    H266756   5.922   3.665   4.108  0.7203  0.5142 -0.1687
15089TIP3   OH266757   1.042   6.727  12.670  0.8690 -0.0392 -0.5734
15089TIP3    H166758   1.133   6.710  12.694  0.1124 -2.1528  1.2137
15089TIP3    H266759   1.020   6.658  12.608  0.7163  1.0378 -1.7594
15090TIP3   OH266760   0.205   0.536   4.255  0.0097  0.6772 -0.2480
15090TIP3    H166761   0.210   0.454   4.206 -0.8850  0.1818  0.4501
15090TIP3    H266762   0.167   0.598   4.193  1.8294  0.9325 -1.1835
15091TIP3   OH266763   0.273   5.454  16.463 -0.2774  0.4068 -0.2860
15091TIP3    H166764   0.237   5.426  16.547 -1.7774 -0.2633 -1.1148
15091TIP3    H266765   0.217   5.413  16.397  0.4454  1.4514 -1.6196
15092TIP3   OH266766   2.242   6.060  14.850  0.0203 -0.0463 -0.7910
15092TIP3    H166767   2.256   6.081  14.757 -2.2873  3.1771 -0.6076
15092TIP3    H266768   2.251   6.144  14.895 -0.6083 -1.2184  1.6748
15093TIP3   OH266769   1.305   3.411  15.504 -0.3837  0.2080  0.8087
15093TIP3    H166770   1.217   3.442  15.480  0.3555  3.3702  1.6944
15093TIP3    H266771   1.289   3.348  15.575 -1.9199  1.6962  1.8687
15094TIP3   OH266772   6.606   2.991  11.901  0.4604  0.0624  0.1218
15094TIP3    H166773   6.545   2.929  11.940  0.1327  0.8680  0.9153
15094TIP3    H266774   6.689   2.976  11.945  0.7293 -0.6965 -0.6136
15095TIP3   OH266775   5.111   3.362  12.117 -0.1837 -0.5025 -0.0312
15095TIP3    H166776   5.101   3.386  12.025  1.2739 -0.1130 -0.1037
15095TIP3    H266777   5.073   3.274  12.123 -0.4448 -0.4602 -0.9540
15096TIP3   OH266778   3.800   5.212   0.376  0.5280 -0.3769 -0.4290
15096TIP3    H166779   3.890   5.196   0.405  0.8204 -1.0292 -1.6539
15096TIP3    H266780   3.807   5.286   0.316 -0.1437  1.2790  1.3993
15097TIP3   OH266781   3.431   5.675  15.859 -0.6911  0.3608 -0.3367
15097TIP3    H166782   3.465   5.650  15.773  0.1739 -1.7032  0.5548
15097TIP3    H266783   3.372   5.604  15.883 -0.5071  0.6389  1.0087
15098TIP3   OH266784   2.605   6.388  15.474 -1.0074 -0.4189 -0.3295
15098TIP3    H166785   2.669   6.317  15.475  2.5203  2.3821 -1.9193
15098TIP3    H266786   2.603   6.420  15.564  0.8488  0.1161 -0.4223
15099TIP3   OH266787   3.126   1.926  15.139  0.5864 -0.1467 -0.0916
15099TIP3    H166788   3.036   1.893  15.134  0.7680 -0.8271  0.7364
15099TIP3    H266789   3.178   1.860  15.094  0.9712 -1.1254  1.6906
15100TIP3   OH266790   1.935   3.886   3.456  0.6378 -0.4894  0.2541
15100TIP3    H166791   1.851   3.843   3.471  0.7820 -0.4702  1.1788
15100TIP3    H266792   1.993   3.847   3.522  1.5044 -0.9180 -0.7309
15101TIP3   OH266793   2.567   2.491  11.830 -0.6703 -0.0538  0.3499
15101TIP3    H166794   2.528   2.443  11.902 -0.8454  0.1304  0.3797
15101TIP3    H266795   2.589   2.576  11.867 -1.3061  0.2550  0.0393
15102TIP3   OH266796   2.540   3.011  17.240  0.6477 -0.1203 -0.1789
15102TIP3    H166797   2.558   3.088  17.187  1.6433  0.4391  0.9299
15102TIP3    H266798   2.623   2.990  17.282 -0.0257 -0.7277  0.9138
15103TIP3   OH266799   0.590   0.334  14.686  0.4774 -0.1835  0.2419
15103TIP3    H166800   0.521   0.325  14.621  1.2369  0.8687 -0.7354
15103TIP3    H266801   0.561   0.404  14.743  1.1949  1.0167 -0.8164
15104TIP3   OH266802   6.284   4.635  16.308  0.5236  0.4680  1.1386
15104TIP3    H166803   6.284   4.542  16.333  0.9178  0.4080  0.9230
15104TIP3    H266804   6.364   4.646  16.258  0.1289  0.7664  0.5651
15105TIP3   OH266805   1.123   0.574  13.656 -0.4450 -0.0340 -0.4417
15105TIP3    H166806   1.159   0.485  13.660 -1.3217 -0.4291 -1.0043
15105TIP3    H266807   1.065   0.573  13.580  0.2543  1.3057 -1.0363
15106TIP3   OH266808   3.065   3.314  14.485  0.3785  0.8086 -0.2075
15106TIP3    H166809   3.012   3.274  14.416  1.5988 -1.9979  0.3546
15106TIP3    H266810   3.002   3.337  14.554 -0.6281  2.0569 -1.4729
15107TIP3   OH266811   6.302   4.616   1.759  0.5045  0.2547  0.0865
15107TIP3    H166812   6.252   4.548   1.713 -1.9481  2.6917 -1.0804
15107TIP3    H266813   6.250   4.636   1.837  2.4868 -0.8259  1.8148
15108TIP3   OH266814   5.250   1.667  11.677 -0.3489 -0.0353 -0.1269
15108TIP3    H166815   5.320   1.732  11.683 -0.0553 -0.4843  1.8485
15108TIP3    H266816   5.222   1.652  11.767 -3.4776  0.6041 -0.8486
15109TIP3   OH266817   1.122   0.545   2.853 -0.4301  0.3112 -0.7391
15109TIP3    H166818   1.151   0.540   2.762 -0.6910 -3.0367 -0.7440
15109TIP3    H266819   1.039   0.593   2.849 -0.0391  0.9057 -2.1353
15110TIP3   OH266820   2.463   3.985   3.909  0.3223  0.2123 -0.8123
15110TIP3    H166821   2.399   3.949   3.848 -0.9366 -1.0642  1.1519
15110TIP3    H266822   2.427   4.070   3.936 -0.5576 -0.4621  0.2176
15111TIP3   OH266823   2.120   1.490   5.489 -0.1500  0.3134 -0.6616
15111TIP3    H166824   2.209   1.474   5.460  0.6652 -0.7607  2.1272
15111TIP3    H266825   2.067   1.479   5.410  2.1301  0.9004 -2.3708
15112TIP3   OH266826   3.966   5.952  15.317  0.0659  0.1085 -0.1076
15112TIP3    H166827   3.874   5.972  15.332 -0.0408 -1.8171  2.2679
15112TIP3    H266828   3.966   5.883  15.251 -0.0271  1.2580 -1.3719
15113TIP3   OH266829   2.109   5.414   2.322 -0.4182 -0.2205 -0.6309
15113TIP3    H166830   2.110   5.467   2.401 -0.4726 -0.4114 -0.5019
15113TIP3    H266831   2.095   5.476   2.251  0.3457  0.0409 -0.5570
15114TIP3   OH266832   1.947   0.262  17.125 -0.0818 -0.0413  0.2014
15114TIP3    H166833   1.940   0.168  17.143 -1.6076 -0.0245 -0.1084
15114TIP3    H266834   2.026   0.289  17.171  0.2573 -1.4310  0.5021
15115TIP3   OH266835   4.653   4.617  16.641 -0.0022 -0.0800  0.4837
15115TIP3    H166836   4.663   4.525  16.616 -1.1666 -0.5709  1.7148
15115TIP3    H266837   4.684   4.666  16.564  0.6663 -1.4829 -0.1832
15116TIP3   OH266838   4.368   2.437   5.369 -0.4773 -0.2513  0.5399
15116TIP3    H166839   4.418   2.491   5.308  1.2357  1.7896  3.4881
15116TIP3    H266840   4.281   2.476   5.369 -0.8570 -0.9763 -1.2835
15117TIP3   OH266841   2.574   6.021  12.326 -0.1732 -0.2085  0.7857
15117TIP3    H166842   2.615   6.093  12.278 -1.4259  0.5657  0.8187
15117TIP3    H266843   2.626   5.944  12.304  0.6979  0.5586  0.0833
15118TIP3   OH266844   6.421   1.897   4.127 -0.1577  0.2722 -0.0912
15118TIP3    H166845   6.418   1.804   4.152 -0.4481  0.6793  1.4489
15118TIP3    H266846   6.514   1.918   4.126 -0.1366  0.2434  0.6855
15119TIP3   OH266847   4.180   1.382  14.585 -0.0035  0.0492  0.3820
15119TIP3    H166848   4.134   1.301  14.607  0.4837 -0.3061  0.0894
15119TIP3    H266849   4.121   1.427  14.524  0.0379 -0.4142 -0.0050
15120TIP3   OH266850   2.485   2.897  13.899  0.5361 -0.3578 -0.4162
15120TIP3    H166851   2.414   2.923  13.841 -1.1110 -2.4435  0.5289
15120TIP3    H266852   2.558   2.876  13.840  0.1884  1.1817 -1.4417
15121TIP3   OH266853   1.666   5.653  12.940  0.0889  0.8624  0.6908
15121TIP3    H166854   1.735   5.625  13.001  0.2873  0.2492  0.1938
15121TIP3    H266855   1.610   5.711  12.992 -0.9547 -1.2745  2.0673
15122TIP3   OH266856   1.322   1.584  16.738 -0.3593 -0.1945 -0.0785
15122TIP3    H166857   1.376   1.661  16.721 -0.3932 -0.1234  0.1345
15122TIP3    H266858   1.348   1.555  16.825 -0.8016 -0.0478  0.1016
15123TIP3   OH266859   5.147   4.200   2.210 -0.5422  0.2739 -0.0155
15123TIP3    H166860   5.089   4.176   2.138  1.0394 -2.4209 -0.5191
15123TIP3    H266861   5.116   4.150   2.285 -1.3805  2.0777  0.9229
15124TIP3   OH266862   2.608   6.453   2.244  0.3891 -0.2922 -0.0058
15124TIP3    H166863   2.544   6.521   2.224  0.2736 -0.5602 -0.5645
15124TIP3    H266864   2.603   6.444   2.340  2.7698  2.7699  0.5558
15125TIP3   OH266865   1.243   6.369   3.790 -0.4853 -0.2994  0.1130
15125TIP3    H166866   1.281   6.288   3.823  0.2263  0.0119  0.0634
15125TIP3    H266867   1.191   6.403   3.862  2.6760  1.4570  1.7420
15126TIP3   OH266868   0.011   4.737  14.745 -0.5554 -0.0609 -0.2273
15126TIP3    H166869  -0.049   4.712  14.815 -0.0573 -1.2499 -0.1956
15126TIP3    H266870  -0.039   4.799  14.691 -0.7243  1.3864  1.5046
15127TIP3   OH266871   6.717   3.808  16.204 -0.4256 -1.1316  0.4458
15127TIP3    H166872   6.743   3.885  16.255 -1.8066 -1.4415  1.6658
15127TIP3    H266873   6.785   3.800  16.136  0.4200  0.4040  1.0735
15128TIP3   OH266874   2.606   6.689   2.966 -0.4473 -0.3923  0.3777
15128TIP3    H166875   2.520   6.649   2.965  0.5089 -2.7396  2.0189
15128TIP3    H266876   2.615   6.727   3.054  0.7801 -1.7142  0.8630
15129TIP3   OH266877   0.669   2.088   0.032 -0.0034 -0.1844  0.6908
15129TIP3    H166878   0.740   2.077   0.096  0.5524  1.3911  0.3959
15129TIP3    H266879   0.591   2.104   0.086  0.0770 -0.8257  1.0041
15130TIP3   OH266880   0.420   5.801   0.520  0.0539 -0.2223  0.3429
15130TIP3    H166881   0.512   5.780   0.535  0.0809  0.1316  0.6786
15130TIP3    H266882   0.421   5.862   0.447  0.0343 -0.7133 -0.0789
15131TIP3   OH266883   0.410   6.414  15.149 -0.2451  0.2356 -0.0748
15131TIP3    H166884   0.404   6.443  15.058  0.7338 -1.1484 -0.6300
15131TIP3    H266885   0.483   6.464  15.186 -1.3660  1.6357  0.3269
15132TIP3   OH266886   0.791   0.875  12.785  0.4883 -0.4459  0.6948
15132TIP3    H166887   0.879   0.910  12.801  0.1742  1.5227 -1.3888
15132TIP3    H266888   0.805   0.806  12.720  0.5012 -0.0221  0.2398
15133TIP3   OH266889   1.078   5.586   1.554  0.6690 -0.4224  0.1684
15133TIP3    H166890   1.056   5.497   1.528 -1.1167  0.2552 -0.7983
15133TIP3    H266891   1.103   5.579   1.646  1.8183 -2.0832 -0.2382
15134TIP3   OH266892   2.174   3.629   2.946  0.5307 -0.2269  0.2797
15134TIP3    H166893   2.116   3.619   3.022  0.0484 -1.9908 -0.2748
15134TIP3    H266894   2.129   3.691   2.890 -0.2162 -0.6037  0.4445
15135TIP3   OH266895   5.974   5.882   5.227 -0.3729 -0.5232 -0.1551
15135TIP3    H166896   6.005   5.841   5.308 -0.3003  0.4000  0.2999
15135TIP3    H266897   6.050   5.881   5.169  0.5501  1.5353  0.8778
15136TIP3   OH266898   0.415   0.497  16.590 -0.0918  0.0415  0.5975
15136TIP3    H166899   0.472   0.446  16.532 -0.5031 -2.4878  2.2823
15136TIP3    H266900   0.369   0.432  16.642 -1.3799  2.1513  2.2567
15137TIP3   OH266901   1.761   5.389   3.251 -0.3043  0.6503 -0.9093
15137TIP3    H166902   1.732   5.415   3.164 -1.7260  1.6994 -0.1589
15137TIP3    H266903   1.810   5.464   3.284 -0.2177  0.4598 -0.5982
15138TIP3   OH266904   0.227   1.465   2.602 -0.1745 -0.3017 -0.0113
15138TIP3    H166905   0.148   1.519   2.611 -0.7508 -1.0099 -0.5727
15138TIP3    H266906   0.198   1.391   2.548  0.8875 -0.5666 -0.2338
15139TIP3   OH266907   3.981   0.927  15.946  0.4294  0.1583  0.4686
15139TIP3    H166908   3.994   0.871  16.023  1.3237 -3.3135 -1.9619
15139TIP3    H266909   3.891   0.909  15.918 -0.1113  1.8977  1.0008
15140TIP3   OH266910   1.922   3.729   1.531  0.5676  0.0237  0.3242
15140TIP3    H166911   1.857   3.722   1.602  0.7145 -0.4352  0.4170
15140TIP3    H266912   1.955   3.639   1.520 -2.9337 -1.1015 -3.6429
15141TIP3   OH266913   1.668   0.943   0.195  0.1355 -0.0238 -0.3197
15141TIP3    H166914   1.577   0.972   0.204  0.5609  0.7426  2.1165
15141TIP3    H266915   1.712   1.016   0.151  0.3764  1.5003  2.2554
15142TIP3   OH266916   1.055   6.090  13.393 -0.4643  0.9200 -0.3064
15142TIP3    H166917   0.968   6.118  13.364 -1.1492 -0.9929 -0.2897
15142TIP3    H266918   1.038   6.010  13.444  1.3114  0.4952 -0.3177
15143TIP3   OH266919   5.195   5.303   6.063  0.1214  0.1696  0.3250
15143TIP3    H166920   5.173   5.394   6.044  0.1737  0.0905 -0.1120
15143TIP3    H266921   5.268   5.308   6.124  0.0522  0.4202  0.3877
15144TIP3   OH266922   3.339   6.353  13.427  0.1614 -0.0955 -0.5443
15144TIP3    H166923   3.276   6.389  13.365  0.5066  1.3046 -0.1267
15144TIP3    H266924   3.284   6.318  13.498 -0.2081 -1.1075 -1.3164
15145TIP3   OH266925   6.803   0.881   4.812 -0.6246 -0.3269 -0.3181
15145TIP3    H166926   6.743   0.920   4.749 -0.2316  2.5327  0.9386
15145TIP3    H266927   6.746   0.830   4.871 -1.6237  0.8468 -0.2257
15146TIP3   OH266928   0.163   1.405   5.882 -0.3467  0.5634 -0.2672
15146TIP3    H166929   0.132   1.319   5.853  0.4458  0.1977 -0.0634
15146TIP3    H266930   0.111   1.467   5.832 -1.7735 -0.0036  0.4325
15147TIP3   OH266931   2.187   3.804  14.777 -0.0345  0.1134  1.0140
15147TIP3    H166932   2.104   3.768  14.806  0.4570 -1.7052  0.3083
15147TIP3    H266933   2.163   3.866  14.708 -0.8139 -0.4352  0.7729
15148TIP3   OH266934   0.830   4.076   6.349  0.1148  0.3386  0.3333
15148TIP3    H166935   0.856   4.093   6.440  3.9502 -3.1947  0.1959
15148TIP3    H266936   0.739   4.045   6.356  0.2684  0.2691  2.9784
15149TIP3   OH266937   5.219   5.486  17.155 -0.3565 -0.1267 -0.1990
15149TIP3    H166938   5.194   5.420  17.090 -1.3547 -0.4318  0.4833
15149TIP3    H266939   5.170   5.564  17.129 -0.8733 -0.2932  0.2753
15150TIP3   OH266940   4.130   5.701   1.774  0.7102  1.0056 -0.3083
15150TIP3    H166941   4.075   5.712   1.852  0.3352 -0.8375 -0.2613
15150TIP3    H266942   4.190   5.775   1.776 -0.2326  1.7694  0.9532
15151TIP3   OH266943   6.625   4.682  13.299 -0.5329  0.2528  0.3873
15151TIP3    H166944   6.706   4.724  13.271 -1.1386  2.2067  1.3662
15151TIP3    H266945   6.592   4.640  13.220  1.9602 -1.6062  0.2127
15152TIP3   OH266946   1.074   0.709  14.944 -0.3325  0.0161  0.1279
15152TIP3    H166947   1.069   0.615  14.959  0.8446 -0.2905 -1.1873
15152TIP3    H266948   1.113   0.718  14.857  0.5729  1.7261  0.6561
15153TIP3   OH266949   4.811   3.269  16.093 -0.0713 -0.3146 -0.1874
15153TIP3    H166950   4.804   3.355  16.051 -1.1821 -0.5394 -0.5060
15153TIP3    H266951   4.847   3.213  16.025  1.6393  0.0891  0.3375
15154TIP3   OH266952   5.327   2.902   2.354  0.7590 -0.1932  0.2462
15154TIP3    H166953   5.296   2.890   2.443  1.2419 -1.1461  0.2953
15154TIP3    H266954   5.392   2.972   2.361 -0.4910  0.9978  0.3277
15155TIP3   OH266955   3.240   3.078   2.107 -0.1035  0.2805  0.1057
15155TIP3    H166956   3.167   3.073   2.169 -0.6663  0.5545 -0.5204
15155TIP3    H266957   3.209   3.032   2.030  0.8370 -0.6070  0.2475
15156TIP3   OH266958   0.346   6.070  13.993  0.4544 -0.1086 -0.3278
15156TIP3    H166959   0.250   6.068  13.989  0.4821 -1.0085 -0.6451
15156TIP3    H266960   0.365   6.101  14.082 -0.1226  0.5791 -0.4288
15157TIP3   OH266961   6.381   5.238   3.651 -0.6780 -0.2011  0.5220
15157TIP3    H166962   6.460   5.186   3.668 -0.0054 -0.6103 -2.9361
15157TIP3    H266963   6.413   5.311   3.597 -2.4321  0.5926  0.5073
15158TIP3   OH266964   5.141   4.375   2.470 -0.4749 -0.2714 -0.1263
15158TIP3    H166965   5.061   4.338   2.433 -0.0901 -1.6470  0.3604
15158TIP3    H266966   5.134   4.469   2.452 -1.8683 -0.4518 -0.6891
15159TIP3   OH266967   1.589   4.585  12.566 -0.6565 -0.3680 -0.3472
15159TIP3    H166968   1.560   4.675  12.554 -2.2706 -1.0126 -1.6431
15159TIP3    H266969   1.672   4.580  12.519 -0.7519  0.3321 -0.5978
15160TIP3   OH266970   1.942   6.000   4.075 -0.0906 -0.2778  0.1980
15160TIP3    H166971   1.943   5.910   4.042  0.8930 -0.0558 -0.4289
15160TIP3    H266972   2.030   6.013   4.111 -0.4349  0.2237  0.8890
15161TIP3   OH266973   0.719   1.044  13.886 -0.3654  0.0200 -0.0120
15161TIP3    H166974   0.684   1.034  13.797  1.0885  1.1560 -0.7539
15161TIP3    H266975   0.813   1.031  13.876 -0.1731  0.2315  1.3667
15162TIP3   OH266976   3.722   1.034  16.324 -0.2108  0.5186 -0.1583
15162TIP3    H166977   3.769   0.953  16.343 -0.9766  0.4640  1.7128
15162TIP3    H266978   3.642   1.006  16.281 -1.1049  0.1038  1.6696
15163TIP3   OH266979   1.199   5.549   1.814 -0.3288 -0.9363  0.3201
15163TIP3    H166980   1.145   5.597   1.877  0.5385  0.1723  0.2446
15163TIP3    H266981   1.198   5.459   1.846 -3.1076 -1.2074 -0.2978
15164TIP3   OH266982   3.589   2.656  14.281  0.1591 -0.0590  0.4448
15164TIP3    H166983   3.588   2.650  14.185 -0.9263  0.3401  0.4259
15164TIP3    H266984   3.590   2.749  14.299 -0.9427 -0.1119  0.8217
15165TIP3   OH266985   0.530   0.821   0.846 -0.8518  0.2262  0.1826
15165TIP3    H166986   0.463   0.861   0.789 -0.6597  0.1800 -0.0770
15165TIP3    H266987   0.601   0.886   0.849 -1.1580  0.5431  0.9497
15166TIP3   OH266988   0.878   0.261   2.781  0.0462 -0.2358 -0.3245
15166TIP3    H166989   0.966   0.225   2.795  0.0138  0.2393  1.3275
15166TIP3    H266990   0.840   0.267   2.869 -1.0232  1.1155 -0.8314
15167TIP3   OH266991   0.998   6.392  15.838 -0.2800  0.3070  0.2823
15167TIP3    H166992   0.988   6.468  15.781  3.0538  2.4223  2.1445
15167TIP3    H266993   0.927   6.399  15.901 -2.6960 -0.8289 -2.1318
15168TIP3   OH266994   4.800   0.753   1.754 -0.0674  0.2844  0.0742
15168TIP3    H166995   4.754   0.763   1.671  0.4038  1.6785 -0.0367
15168TIP3    H266996   4.858   0.678   1.741 -1.9520 -1.2676  0.0838
15169TIP3   OH266997   5.146   4.727  13.333 -0.4860  0.3572 -0.0324
15169TIP3    H166998   5.070   4.734  13.276  0.1113  0.3675 -0.8509
15169TIP3    H266999   5.184   4.642  13.311  0.1136  0.6435 -0.1231
15170TIP3   OH267000   2.777   3.936  12.742 -0.0108  0.4572 -0.4995
15170TIP3    H167001   2.812   3.892  12.820  1.0602 -1.4080 -1.9607
15170TIP3    H267002   2.777   4.029  12.766 -2.1423 -0.1715  2.6339
15171TIP3   OH267003   3.714   3.130  10.541 -0.5392 -0.0865 -0.2606
15171TIP3    H167004   3.662   3.206  10.514 -2.0807 -1.2715 -0.7643
15171TIP3    H267005   3.650   3.067  10.572  0.7825 -0.8692  1.0151
15172TIP3   OH267006   6.068   1.251  16.414  0.0923 -0.4951  0.0352
15172TIP3    H167007   6.022   1.225  16.494  1.8388 -1.1273  0.8781
15172TIP3    H267008   6.160   1.257  16.440  0.3558  2.3728 -1.1656
15173TIP3   OH267009   1.563   4.748  13.419 -0.0081  0.0191 -0.5944
15173TIP3    H167010   1.476   4.748  13.378  0.0873 -1.6069 -0.8617
15173TIP3    H267011   1.560   4.675  13.480  0.0830  1.9554  1.9129
15174TIP3   OH267012   3.170   4.416  16.563  0.5302  0.0190  0.2750
15174TIP3    H167013   3.086   4.451  16.535 -0.3711  0.5528  3.3236
15174TIP3    H267014   3.158   4.321  16.564  0.1322  0.0696  0.2542
15175TIP3   OH267015   4.464   1.313  13.733 -0.3760  0.1955  0.1465
15175TIP3    H167016   4.520   1.237  13.721 -1.4755 -0.4005 -1.4800
15175TIP3    H267017   4.443   1.313  13.826  0.1813 -1.0978  0.2901
15176TIP3   OH267018   2.391   1.278  15.926  0.3458 -0.1663 -0.1218
15176TIP3    H167019   2.346   1.258  15.844 -0.1689 -1.7306  0.5115
15176TIP3    H267020   2.432   1.196  15.952  2.2252  0.8185  0.1745
15177TIP3   OH267021   6.433   2.132   1.595  0.0548 -0.0473 -0.0386
15177TIP3    H167022   6.385   2.050   1.599  1.2789 -0.7552  1.7628
15177TIP3    H267023   6.367   2.199   1.577 -1.0550 -1.3361 -0.9140
15178TIP3   OH267024   1.911   0.796  13.541 -0.4915  0.8241 -0.0345
15178TIP3    H167025   1.860   0.829  13.466 -0.2633  1.8221  0.2257
15178TIP3    H267026   1.855   0.731  13.582 -0.9239  0.8027 -0.6484
15179TIP3   OH267027   6.393   1.994   3.046 -0.5384 -0.2388 -0.4357
15179TIP3    H167028   6.480   1.983   3.085  0.0398 -0.6566 -1.7799
15179TIP3    H267029   6.396   2.082   3.008 -0.4324 -0.5256 -1.1047
15180TIP3   OH267030   4.238   6.590  15.134  0.0366  0.2906  0.1951
15180TIP3    H167031   4.324   6.548  15.132  0.3341  0.8435  0.8986
15180TIP3    H267032   4.252   6.671  15.183 -0.6553  0.9163 -0.6139
15181TIP3   OH267033   0.076   5.089  12.968 -0.6546 -0.0624 -0.0192
15181TIP3    H167034   0.133   5.163  12.948  1.0038 -0.8731  1.4953
15181TIP3    H267035  -0.000   5.102  12.912 -0.4821  2.8442  0.2833
15182TIP3   OH267036   4.645   1.322   5.372 -1.0243 -0.6948 -0.1939
15182TIP3    H167037   4.557   1.355   5.386 -0.7154 -0.1970  0.5924
15182TIP3    H267038   4.703   1.389   5.408 -0.3709 -1.8252  0.9323
15183TIP3   OH267039   1.327   2.088  15.448  0.0503 -0.0613 -0.0760
15183TIP3    H167040   1.312   1.994  15.438  1.8137 -0.3428 -0.4169
15183TIP3    H267041   1.367   2.115  15.366 -1.3698  1.2311 -0.3863
15184TIP3   OH267042   6.683   3.092  12.371 -0.1463  0.0155  0.5480
15184TIP3    H167043   6.771   3.058  12.355  0.2513  1.5470 -0.6976
15184TIP3    H267044   6.625   3.021  12.344  0.6882 -0.6348  0.4135
15185TIP3   OH267045   4.347   5.197   2.761  0.3982 -0.3031 -0.2948
15185TIP3    H167046   4.370   5.134   2.830  1.4475 -1.8412 -1.9716
15185TIP3    H267047   4.350   5.282   2.805 -1.0922 -1.3634  2.0661
15186TIP3   OH267048   2.260   2.685   5.378  0.5905  0.6304  0.8206
15186TIP3    H167049   2.274   2.743   5.303  1.4900  0.9531  1.2231
15186TIP3    H267050   2.255   2.597   5.340 -1.1313  0.9705  0.1681
15187TIP3   OH267051   1.491   1.143   3.384 -0.1119  0.2269 -0.3013
15187TIP3    H167052   1.467   1.225   3.428  0.9226  1.3363 -1.6970
15187TIP3    H267053   1.586   1.142   3.386 -0.1121 -0.9836 -0.2820
15188TIP3   OH267054   6.110   1.044   1.965 -0.8503 -0.4806 -0.4161
15188TIP3    H167055   6.131   1.137   1.973 -3.6920  0.1636  0.7203
15188TIP3    H267056   6.158   1.002   2.036  0.0259  0.1978 -0.5952
15189TIP3   OH267057   3.717   3.225  11.680 -0.0213  0.5439 -0.7123
15189TIP3    H167058   3.642   3.165  11.674  0.0930  0.5049 -1.9257
15189TIP3    H267059   3.714   3.257  11.770 -0.7180 -0.4687 -0.3530
15190TIP3   OH267060   1.567   5.259  14.282 -0.5335  0.2017 -0.4323
15190TIP3    H167061   1.520   5.264  14.365  1.1868  1.4954  0.5089
15190TIP3    H267062   1.636   5.325  14.289  1.1329 -1.2729 -1.9403
15191TIP3   OH267063   0.284   0.136  10.720 -0.1476  0.5679  0.3534
15191TIP3    H167064   0.212   0.073  10.723  0.5862 -0.4496 -1.3816
15191TIP3    H267065   0.260   0.197  10.650  0.0103  1.0778  0.7424
15192TIP3   OH267066   6.352   5.159  15.405 -0.3026 -0.3680 -0.1623
15192TIP3    H167067   6.439   5.121  15.417 -1.3617 -2.4760  1.6143
15192TIP3    H267068   6.326   5.187  15.492 -0.9959  1.2792 -0.8597
15193TIP3   OH267069   3.852   1.715  16.134  0.0759 -0.1349 -0.3512
15193TIP3    H167070   3.920   1.733  16.070  0.7989  0.5364  0.5717
15193TIP3    H267071   3.799   1.795  16.137  0.6004  0.1898  0.5366
15194TIP3   OH267072   5.403   0.205   4.012 -0.1985 -0.2404  0.2404
15194TIP3    H167073   5.391   0.167   3.925  0.9024  0.9422 -0.4793
15194TIP3    H267074   5.498   0.199   4.028 -0.2007  0.7664  0.7425
15195TIP3   OH267075   4.452   5.707   6.040  0.0936 -0.6308 -0.1832
15195TIP3    H167076   4.517   5.730   6.106  0.3349 -1.4846 -0.1123
15195TIP3    H267077   4.373   5.755   6.066  0.1120 -1.1426  0.8694
15196TIP3   OH267078   3.575   0.530   2.867 -0.3475  0.1555 -0.0302
15196TIP3    H167079   3.563   0.551   2.775  0.1075 -0.7562 -0.3131
15196TIP3    H267080   3.488   0.538   2.906 -0.9869 -1.5708 -1.0006
15197TIP3   OH267081   4.240   0.962   2.563 -0.3401  0.2222  0.6188
15197TIP3    H167082   4.170   1.010   2.519  0.0652 -0.1900 -0.5094
15197TIP3    H267083   4.319   1.015   2.546  0.3607 -1.4203 -1.7757
15198TIP3   OH267084   3.317   0.031  15.419 -0.5312 -0.3397 -0.1228
15198TIP3    H167085   3.373   0.081  15.360  1.3364  0.3588  2.0621
15198TIP3    H267086   3.252   0.094  15.450  1.9300  1.0329  2.7706
15199TIP3   OH267087   4.167   2.854   2.798  0.3103 -0.2961 -0.0455
15199TIP3    H167088   4.072   2.857   2.784  0.3920  0.2501 -0.5248
15199TIP3    H267089   4.198   2.786   2.738  0.0437 -1.6654  1.2904
15200TIP3   OH267090   6.168   0.009   6.124  0.1327  0.6464 -0.0352
15200TIP3    H167091   6.127  -0.020   6.043 -1.9242 -2.5523  1.9155
15200TIP3    H267092   6.159   0.104   6.123 -1.9426  0.5278 -2.4890
15201TIP3   OH267093   5.515   6.777  11.319  0.5872  0.0485 -0.1539
15201TIP3    H167094   5.531   6.812  11.231  0.6550 -0.7008 -0.4436
15201TIP3    H267095   5.574   6.702  11.326  2.0488  1.2510  1.2684
15202TIP3   OH267096   5.826   1.805   2.220  0.3418  0.1775  0.0724
15202TIP3    H167097   5.732   1.822   2.209 -0.4781 -0.1265  4.6894
15202TIP3    H267098   5.866   1.892   2.219 -0.5943  0.6590  1.7845
15203TIP3   OH267099   3.680   4.853  16.079  0.0112 -0.0212 -0.1495
15203TIP3    H167100   3.769   4.852  16.043 -0.4576  1.4291 -1.4881
15203TIP3    H267101   3.680   4.784  16.146  2.2873  0.3448  0.3061
15204TIP3   OH267102   3.627   5.948  11.595 -0.4404  0.0730 -0.7507
15204TIP3    H167103   3.593   5.876  11.541 -0.5298 -1.1912  0.9215
15204TIP3    H267104   3.555   5.970  11.654  0.4435 -0.2356  0.4761
15205TIP3   OH267105   4.421   1.262  12.428  0.6535  0.8667 -1.0064
15205TIP3    H167106   4.450   1.212  12.351  0.0316 -1.8475  0.4138
15205TIP3    H267107   4.502   1.280  12.476  0.7110 -1.7176  0.0615
15206TIP3   OH267108   0.008   4.054   5.388  0.3384  0.9753  0.3377
15206TIP3    H167109  -0.082   4.085   5.376 -0.4750 -1.3996 -0.3509
15206TIP3    H267110   0.041   4.040   5.299  1.0311  0.8920  0.6029
15207TIP3   OH267111   1.428   1.644   5.265  0.1230  0.0240 -0.3326
15207TIP3    H167112   1.460   1.675   5.180 -0.6062 -0.0696 -0.6494
15207TIP3    H267113   1.418   1.549   5.254 -0.0170  0.0188 -0.1597
15208TIP3   OH267114   2.974   5.057  15.314  0.7801 -0.4908  0.4224
15208TIP3    H167115   3.053   5.098  15.279  1.0196 -1.0477  0.2976
15208TIP3    H267116   2.996   5.036  15.405  0.6269 -0.2677  0.5129
15209TIP3   OH267117   3.123   2.307   5.212 -0.2515  0.6523 -0.2378
15209TIP3    H167118   3.075   2.270   5.285 -1.2906  1.2642 -0.5862
15209TIP3    H267119   3.150   2.394   5.242  2.2546 -0.3220  0.6135
15210TIP3   OH267120   5.112   1.633   2.337  0.2456  0.0992  0.5753
15210TIP3    H167121   5.034   1.598   2.294  1.3791 -0.2275 -1.3618
15210TIP3    H267122   5.111   1.726   2.317  0.5837  0.0113  0.1328
15211TIP3   OH267123   3.490   3.495   3.843  0.2178  0.0632 -0.4498
15211TIP3    H167124   3.400   3.519   3.864 -1.0385 -2.8791 -1.9186
15211TIP3    H267125   3.532   3.480   3.927 -1.1942 -0.2903  0.2111
15212TIP3   OH267126   6.405   1.604  14.838 -0.3440 -0.2229  0.2880
15212TIP3    H167127   6.398   1.611  14.742  0.7094 -0.1908  0.2004
15212TIP3    H267128   6.492   1.640  14.858 -1.5200  2.1405  1.5100
15213TIP3   OH267129   0.307   1.976  15.857  0.1487 -0.4755 -0.2212
15213TIP3    H167130   0.273   1.889  15.834  0.0537 -0.5747  0.2896
15213TIP3    H267131   0.397   1.976  15.822 -0.3206 -0.2439 -1.4891
15214TIP3   OH267132   5.792   2.870  12.181  0.0460 -0.2276  0.1254
15214TIP3    H167133   5.807   2.775  12.183 -0.4388 -0.3047  0.1771
15214TIP3    H267134   5.697   2.879  12.172  0.0756  0.2554  0.2914
15215TIP3   OH267135   4.227   1.820   1.126  0.1700 -0.8504  0.1061
15215TIP3    H167136   4.310   1.783   1.156  0.3692  1.3603  2.7147
15215TIP3    H267137   4.252   1.890   1.065  0.3913  0.5376  1.7104
15216TIP3   OH267138   6.028   1.121   1.309 -0.6715  0.5312  0.0237
15216TIP3    H167139   5.988   1.044   1.268  0.1113  0.4341 -0.5852
15216TIP3    H267140   5.954   1.177   1.333 -1.2877 -0.7452  1.1659
15217TIP3   OH267141   5.004   1.352   0.218 -0.2133 -0.0240 -0.1392
15217TIP3    H167142   5.081   1.324   0.268 -1.3890 -0.5917  1.4198
15217TIP3    H267143   4.984   1.279   0.161 -0.0655 -0.2019  0.0362
15218TIP3   OH267144   6.001   1.554  13.854 -0.2707  0.3576  0.0661
15218TIP3    H167145   5.965   1.516  13.934 -0.4677 -0.3671 -0.3499
15218TIP3    H267146   6.095   1.536  13.858  0.0247  1.9660  1.0029
15219TIP3   OH267147   0.242   2.456  15.374  0.3465  0.5462  0.2573
15219TIP3    H167148   0.165   2.485  15.423  0.2913 -0.2323  0.6283
15219TIP3    H267149   0.213   2.455  15.283 -0.4835 -0.9908  0.5188
15220TIP3   OH267150   5.161   3.973   4.954 -0.4874  0.0887  0.6024
15220TIP3    H167151   5.137   4.066   4.947  0.0319  0.1202 -1.7831
15220TIP3    H267152   5.098   3.928   4.898 -0.2277 -0.8967  1.0860
15221TIP3   OH267153   3.706   6.229   4.081 -0.3343  0.4642 -0.6381
15221TIP3    H167154   3.697   6.244   4.175 -2.4087  2.1509 -1.0181
15221TIP3    H267155   3.634   6.170   4.059  0.1657  0.0384 -1.1749
15222TIP3   OH267156   1.179   4.262  13.019 -0.3333 -0.3894  0.2282
15222TIP3    H167157   1.179   4.358  13.021 -1.7718 -0.2799 -1.6229
15222TIP3    H267158   1.156   4.236  13.109  2.5990  0.8428  1.4631
15223TIP3   OH267159   2.633   3.760  15.732  0.1526  0.2654 -0.3370
15223TIP3    H167160   2.596   3.782  15.818  0.5972  1.3510 -0.4037
15223TIP3    H267161   2.557   3.752  15.674 -0.1457 -0.4084  0.1439
15224TIP3   OH267162   5.102   5.604   2.064  0.6103 -0.0524 -0.1292
15224TIP3    H167163   5.051   5.628   1.986  1.8561 -0.3434 -1.0809
15224TIP3    H267164   5.098   5.680   2.121 -1.7277 -0.4371  0.3158
15225TIP3   OH267165   6.170   0.484   3.092  0.1246 -0.3840 -0.2026
15225TIP3    H167166   6.080   0.517   3.081  0.5897  0.2287 -2.6374
15225TIP3    H267167   6.159   0.390   3.104 -0.8930 -0.1448  1.0956
15226TIP3   OH267168   1.212   0.570   6.640  0.2775  0.0042  0.4924
15226TIP3    H167169   1.264   0.545   6.563 -1.4203  2.2732 -1.5295
15226TIP3    H267170   1.167   0.490   6.666  2.0078 -1.1586  0.1169
15227TIP3   OH267171   6.735   1.277  14.619  0.3268  0.6842  0.0544
15227TIP3    H167172   6.709   1.236  14.701  1.7961 -0.0172  0.2108
15227TIP3    H267173   6.660   1.330  14.593 -0.0831  1.1326  1.9919
15228TIP3   OH267174   2.022   6.026  17.245 -0.0943 -0.1362 -0.0488
15228TIP3    H167175   2.082   5.979  17.187  1.6482 -1.6923  2.7938
15228TIP3    H267176   1.936   5.991  17.224  0.4892 -0.7474 -1.5723
15229TIP3   OH267177   4.857   3.050   3.188 -0.5521 -0.2568  0.1242
15229TIP3    H167178   4.921   3.036   3.258  0.3636 -1.0380 -0.8121
15229TIP3    H267179   4.861   3.144   3.170 -0.1244 -0.1955  0.5064
15230TIP3   OH267180   6.527   0.852   0.252  0.7037  0.6886 -0.0301
15230TIP3    H167181   6.492   0.774   0.295 -0.7491  0.9086 -0.7437
15230TIP3    H267182   6.572   0.819   0.175 -1.5982  0.6261 -1.4189
15231TIP3   OH267183   1.373   2.553  13.156  0.4326  0.2286  0.1086
15231TIP3    H167184   1.370   2.564  13.061  2.5730  0.3179  0.0066
15231TIP3    H267185   1.427   2.626  13.186  1.9937 -1.2681  1.0942
15232TIP3   OH267186   3.121   4.401  17.131 -0.3452 -0.6962  0.3875
15232TIP3    H167187   3.173   4.355  17.064 -0.7827  0.9913 -1.1952
15232TIP3    H267188   3.173   4.478  17.153 -0.4822 -0.9362  1.5911
15233TIP3   OH267189   2.816   1.559   2.613 -0.0427  0.3962 -0.2167
15233TIP3    H167190   2.846   1.614   2.540 -1.7265 -0.0772 -1.3311
15233TIP3    H267191   2.772   1.619   2.673 -1.8351  0.3531 -1.4064
15234TIP3   OH267192   5.858   0.905   3.425  0.1811  0.6461  0.3633
15234TIP3    H167193   5.916   0.830   3.417 -1.1473 -0.2566 -1.1332
15234TIP3    H267194   5.891   0.968   3.361 -0.4966  0.1253 -0.5013
15235TIP3   OH267195   1.518   2.626  16.726 -0.3181 -0.1036  0.3199
15235TIP3    H167196   1.477   2.693  16.781 -0.0313  1.1340 -0.9164
15235TIP3    H267197   1.444   2.578  16.687 -0.5298 -0.2017  0.8311
15236TIP3   OH267198   5.169   2.674   4.529 -0.0232 -0.5710  0.4159
15236TIP3    H167199   5.088   2.694   4.482  0.7716 -1.8444 -1.6014
15236TIP3    H267200   5.149   2.597   4.582  0.1563 -1.6421 -1.0251
15237TIP3   OH267201   1.531   5.352   6.112  0.3029 -0.0150 -0.2575
15237TIP3    H167202   1.484   5.325   6.191  1.4603  0.3233  0.5797
15237TIP3    H267203   1.469   5.338   6.041 -0.9131  0.0588  0.7553
15238TIP3   OH267204   1.876   1.608  13.702 -0.2437 -0.0719 -0.9001
15238TIP3    H167205   1.826   1.587  13.782 -0.5821  1.7903 -0.5919
15238TIP3    H267206   1.829   1.562  13.632 -1.3168  0.1494 -0.3491
15239TIP3   OH267207   4.960   3.885   4.787 -0.4001  0.3313 -0.1639
15239TIP3    H167208   4.865   3.870   4.790 -0.4124  0.5622  0.9308
15239TIP3    H267209   4.995   3.805   4.748 -1.0869  0.5028 -1.1880
15240TIP3   OH267210   4.411   0.659   2.939  0.4110 -0.2171 -0.1983
15240TIP3    H167211   4.362   0.596   2.886  0.3285 -0.1057 -0.2540
15240TIP3    H267212   4.403   0.742   2.892 -0.1290  0.0030  0.2713
15241TIP3   OH267213   2.683   2.831  15.210 -0.3986 -0.1887 -0.1416
15241TIP3    H167214   2.640   2.797  15.288 -0.3472 -2.6662 -1.1143
15241TIP3    H267215   2.617   2.886  15.168 -0.3820  1.2865  1.6580
15242TIP3   OH267216   4.574   2.562   2.358 -0.1183 -0.3632  0.1031
15242TIP3    H167217   4.668   2.557   2.339  0.1513  0.6011  1.0972
15242TIP3    H267218   4.560   2.652   2.386 -1.3512 -0.4975 -0.0335
15243TIP3   OH267219   0.635   5.946   5.721  0.5609 -0.1265  0.0807
15243TIP3    H167220   0.627   6.009   5.793 -1.9728 -0.6284  0.3344
15243TIP3    H267221   0.546   5.914   5.707  1.3526 -1.7334 -1.7946
15244TIP3   OH267222   1.643   5.539   0.836 -0.3701  0.0803  0.0472
15244TIP3    H167223   1.603   5.559   0.921  1.2940  1.8044  0.5015
15244TIP3    H267224   1.655   5.624   0.794  0.8250 -0.5429 -0.9633
15245TIP3   OH267225   4.281   5.484   2.264 -0.1215  1.0616 -0.1952
15245TIP3    H167226   4.219   5.412   2.278  0.0136  0.7452 -1.1624
15245TIP3    H267227   4.356   5.461   2.319 -0.6548  1.2162  0.6269
15246TIP3   OH267228   3.620   0.977  15.528  0.5622  0.2024  0.0177
15246TIP3    H167229   3.648   0.985  15.437 -1.1968  2.8186 -0.4069
15246TIP3    H267230   3.529   1.008  15.528 -0.2994 -1.9775  2.3055
15247TIP3   OH267231   6.710   2.813   5.128  0.4482 -0.5878 -0.0880
15247TIP3    H167232   6.697   2.810   5.222  2.9166 -0.1982  0.3194
15247TIP3    H267233   6.693   2.904   5.104  1.7675 -0.2073  0.3423
15248TIP3   OH267234   3.113   6.435  13.782  0.3107  0.3172 -0.1391
15248TIP3    H167235   3.099   6.491  13.706 -0.0518  0.8375  0.3038
15248TIP3    H267236   3.172   6.485  13.839 -0.3163  0.4315  0.4303
15249TIP3   OH267237   0.603   0.960   5.688 -0.4659  0.2414  0.0608
15249TIP3    H167238   0.571   0.875   5.719  1.2519 -0.8522 -1.0043
15249TIP3    H267239   0.696   0.959   5.709 -0.6794  2.5742  1.4637
15250TIP3   OH267240   5.633   4.350  15.641 -0.2509 -0.6438  0.1915
15250TIP3    H167241   5.572   4.310  15.703  0.7415  2.6213  3.6485
15250TIP3    H267242   5.592   4.433  15.616  0.7195 -0.5386 -1.2039
15251TIP3   OH267243   2.682   2.980   2.483  0.1130  0.2901  0.5213
15251TIP3    H167244   2.601   3.030   2.491 -0.3519 -0.4136  0.3347
15251TIP3    H267245   2.693   2.969   2.388  0.6642  0.7560  0.5290
15252TIP3   OH267246   1.800   3.260   2.507 -0.0624  0.4085 -0.5345
15252TIP3    H167247   1.814   3.314   2.585  1.1636  1.4449 -1.4303
15252TIP3    H267248   1.817   3.171   2.535  0.8469  0.8280  0.2774
15253TIP3   OH267249   0.051   2.478   1.807  0.0933  0.6738  0.3554
15253TIP3    H167250   0.062   2.516   1.720 -0.0160 -0.4628 -0.1657
15253TIP3    H267251   0.105   2.533   1.864  2.9431 -0.5304 -0.9839
15254TIP3   OH267252   1.871   4.349  11.865 -0.2966  0.1298  0.3155
15254TIP3    H167253   1.959   4.329  11.832  1.6241  0.5643  4.4227
15254TIP3    H267254   1.832   4.264  11.884 -0.5098 -0.0456 -0.8384
15255TIP3   OH267255   1.448   2.412   0.700 -0.1885 -0.2718  1.2557
15255TIP3    H167256   1.366   2.390   0.743 -1.1615  0.8336  0.0465
15255TIP3    H267257   1.465   2.503   0.724 -1.6612  0.9902 -1.8880
15256TIP3   OH267258   1.017   1.991   1.136 -0.6597  0.3889 -0.3272
15256TIP3    H167259   0.934   2.034   1.156 -0.0316  0.9858  1.1514
15256TIP3    H267260   1.004   1.952   1.049 -3.0518 -0.9752  0.5316
15257TIP3   OH267261   6.033   4.555  11.471  0.1552  0.4018 -0.3148
15257TIP3    H167262   5.985   4.637  11.477  1.1240  0.8832  1.4767
15257TIP3    H267263   5.991   4.498  11.536  0.5222  0.0276 -0.4025
15258TIP3   OH267264   5.343   5.426  13.016 -0.2818  0.3681  0.4751
15258TIP3    H167265   5.250   5.411  13.003  0.1963 -0.5393 -2.7296
15258TIP3    H267266   5.372   5.472  12.938  2.1355 -0.1999  0.9286
15259TIP3   OH267267   3.686   1.787   5.985  0.4205 -0.4535 -0.2240
15259TIP3    H167268   3.594   1.779   5.963 -0.0239 -0.4685  1.5115
15259TIP3    H267269   3.702   1.881   5.991  0.1476 -0.4748  0.9008
15260TIP3   OH267270   2.135   6.397  13.977 -0.4810 -0.4344 -0.2090
15260TIP3    H167271   2.198   6.340  13.932  0.4943  0.5414 -0.1255
15260TIP3    H267272   2.102   6.344  14.049 -1.0034 -1.5290 -1.2283
15261TIP3   OH267273   5.954   0.506   2.872 -0.3726 -0.0313 -0.4352
15261TIP3    H167274   5.911   0.575   2.923  0.6280 -0.6629  1.3648
15261TIP3    H267275   6.026   0.551   2.827  0.8102  0.0442  1.4052
15262TIP3   OH267276   0.090   3.648   1.128 -0.4656 -0.1512 -0.1914
15262TIP3    H167277   0.177   3.608   1.131 -0.7991 -0.9778 -1.0208
15262TIP3    H267278   0.095   3.720   1.192  1.7030  1.5929 -2.1241
15263TIP3   OH267279   2.747   5.407  15.918  0.6195  0.0820  1.0957
15263TIP3    H167280   2.692   5.485  15.927  1.4106  0.6712  0.9706
15263TIP3    H267281   2.687   5.334  15.930  0.0431  0.7246  2.3434
15264TIP3   OH267282   3.132   5.970   3.094  0.0910  0.3288 -0.2949
15264TIP3    H167283   3.215   5.958   3.046  0.8833  0.8360  0.8999
15264TIP3    H267284   3.088   5.885   3.086  0.9398 -0.1070 -0.5638
15265TIP3   OH267285   6.099   6.335  16.976 -0.4264 -0.5842 -0.6480
15265TIP3    H167286   6.011   6.362  16.953 -1.3576 -1.5938  1.4507
15265TIP3    H267287   6.146   6.417  16.994 -0.8397 -0.0304 -2.0114
15266TIP3   OH267288   4.741   3.317   6.045 -0.0779 -0.2710 -0.0057
15266TIP3    H167289   4.723   3.377   6.118 -0.6333  1.5348 -1.5396
15266TIP3    H267290   4.810   3.260   6.078 -1.0195 -0.2028  2.2690
15267TIP3   OH267291   1.913   5.156   4.248  0.0402 -0.0832 -0.4119
15267TIP3    H167292   1.973   5.152   4.322  0.7437  0.3078 -0.9428
15267TIP3    H267293   1.911   5.066   4.213 -1.3055 -0.5801  0.8318
15268TIP3   OH267294   4.312   4.390  12.327  0.0826  0.5286  0.2092
15268TIP3    H167295   4.245   4.401  12.259 -1.1896  0.5894  1.4261
15268TIP3    H267296   4.373   4.326  12.290 -0.2637  0.9633 -1.1989
15269TIP3   OH267297   4.764   4.073  15.688 -0.6418  0.5225  0.5462
15269TIP3    H167298   4.709   4.139  15.646 -0.1721 -0.0549 -1.0344
15269TIP3    H267299   4.742   4.080  15.781 -1.0385  2.4791  0.3554
15270TIP3   OH267300   0.092   1.636  15.489 -0.8434 -0.0803  0.0012
15270TIP3    H167301   0.012   1.620  15.439 -0.5346  1.6411 -1.1273
15270TIP3    H267302   0.149   1.563  15.466 -2.1177 -1.4705  1.0150
15271TIP3   OH267303   1.289   1.292  12.412 -0.1612  0.1056 -0.3268
15271TIP3    H167304   1.345   1.307  12.337 -0.3811  0.5666 -0.3995
15271TIP3    H267305   1.213   1.348  12.398  0.0001  0.5338  0.4561
15272TIP3   OH267306   2.519   5.050   4.222 -0.1349 -0.2969 -0.2931
15272TIP3    H167307   2.502   5.081   4.133 -2.0772 -2.3316 -0.7467
15272TIP3    H267308   2.457   5.099   4.277 -1.5136 -1.5507 -0.6573
15273TIP3   OH267309   4.237   4.944   2.888  0.0898 -0.2962 -0.8342
15273TIP3    H167310   4.205   4.995   2.814 -0.4066 -1.2224 -1.2743
15273TIP3    H267311   4.159   4.927   2.941  0.5522  0.9850  0.3223
15274TIP3   OH267312   0.465   3.178  10.730  0.0839 -0.0282  1.4162
15274TIP3    H167313   0.381   3.137  10.752 -0.6256 -0.0375 -0.9991
15274TIP3    H267314   0.446   3.272  10.729 -0.5418 -0.0945 -1.0994
15275TIP3   OH267315   6.022   2.557   6.678 -0.0110 -0.2856 -0.5395
15275TIP3    H167316   6.052   2.495   6.744 -1.0335  0.1339  0.3611
15275TIP3    H267317   5.982   2.502   6.611 -0.0717 -0.6610 -0.2059
15276TIP3   OH267318   1.571   1.148  12.993  0.1034 -0.1205  0.7133
15276TIP3    H167319   1.621   1.148  12.911  0.6578  2.9565  0.9186
15276TIP3    H267320   1.480   1.133  12.965  0.4251 -0.1789 -0.3466
15277TIP3   OH267321   2.084   4.650  17.306 -0.3694  0.0772  0.2732
15277TIP3    H167322   2.150   4.632  17.373 -0.6578 -0.3140  0.4558
15277TIP3    H267323   2.007   4.678  17.355 -0.5030  0.0307  0.0919
15278TIP3   OH267324   6.795   3.028  12.740 -0.4238  0.2335 -0.3216
15278TIP3    H167325   6.797   3.057  12.831  0.5070  0.0211 -0.2553
15278TIP3    H267326   6.837   3.099  12.691  0.7391 -0.4161 -0.3218
15279TIP3   OH267327   5.244   0.122  16.571  0.5020 -0.1558 -0.5348
15279TIP3    H167328   5.228   0.028  16.569  2.5731 -0.5523 -0.9581
15279TIP3    H267329   5.266   0.140  16.662 -1.4068  0.2547 -0.1113
15280TIP3   OH267330   4.782   6.515   3.083  0.6336 -0.1910  0.3144
15280TIP3    H167331   4.711   6.450   3.085  0.7577 -0.3642 -0.5049
15280TIP3    H267332   4.762   6.570   3.007  1.1285  0.0539  0.3565
15281TIP3   OH267333   1.278   0.148  13.869  0.3194  0.1541  0.2891
15281TIP3    H167334   1.338   0.089  13.825 -0.7338  0.1649 -1.2409
15281TIP3    H267335   1.199   0.147  13.815 -0.4668  1.3829  1.3452
15282TIP3   OH267336   5.538   5.000   6.067  0.2909  0.2036 -0.0668
15282TIP3    H167337   5.570   5.090   6.068 -0.1572  0.4222 -1.8418
15282TIP3    H267338   5.457   5.003   6.117  0.8222  0.5483  0.7856
15283TIP3   OH267339   0.197   3.037  12.271  0.0844  0.0448 -0.0179
15283TIP3    H167340   0.257   2.974  12.311 -0.2775 -0.4990 -0.3075
15283TIP3    H267341   0.247   3.118  12.265 -0.4631  0.7937  3.4657
15284TIP3   OH267342   4.786   1.980   1.565  0.0369  0.2054 -0.1001
15284TIP3    H167343   4.872   2.018   1.586 -0.1331  0.3039  0.4476
15284TIP3    H267344   4.807   1.893   1.531  0.3873  0.4909 -0.6229
15285TIP3   OH267345   3.792   3.420  16.279 -0.5667 -0.2938 -0.4321
15285TIP3    H167346   3.705   3.461  16.278 -0.7664 -0.7112 -0.4136
15285TIP3    H267347   3.823   3.433  16.368 -0.0313  1.0472 -0.7936
15286TIP3   OH267348   1.985   2.811   6.724 -0.3900 -0.3770  0.3024
15286TIP3    H167349   2.051   2.780   6.662  0.3605  1.2967  0.2086
15286TIP3    H267350   2.011   2.774   6.808  1.0852  0.7821  0.3918
15287TIP3   OH267351   5.693   6.095   2.893 -0.2200  0.7344  0.9639
15287TIP3    H167352   5.685   6.099   2.988  3.4098  4.3750  1.3991
15287TIP3    H267353   5.666   6.182   2.863  0.2886  0.2130 -1.1627
15288TIP3   OH267354   2.771   4.660   2.625  0.2400  0.2583 -0.2208
15288TIP3    H167355   2.768   4.567   2.647  0.5942  0.4483  0.6575
15288TIP3    H267356   2.679   4.686   2.618  0.1249 -0.3695 -1.4715
15289TIP3   OH267357   4.652   6.767  16.540 -0.6284 -0.4513 -0.0287
15289TIP3    H167358   4.664   6.829  16.468 -0.2797 -1.5252 -0.9179
15289TIP3    H267359   4.557   6.759  16.549 -0.6797  0.3377  0.2215
15290TIP3   OH267360   0.240   5.806   4.918 -0.3409 -0.3564 -0.4294
15290TIP3    H167361   0.222   5.782   4.827  0.4725  0.1291 -0.7281
15290TIP3    H267362   0.330   5.777   4.933  0.0028  0.7806 -0.2094
15291TIP3   OH267363   1.034   6.647  14.910 -0.1942  0.5544  0.5973
15291TIP3    H167364   1.080   6.564  14.899  2.0611  1.9678 -1.7304
15291TIP3    H267365   0.957   6.639  14.853  0.7593  0.5144 -0.7297
15292TIP3   OH267366   0.525   4.378  12.139  0.5217 -0.2164 -0.2255
15292TIP3    H167367   0.480   4.427  12.208  0.0676  0.7459 -1.1632
15292TIP3    H267368   0.581   4.316  12.185 -0.6611 -0.4164  0.9960
15293TIP3   OH267369   4.664   3.345   5.772  0.1972  0.2454 -0.1171
15293TIP3    H167370   4.681   3.355   5.865 -1.8609 -1.9859  0.6328
15293TIP3    H267371   4.653   3.250   5.760 -1.3064  0.6099 -2.2577
15294TIP3   OH267372   3.301   4.262  15.911  0.5239  0.4767 -0.0532
15294TIP3    H167373   3.369   4.205  15.877  1.2768  0.5375  1.2622
15294TIP3    H267374   3.335   4.293  15.995 -1.5613 -0.3443  1.1819
15295TIP3   OH267375   2.988   0.216   5.476 -0.0794 -0.8574  0.0915
15295TIP3    H167376   3.070   0.245   5.517  0.4558 -1.3184 -0.6300
15295TIP3    H267377   2.967   0.134   5.520 -0.6247 -0.3070  0.8771
15296TIP3   OH267378   3.851   1.666   6.172  0.0326  0.3201  0.1743
15296TIP3    H167379   3.796   1.593   6.200 -0.7291  0.9008  0.2378
15296TIP3    H267380   3.792   1.721   6.119  0.9167  0.2641 -0.9090
15297TIP3   OH267381   4.255   6.687   2.526 -0.4896 -0.3731 -0.1359
15297TIP3    H167382   4.330   6.746   2.522 -0.2609 -0.5050  1.5302
15297TIP3    H267383   4.189   6.727   2.469 -0.2939  1.4210  0.8463
15298TIP3   OH267384   2.378   0.923   1.996 -0.4692 -0.0198  0.1795
15298TIP3    H167385   2.471   0.916   2.018 -0.7418 -0.7488  1.1897
15298TIP3    H267386   2.340   0.840   2.026 -1.3723  0.1017 -0.5901
15299TIP3   OH267387   0.527   2.896   4.662  0.2982  0.1370  0.2377
15299TIP3    H167388   0.569   2.817   4.625  1.1854  0.3638  0.7258
15299TIP3    H267389   0.563   2.902   4.750 -1.5128 -0.1896  1.0457
15300TIP3   OH267390   4.935   1.086  15.700  0.1654  0.7220  0.1346
15300TIP3    H167391   5.004   1.061  15.638  1.2599 -0.1964  1.6800
15300TIP3    H267392   4.922   1.009  15.754 -1.1099  1.3587  0.7801
15301TIP3   OH267393   5.103   2.534  15.755 -0.3178  0.1612 -0.1955
15301TIP3    H167394   5.008   2.523  15.758 -0.1600 -1.3711  2.3481
15301TIP3    H267395   5.117   2.628  15.748 -2.0505  0.6111  1.7221
15302TIP3   OH267396   0.380   2.775  11.803  0.2001 -0.2417 -0.0350
15302TIP3    H167397   0.381   2.815  11.890  1.4150 -1.4799  0.5629
15302TIP3    H267398   0.471   2.778  11.774 -0.1315 -0.1949 -1.1110
15303TIP3   OH267399   0.209   1.809  16.514 -0.7066  0.2247 -0.4040
15303TIP3    H167400   0.181   1.864  16.587 -0.0032 -2.1726  1.8523
15303TIP3    H267401   0.303   1.822  16.508 -0.4208 -1.0855  0.5922
15304TIP3   OH267402   1.743   5.729   5.831 -0.6583 -0.4014 -0.4035
15304TIP3    H167403   1.808   5.704   5.765  0.4835 -0.5786  0.7556
15304TIP3    H267404   1.713   5.647   5.868 -1.7093 -0.3280 -1.0700
15305TIP3   OH267405   1.641   2.863   3.276  0.7904  0.0168  0.1582
15305TIP3    H167406   1.685   2.944   3.303 -1.6001  2.1360 -1.7134
15305TIP3    H267407   1.574   2.849   3.343 -1.4206  2.0444 -1.4302
15306TIP3   OH267408   1.996   4.717   3.679  0.1881  0.3943 -0.5308
15306TIP3    H167409   1.918   4.662   3.683  0.8871 -0.7573 -1.7356
15306TIP3    H267410   2.029   4.704   3.590  1.0246  1.9034 -0.4781
15307TIP3   OH267411   5.048   0.233  11.065 -0.1348  0.1199 -0.3955
15307TIP3    H167412   5.138   0.225  11.098  0.4654 -0.4753 -2.1003
15307TIP3    H267413   5.051   0.311  11.010 -0.3166 -0.6369 -1.4957
15308TIP3   OH267414   4.699   4.280   5.767 -0.5781  0.4678  0.3477
15308TIP3    H167415   4.752   4.358   5.784 -1.5954  1.5787 -1.2796
15308TIP3    H267416   4.681   4.284   5.673 -1.9329 -0.9143  0.5238
15309TIP3   OH267417   5.745   2.042   1.929 -0.0330  0.4190 -0.1527
15309TIP3    H167418   5.777   2.122   1.888  0.7865  0.1890  0.0314
15309TIP3    H267419   5.673   2.071   1.985  0.7415  1.1367  0.4952
15310TIP3   OH267420   1.838   3.405   4.672 -0.4027  0.0005 -0.1249
15310TIP3    H167421   1.749   3.379   4.697  0.1633 -0.8581  1.0747
15310TIP3    H267422   1.886   3.323   4.666 -0.0932  0.2763 -2.6352
15311TIP3   OH267423   4.751   3.577   2.839  0.0586 -0.3773 -0.5328
15311TIP3    H167424   4.725   3.490   2.868 -1.0620  0.4123  0.9542
15311TIP3    H267425   4.676   3.633   2.860  0.4975  0.8518 -2.0276
15312TIP3   OH267426   2.101   5.880   2.682  0.6023 -0.1004  0.3692
15312TIP3    H167427   2.159   5.903   2.610 -1.1840  0.6656 -0.9237
15312TIP3    H267428   2.015   5.912   2.654 -1.0969 -3.7614  0.7990
15313TIP3   OH267429   3.799   6.680  11.297 -0.0818  0.6626  0.3720
15313TIP3    H167430   3.844   6.738  11.359  2.9157 -1.8764  0.8344
15313TIP3    H267431   3.861   6.669  11.225 -2.1831  1.0025 -1.5994
15314TIP3   OH267432   2.532   0.034   1.806  0.2762 -0.0254 -0.2378
15314TIP3    H167433   2.522  -0.018   1.886  1.7969  0.4762  0.3106
15314TIP3    H267434   2.569  -0.027   1.742 -1.9690 -0.7365 -0.9740
15315TIP3   OH267435   1.238   1.326   2.100  0.5945 -0.0070  0.1140
15315TIP3    H167436   1.158   1.350   2.146 -0.3651 -1.1740 -0.8717
15315TIP3    H267437   1.276   1.409   2.072 -1.2899  0.5230 -1.0377
15316TIP3   OH267438   6.726   3.246  11.296 -0.1648 -0.3644 -0.5002
15316TIP3    H167439   6.724   3.158  11.260  2.3309 -0.0307 -1.6662
15316TIP3    H267440   6.819   3.264  11.311 -0.7537  1.3400  1.6135
15317TIP3   OH267441   6.615   4.918   1.314  0.1487 -0.1738 -0.0516
15317TIP3    H167442   6.670   4.860   1.261  0.6982 -0.9115  1.2736
15317TIP3    H267443   6.673   4.989   1.339 -0.2361  0.4146 -0.7886
15318TIP3   OH267444   4.256   3.752  16.203  0.0903 -0.3115 -0.1489
15318TIP3    H167445   4.208   3.674  16.176  0.8874 -0.8045 -0.1925
15318TIP3    H267446   4.221   3.774  16.289 -1.0681  0.0827 -0.6983
15319TIP3   OH267447   0.462   5.077   5.626 -0.2186  0.0045 -0.2296
15319TIP3    H167448   0.553   5.093   5.603 -0.1505 -0.0829 -0.0265
15319TIP3    H267449   0.427   5.163   5.649  0.0849 -0.0968  0.6503
15320TIP3   OH267450   4.897   2.389   1.372  0.4554 -0.1698  0.3362
15320TIP3    H167451   4.842   2.438   1.434  0.3214 -0.3563  0.3646
15320TIP3    H267452   4.906   2.448   1.297  1.3710  0.4303  0.9000
15321TIP3   OH267453   4.677   6.288  12.029  0.6452 -0.4504  0.2284
15321TIP3    H167454   4.765   6.281  12.067  0.9103 -1.0846 -0.4711
15321TIP3    H267455   4.620   6.305  12.104  1.3892  0.2264  0.6652
15322TIP3   OH267456   4.634   1.457  11.552 -0.4180  0.4674 -0.2597
15322TIP3    H167457   4.683   1.387  11.507  0.8839  1.8203 -1.0547
15322TIP3    H267458   4.543   1.428  11.550  0.1325 -1.3760 -0.2205
15323TIP3   OH267459   2.265   6.602   0.400  0.7113  0.2454 -0.3434
15323TIP3    H167460   2.247   6.537   0.468  0.6522 -0.6240 -1.1769
15323TIP3    H267461   2.353   6.582   0.369  0.9371  0.9557 -0.1899
15324TIP3   OH267462   4.239   6.301  16.174 -0.2220 -0.0133  0.0338
15324TIP3    H167463   4.259   6.290  16.267 -3.7470 -0.7667  0.8708
15324TIP3    H267464   4.272   6.388  16.153 -0.9823  1.0091  2.6017
15325TIP3   OH267465   6.812   2.214   0.742  0.2173 -0.1070  0.1904
15325TIP3    H167466   6.839   2.125   0.717  1.0884  0.0926  0.3890
15325TIP3    H267467   6.782   2.254   0.660 -1.8115 -1.1176  0.3688
15326TIP3   OH267468   6.449   5.614  14.461  0.1151 -0.3522 -0.4620
15326TIP3    H167469   6.496   5.547  14.511 -0.9602  0.0059  1.1110
15326TIP3    H267470   6.412   5.566  14.387  1.2732 -1.0245 -0.6329
15327TIP3   OH267471   4.396   4.513   1.716 -0.2996  0.6021 -0.4798
15327TIP3    H167472   4.334   4.489   1.785  1.7689 -0.2079  1.2117
15327TIP3    H267473   4.435   4.430   1.688  1.6632  1.2211  0.2010
15328TIP3   OH267474   0.896   0.422   4.579 -0.1376  0.0145 -0.4495
15328TIP3    H167475   0.830   0.490   4.564  0.9205  0.7468 -1.9268
15328TIP3    H267476   0.972   0.469   4.613  1.0207 -0.2115 -2.5911
15329TIP3   OH267477   0.999   6.407   4.002  0.8055  0.1332 -0.4078
15329TIP3    H167478   0.989   6.337   3.938  1.5040 -0.7615  0.4237
15329TIP3    H267479   0.930   6.470   3.981  0.7572 -0.3525 -1.7487
15330TIP3   OH267480   1.876   5.236   0.353 -0.1313  0.2588  0.0002
15330TIP3    H167481   1.870   5.216   0.260 -0.4345 -0.0266  0.0813
15330TIP3    H267482   1.910   5.326   0.356  0.1573  0.1639 -0.3777
15331TIP3   OH267483   4.758   5.552   4.936 -0.0508  0.0220 -0.2762
15331TIP3    H167484   4.664   5.551   4.951 -0.1420 -1.6122 -0.7919
15331TIP3    H267485   4.768   5.554   4.840  0.3769 -1.5724 -0.3053
15332TIP3   OH267486   0.497   4.156   2.479  0.1934 -0.2528 -0.2152
15332TIP3    H167487   0.588   4.138   2.456  0.4883 -0.9357  1.3855
15332TIP3    H267488   0.446   4.102   2.419  0.8876 -0.8815 -0.2462
15333TIP3   OH267489   6.025   5.451   3.572 -0.0464 -0.0820  0.1793
15333TIP3    H167490   6.014   5.360   3.598  3.6569 -0.7403  0.0227
15333TIP3    H267491   5.997   5.502   3.648 -1.2294 -1.3532  0.6384
15334TIP3   OH267492   2.098   1.681   0.357  0.3384  0.3851 -0.1134
15334TIP3    H167493   2.068   1.601   0.400 -2.5545  0.0659 -2.4046
15334TIP3    H267494   2.051   1.751   0.402  0.9392  0.5689  0.2466
15335TIP3   OH267495   5.110   1.709   5.383 -0.3180  0.2966  0.3221
15335TIP3    H167496   5.136   1.652   5.455  1.3953 -0.1615 -0.5878
15335TIP3    H267497   5.140   1.796   5.409  0.4921  0.0941  0.0970
15336TIP3   OH267498   2.478   4.637   4.777  0.3307 -0.8536 -0.1216
15336TIP3    H167499   2.456   4.634   4.684  1.2187  0.7968 -0.4218
15336TIP3    H267500   2.495   4.729   4.795  0.5307 -1.1926  1.6040
15337TIP3   OH267501   0.553   0.390   0.096 -0.2118 -0.0334 -0.2760
15337TIP3    H167502   0.537   0.390   0.001  1.4616 -1.5941 -0.6292
15337TIP3    H267503   0.647   0.408   0.103 -0.4729  0.8783  1.1554
15338TIP3   OH267504   2.502   0.017  16.333  0.0858 -0.2663  0.4793
15338TIP3    H167505   2.556   0.093  16.311 -0.2105 -0.3779 -0.6850
15338TIP3    H267506   2.565  -0.055  16.339  0.4383  0.1461  2.1252
15339TIP3   OH267507   1.700   6.254   5.723  0.0752 -0.3003 -0.4766
15339TIP3    H167508   1.685   6.328   5.782  1.5585  0.7024 -1.2650
15339TIP3    H267509   1.795   6.241   5.725 -0.2416 -3.0528  0.5948
15340TIP3   OH267510   0.996   1.015   1.096 -0.0930  0.0032  0.1127
15340TIP3    H167511   0.970   0.929   1.062  0.7746 -0.1443 -0.2118
15340TIP3    H267512   0.950   1.078   1.040 -0.2046 -0.2500 -0.0796
15341TIP3   OH267513   1.831   0.506  14.482  0.3088  0.0974  0.1534
15341TIP3    H167514   1.768   0.516  14.411  1.3916 -0.4880 -0.9079
15341TIP3    H267515   1.778   0.473  14.555 -0.6406 -0.3063 -0.6839
15342TIP3   OH267516   2.351   0.957  16.363  0.5704  0.4156  0.2140
15342TIP3    H167517   2.284   0.933  16.427  2.6939 -0.3480  2.2764
15342TIP3    H267518   2.357   0.882  16.305  0.1623  0.2010  0.4435
15343TIP3   OH267519   0.408   5.346   0.886  0.0192 -0.3724  0.4016
15343TIP3    H167520   0.432   5.366   0.977  0.6657 -1.9266  0.6040
15343TIP3    H267521   0.491   5.348   0.839 -0.1860 -0.5130  0.0362
15344TIP3   OH267522   3.287   3.889   4.304  0.1545 -0.4709  0.3154
15344TIP3    H167523   3.298   3.969   4.355  1.8204 -0.0628 -0.5887
15344TIP3    H267524   3.329   3.908   4.220 -0.0696 -2.0424 -0.1989
15345TIP3   OH267525   4.912   3.641  15.694 -0.1522  0.4022 -0.0697
15345TIP3    H167526   4.967   3.660  15.618  0.4720 -1.9263 -0.2510
15345TIP3    H267527   4.966   3.665  15.769  0.4922 -0.3150 -0.2945
15346TIP3   OH267528   1.746   0.556  13.392 -0.3887  0.5014 -0.5104
15346TIP3    H167529   1.715   0.469  13.370 -0.2790  0.4076 -0.2968
15346TIP3    H267530   1.697   0.580  13.471  0.2327  0.2675 -0.0483
15347TIP3   OH267531   6.389   2.512  11.239  1.1248  0.0340  0.1609
15347TIP3    H167532   6.479   2.522  11.272  1.2687  2.2213 -0.7216
15347TIP3    H267533   6.386   2.422  11.206  2.9955 -0.1160  0.2501
15348TIP3   OH267534   4.683   2.221  12.044  0.1092 -0.4571 -0.2154
15348TIP3    H167535   4.619   2.283  12.008 -0.4395 -0.6479  0.4084
15348TIP3    H267536   4.687   2.150  11.980 -0.8783 -0.8074  0.0896
15349TIP3   OH267537   0.071   4.741   3.350 -0.0502 -0.1119  0.7997
15349TIP3    H167538   0.091   4.686   3.425  0.4409  1.8715  2.1994
15349TIP3    H267539   0.153   4.747   3.302 -0.7504 -2.7483 -0.9611
15350TIP3   OH267540   3.775   2.046   6.032  0.6024 -0.2734  0.0680
15350TIP3    H167541   3.857   2.016   6.072 -0.3077 -2.0811  0.7185
15350TIP3    H267542   3.719   2.067   6.106  0.0727 -0.2258 -0.3459
15351TIP3   OH267543   5.078   1.365  11.297  0.5179 -0.3306  0.6296
15351TIP3    H167544   5.018   1.297  11.327  0.8456 -0.0367  2.0171
15351TIP3    H267545   5.155   1.356  11.355  0.0482  2.0142  1.7226
15352TIP3   OH267546   5.498   0.383  17.043  0.3126  0.8378  0.3481
15352TIP3    H167547   5.548   0.323  16.988 -0.8295  0.7410 -0.6227
15352TIP3    H267548   5.519   0.357  17.133  0.3085 -0.6209 -0.0559
15353TIP3   OH267549   4.687   1.141  12.256  0.4111  0.1801 -0.1466
15353TIP3    H167550   4.694   1.138  12.351 -3.1011  0.6243  0.2375
15353TIP3    H267551   4.755   1.203  12.229  2.3443 -0.9155  1.8732
15354TIP3   OH267552   6.404   6.166   3.067  1.2755 -0.2613  0.0261
15354TIP3    H167553   6.363   6.193   2.985  1.9414  1.5343  0.2358
15354TIP3    H267554   6.392   6.071   3.070 -0.1799 -0.1580 -1.3526
15355TIP3   OH267555   3.207   4.303   2.499  0.0182 -0.3086  0.0590
15355TIP3    H167556   3.124   4.350   2.486  0.7360  1.1175  0.4244
15355TIP3    H267557   3.226   4.264   2.414 -1.5736 -1.6285  0.2556
15356TIP3   OH267558   5.749   6.760  11.647 -0.1674  0.2317  0.3120
15356TIP3    H167559   5.680   6.825  11.636  1.2442  2.0558  1.6194
15356TIP3    H267560   5.711   6.695  11.706 -0.0860  2.4397  2.9663
15357TIP3   OH267561   5.318   3.212  11.877 -0.6952 -0.4346 -0.2554
15357TIP3    H167562   5.237   3.226  11.827 -1.3685  0.7208  1.1024
15357TIP3    H267563   5.362   3.296  11.874  0.4333 -1.0312 -0.8956
15358TIP3   OH267564   3.677   3.142  15.338  0.6408  0.0256 -0.0342
15358TIP3    H167565   3.647   3.232  15.329 -1.9540 -0.6000  1.3046
15358TIP3    H267566   3.674   3.125  15.432  1.9565 -1.1984 -0.1766
15359TIP3   OH267567   2.159   3.514  13.154 -0.3707 -0.7376 -0.3208
15359TIP3    H167568   2.092   3.546  13.215 -0.5575 -2.6057  0.5179
15359TIP3    H267569   2.110   3.487  13.077 -0.4014 -0.6740 -0.3243
15360TIP3   OH267570   0.474   2.502  11.386 -0.3005  0.1365  0.0999
15360TIP3    H167571   0.507   2.485  11.474 -0.7875  0.3436  0.3261
15360TIP3    H267572   0.391   2.454  11.382 -0.6198  0.6945 -0.0052
15361TIP3   OH267573   6.625   5.278  16.375 -0.1921 -0.5923  0.0229
15361TIP3    H167574   6.597   5.365  16.348  1.1322 -0.2179 -0.2070
15361TIP3    H267575   6.646   5.233  16.293  0.7915 -0.5229  0.2179
15362TIP3   OH267576   4.573   0.883   6.461 -0.1450 -0.3259 -0.2902
15362TIP3    H167577   4.539   0.887   6.371 -2.8147 -0.7864  0.5882
15362TIP3    H267578   4.560   0.792   6.487  1.8618 -0.5211  0.1646
15363TIP3   OH267579   2.863   3.865  11.785  0.1494  0.7912 -0.0014
15363TIP3    H167580   2.925   3.827  11.847 -0.2823  1.4951  0.8774
15363TIP3    H267581   2.879   3.960  11.790 -1.1789  1.0067  0.4453
15364TIP3   OH267582   1.946   2.256   3.353  0.2370 -0.2989 -0.3017
15364TIP3    H167583   1.921   2.324   3.414  1.4530 -0.1570  0.0679
15364TIP3    H267584   1.876   2.191   3.358 -0.5849  0.5888 -0.1473
15365TIP3   OH267585   5.611   5.256  16.287  0.2534 -0.0462 -0.2471
15365TIP3    H167586   5.668   5.311  16.340 -0.3563  0.0921  0.2831
15365TIP3    H267587   5.641   5.269  16.197  0.9818  0.1005  0.0107
15366TIP3   OH267588   6.367   2.728   2.830 -0.2087 -0.4579  0.2699
15366TIP3    H167589   6.444   2.782   2.815 -0.4470 -0.2854 -0.3800
15366TIP3    H267590   6.328   2.717   2.743 -0.6593 -0.9283  0.5237
15367TIP3   OH267591   3.445   6.475   4.842 -0.3235  0.3550 -0.0072
15367TIP3    H167592   3.484   6.549   4.888  0.2052 -0.0100  0.1403
15367TIP3    H267593   3.382   6.439   4.905 -0.3564  0.4896  0.0384
15368TIP3   OH267594   4.870   4.621  14.722 -0.1076 -0.6505 -0.3644
15368TIP3    H167595   4.879   4.715  14.704 -0.3565 -0.4858  0.3418
15368TIP3    H267596   4.960   4.588  14.719 -0.1386 -0.6347 -1.8715
15369TIP3   OH267597   3.556   1.222  10.762 -0.2840 -0.0368 -0.0778
15369TIP3    H167598   3.525   1.249  10.675 -1.3995  1.4158  0.7252
15369TIP3    H267599   3.631   1.165  10.744  1.6695  2.8461 -1.9949
15370TIP3   OH267600   6.144   1.046  16.050 -1.2653  0.1660 -0.1424
15370TIP3    H167601   6.217   1.044  16.112 -1.2489 -0.2777 -0.1724
15370TIP3    H267602   6.096   1.126  16.071  0.8367  2.0760 -1.9769
15371TIP3   OH267603   4.762   2.545   1.161  0.2851 -0.8253 -0.5323
15371TIP3    H167604   4.684   2.489   1.170 -0.4949 -0.2966 -3.0689
15371TIP3    H267605   4.726   2.632   1.145  1.3357 -0.7052 -2.5008
15372TIP3   OH267606   4.760   3.095   2.157 -0.4356 -0.4438 -0.0279
15372TIP3    H167607   4.700   3.161   2.192 -0.5219 -0.8381  0.6068
15372TIP3    H267608   4.771   3.118   2.065  1.4571  1.8961  0.6804
15373TIP3   OH267609   1.122   4.551  13.280 -0.0184 -0.2845 -0.0540
15373TIP3    H167610   1.119   4.460  13.250  0.7372 -0.0632 -0.8451
15373TIP3    H267611   1.130   4.544  13.375 -4.1081 -0.9913  0.4064
15374TIP3   OH267612   0.718   5.189   2.813 -0.2064  0.4881  0.7587
15374TIP3    H167613   0.791   5.203   2.752  0.0992  1.0754  1.2466
15374TIP3    H267614   0.648   5.244   2.780 -0.7688 -0.7861 -0.2479
15375TIP3   OH267615   0.101   3.622  13.212 -0.7862  0.6425  0.2881
15375TIP3    H167616   0.115   3.599  13.303  0.5102  0.3978  0.0436
15375TIP3    H267617   0.166   3.689  13.193 -0.4033  0.0259 -0.6992
15376TIP3   OH267618   3.951   3.786  14.635  0.1554  0.1084  0.3345
15376TIP3    H167619   4.007   3.826  14.702  0.6721 -1.4245  0.8553
15376TIP3    H267620   3.870   3.837  14.639  0.2266  0.1667  2.0196
15377TIP3   OH267621   3.498   6.058   5.333  0.0118  0.5049  0.0335
15377TIP3    H167622   3.483   5.984   5.392 -0.5296  1.1764  0.7619
15377TIP3    H267623   3.468   6.134   5.382  0.8996  1.2593 -0.5673
15378TIP3   OH267624   1.604   3.028  12.666 -0.1483 -0.3066 -0.2458
15378TIP3    H167625   1.534   3.054  12.726 -1.0738 -1.5059 -0.7886
15378TIP3    H267626   1.631   3.110  12.624 -1.1680  0.1841  0.0277
15379TIP3   OH267627   3.740   5.559   5.682 -0.0864  0.1156 -0.0524
15379TIP3    H167628   3.717   5.597   5.766  2.0575 -0.2840  0.8007
15379TIP3    H267629   3.705   5.470   5.685 -0.5795  0.3184  0.1513
15380TIP3   OH267630   1.800   0.196   2.862 -0.2728  0.1974 -0.2724
15380TIP3    H167631   1.753   0.169   2.941 -2.2889  0.6567 -1.2287
15380TIP3    H267632   1.797   0.291   2.864  1.4846  0.2659  0.0937
15381TIP3   OH267633   3.513   1.594   2.942 -0.3833  0.1686 -0.0830
15381TIP3    H167634   3.496   1.575   3.034  0.3101 -0.3349 -0.0441
15381TIP3    H267635   3.510   1.508   2.899  1.2679  0.1284 -0.1789
15382TIP3   OH267636   4.713   0.195   4.329  0.3778  0.6170  0.2934
15382TIP3    H167637   4.692   0.193   4.235 -0.3070 -1.9732  0.4289
15382TIP3    H267638   4.758   0.279   4.341  1.1067  0.7365 -2.4834
15383TIP3   OH267639   0.606   4.910   1.861  0.1602 -0.1020  0.4883
15383TIP3    H167640   0.617   4.918   1.767 -2.5243  0.8985  0.1506
15383TIP3    H267641   0.584   4.999   1.890  0.1338 -0.5469  1.9252
15384TIP3   OH267642   6.598   3.273   4.162 -0.2610 -0.2352 -0.6739
15384TIP3    H167643   6.538   3.347   4.153 -0.8590 -0.2869  2.0337
15384TIP3    H267644   6.656   3.280   4.086 -1.3176  2.0520 -1.3679
15385TIP3   OH267645   0.635   4.478   3.480  0.5157 -0.1989 -0.7084
15385TIP3    H167646   0.714   4.489   3.428 -0.6960  0.9985 -2.4280
15385TIP3    H267647   0.623   4.562   3.524 -1.3175  0.7690 -2.8355
15386TIP3   OH267648   1.061   5.305   1.481  0.2070  0.5627  0.1928
15386TIP3    H167649   1.095   5.231   1.531  0.2466  1.7104  1.9733
15386TIP3    H267650   0.973   5.279   1.456  0.7585 -0.6735 -0.5667
15387TIP3   OH267651   6.766   1.042  15.028  0.3504  0.1636 -0.1472
15387TIP3    H167652   6.697   1.061  15.092 -0.6991  0.4669 -1.3212
15387TIP3    H267653   6.795   1.128  14.998  0.9594  0.0261  0.0478
15388TIP3   OH267654   5.356   2.739  15.719 -0.2615  0.3594 -0.5791
15388TIP3    H167655   5.264   2.751  15.742  0.4063 -0.2496  3.0267
15388TIP3    H267656   5.360   2.651  15.681 -1.1697  0.3870 -0.7468
15389TIP3   OH267657   3.936   5.277  15.753 -0.3924  0.4550 -0.3813
15389TIP3    H167658   3.881   5.317  15.686 -2.1322  0.2073  0.8151
15389TIP3    H267659   3.874   5.239  15.816  1.1075  1.5596  1.9225
15390TIP3   OH267660   2.235   3.758  14.193 -0.0615 -0.2172 -0.2867
15390TIP3    H167661   2.311   3.807  14.224  0.4599 -0.2591 -1.4302
15390TIP3    H267662   2.272   3.674  14.163 -0.1763  0.5636 -2.8700
15391TIP3   OH267663   3.835   4.432   4.113  0.5957  0.4378  0.2758
15391TIP3    H167664   3.866   4.342   4.119 -1.0984 -0.1081  2.0481
15391TIP3    H267665   3.829   4.450   4.020  0.6831 -1.3864 -0.1145
15392TIP3   OH267666   5.729   5.406  16.953  0.3084  0.3018  0.0119
15392TIP3    H167667   5.637   5.421  16.931  0.5522 -0.8496 -2.0707
15392TIP3    H267668   5.736   5.311  16.962  1.0877  0.4581  1.2986
15393TIP3   OH267669   3.628   5.277   5.678  0.2006  0.2438 -0.1612
15393TIP3    H167670   3.663   5.213   5.740  0.6583 -0.2380 -0.8986
15393TIP3    H267671   3.585   5.224   5.611  0.0344  0.7365 -0.4496
15394TIP3   OH267672   0.139   4.595   4.865 -0.4407  0.5101 -0.1550
15394TIP3    H167673   0.208   4.638   4.914 -0.5369 -0.2728  0.6973
15394TIP3    H267674   0.060   4.607   4.918 -0.5861 -0.1815 -0.2060
15395TIP3   OH267675   0.876   5.156   5.137 -0.0412  0.2213  0.1148
15395TIP3    H167676   0.969   5.145   5.117 -0.0875 -0.0682  0.0460
15395TIP3    H267677   0.832   5.140   5.053 -0.1709  0.0522  0.2141
15396TIP3   OH267678   6.448   5.311  14.976  0.4276  0.0131 -0.4834
15396TIP3    H167679   6.489   5.368  14.911 -0.2029  1.1703  0.1210
15396TIP3    H267680   6.416   5.237  14.925 -1.9779  1.8984 -1.8963
15397TIP3   OH267681   2.464   5.480  12.562  0.1301 -0.2976 -0.1849
15397TIP3    H167682   2.515   5.477  12.482  1.9650  0.2670  0.9198
15397TIP3    H267683   2.424   5.567  12.563 -0.8357 -0.7121 -1.0096
15398TIP3   OH267684   1.805   5.632   2.671 -0.6457 -0.3093  0.0035
15398TIP3    H167685   1.898   5.625   2.651 -0.2590  0.8896  1.2413
15398TIP3    H267686   1.781   5.546   2.706  0.3208 -0.2324  0.8922
15399TIP3   OH267687   5.466   4.829  14.357 -0.5462 -0.4359 -0.4270
15399TIP3    H167688   5.556   4.816  14.327 -0.0723 -1.2899  1.2246
15399TIP3    H267689   5.461   4.922  14.380  0.7353 -0.8602  1.8335
15400TIP3   OH267690   6.248   2.772  11.109  0.4105  0.4012 -0.1643
15400TIP3    H167691   6.228   2.717  11.034  1.5907  0.4411 -0.5248
15400TIP3    H267692   6.191   2.848  11.099 -1.6166 -0.9254  0.6157
15401TIP3   OH267693   4.240   1.094   3.006 -0.4823  0.2599  0.4763
15401TIP3    H167694   4.268   1.051   3.087  1.6503  0.2071 -0.2145
15401TIP3    H267695   4.287   1.178   3.007 -0.0007  0.0315 -0.9270
15402TIP3   OH267696   2.735   2.711   5.283  0.4066  0.2765 -0.1060
15402TIP3    H167697   2.687   2.650   5.226  0.5150 -0.3006  0.4104
15402TIP3    H267698   2.666   2.761   5.326  0.2288 -0.7510  0.8531
15403TIP3   OH267699   0.306   4.088   5.407  0.0512  0.2502 -0.4089
15403TIP3    H167700   0.314   3.994   5.426 -1.0286  0.1269 -0.5083
15403TIP3    H267701   0.327   4.131   5.489  0.7439 -0.0567 -0.4102
15404TIP3   OH267702   1.087   5.484  13.574 -0.1719 -0.1255  0.0539
15404TIP3    H167703   1.129   5.453  13.494  1.4924 -1.2035  1.2630
15404TIP3    H267704   1.117   5.423  13.641 -1.8980  0.4544  1.4323
15405TIP3   OH267705   6.202   6.392   0.244 -0.0165  0.0217 -0.3759
15405TIP3    H167706   6.248   6.405   0.161 -1.4649  1.8783 -0.9667
15405TIP3    H267707   6.119   6.350   0.219 -0.0552 -0.2679  0.2364
15406TIP3   OH267708   3.558   5.522  14.802 -0.6357 -0.5001  0.0451
15406TIP3    H167709   3.567   5.432  14.834 -0.7565 -0.3611  0.4708
15406TIP3    H267710   3.588   5.576  14.874 -1.3395 -0.1644  0.0924
15407TIP3   OH267711   5.470   0.616  15.275  0.1556  0.8362 -0.0214
15407TIP3    H167712   5.419   0.547  15.317 -1.3135  2.2708  0.6242
15407TIP3    H267713   5.409   0.688  15.262  1.9368  2.5380  0.5440
15408TIP3   OH267714   1.334   5.725  13.087 -0.2814 -0.4405 -0.2972
15408TIP3    H167715   1.345   5.717  13.182 -0.7715 -0.7288 -0.2622
15408TIP3    H267716   1.403   5.786  13.060  0.3519 -0.9488  0.1327
15409TIP3   OH267717   3.151   5.579   1.415 -0.3759 -0.1734  0.1247
15409TIP3    H167718   3.137   5.600   1.507 -1.3236  0.5524 -0.1801
15409TIP3    H267719   3.173   5.486   1.415 -0.2426 -0.1498  1.0935
15410TIP3   OH267720   5.143   0.831  12.132  0.8558  0.3034 -0.8936
15410TIP3    H167721   5.151   0.748  12.084  1.5055  0.4371 -1.0191
15410TIP3    H267722   5.109   0.893  12.068 -2.4434 -0.4967 -0.1168
15411TIP3   OH267723   2.576   3.895   0.557 -0.1942  0.0197  0.3770
15411TIP3    H167724   2.580   3.990   0.551  2.4135 -0.0228  0.4758
15411TIP3    H267725   2.523   3.878   0.635  0.4567  1.4217  1.1516
15412TIP3   OH267726   6.482   0.987  14.492  0.0563 -0.1780  0.1741
15412TIP3    H167727   6.452   0.897  14.476  1.5815 -0.9818  1.4165
15412TIP3    H267728   6.404   1.033  14.522 -0.9719 -0.8077 -1.3867
15413TIP3   OH267729   3.674   4.749  16.745  0.1777 -0.0532  0.0454
15413TIP3    H167730   3.601   4.734  16.806  1.0736 -1.3781  0.8415
15413TIP3    H267731   3.666   4.680  16.680 -0.0675  0.6411 -0.6847
15414TIP3   OH267732   5.350   3.242   1.707 -0.6258 -0.0746 -0.0543
15414TIP3    H167733   5.321   3.166   1.758  0.4894 -0.0776  0.6098
15414TIP3    H267734   5.445   3.245   1.720 -0.6897  1.6845  0.2886
15415TIP3   OH267735   0.081   1.196  11.142  0.3169 -0.2264  0.4340
15415TIP3    H167736   0.155   1.156  11.188 -0.1903  0.8690  2.3109
15415TIP3    H267737   0.118   1.230  11.061  1.3390 -1.8543  0.1808
15416TIP3   OH267738   5.790   5.233  11.786  0.2871  0.3242  0.3314
15416TIP3    H167739   5.862   5.296  11.777 -1.2193  1.9922 -0.7875
15416TIP3    H267740   5.756   5.249  11.874  0.2819  0.6969  0.2650
15417TIP3   OH267741   6.430   2.040   2.413 -0.0024 -0.7051 -0.1819
15417TIP3    H167742   6.525   2.034   2.424 -0.0983 -0.4364  0.8898
15417TIP3    H267743   6.418   2.063   2.321  0.9812 -0.5824 -0.2876
15418TIP3   OH267744   3.780   4.809  14.750  0.0641 -0.6730 -0.5246
15418TIP3    H167745   3.698   4.816  14.799  0.4441  3.2973 -0.1311
15418TIP3    H267746   3.755   4.826  14.659  0.3580  0.3721 -0.4282
15419TIP3   OH267747   0.745   2.778   1.502  0.4416 -0.1480  0.3054
15419TIP3    H167748   0.831   2.787   1.462  0.7191 -3.7038 -0.1663
15419TIP3    H267749   0.759   2.722   1.578 -1.2272  0.6504  1.2761
15420TIP3   OH267750   5.754   0.096   1.263  0.0901  0.3535  0.0443
15420TIP3    H167751   5.715   0.111   1.177 -1.4477 -0.6904  0.5166
15420TIP3    H267752   5.795   0.010   1.256  0.1272  0.3487  0.3011
15421TIP3   OH267753   4.973   6.452  15.586 -0.3930  0.1912 -0.0087
15421TIP3    H167754   4.990   6.361  15.561 -1.2008 -0.2965  1.1293
15421TIP3    H267755   4.888   6.449  15.631  0.8074  1.0270  2.4949
15422TIP3   OH267756   1.708   3.248   3.525 -0.2370 -0.9281  0.2774
15422TIP3    H167757   1.801   3.264   3.541 -0.1940 -1.7650  0.8836
15422TIP3    H267758   1.706   3.200   3.442 -0.4014  2.5175 -1.8985
15423TIP3   OH267759   4.206   3.949  15.191  0.1008 -0.0014  0.0401
15423TIP3    H167760   4.173   4.036  15.214  0.3810  0.1442 -0.1037
15423TIP3    H267761   4.266   3.965  15.119  2.7122  0.1363  2.0851
15424TIP3   OH267762   3.370   1.601   3.996  0.1745  0.2592 -0.2481
15424TIP3    H167763   3.464   1.597   4.015  0.0529 -0.2211  0.2668
15424TIP3    H267764   3.362   1.672   3.932  0.8825  0.3308 -0.2673
15425TIP3   OH267765   0.962   1.559  17.192 -0.3992  0.0385 -0.3531
15425TIP3    H167766   0.928   1.630  17.246 -0.8801 -0.2107 -0.3268
15425TIP3    H267767   0.895   1.491  17.196 -0.0586 -0.3157 -0.5871
15426TIP3   OH267768   0.105   4.767  11.467 -0.0143 -0.0319  0.0883
15426TIP3    H167769   0.121   4.861  11.467 -0.8572  0.1369 -1.2174
15426TIP3    H267770   0.136   4.737  11.552 -1.5017  1.7335  1.3222
15427TIP3   OH267771   3.601   6.750   1.510  0.3846 -0.4563 -0.1188
15427TIP3    H167772   3.597   6.752   1.415  0.0930 -0.2313 -0.1016
15427TIP3    H267773   3.607   6.842   1.536  1.8032 -0.5550  0.0262
15428TIP3   OH267774   3.495   6.715   3.689 -0.3151  0.3596 -0.2466
15428TIP3    H167775   3.587   6.694   3.705 -0.6156  0.3994  1.6496
15428TIP3    H267776   3.498   6.790   3.629  0.8720  0.4383 -0.1113
15429TIP3   OH267777   1.535   2.701   4.913 -0.1625  0.6055  0.0308
15429TIP3    H167778   1.466   2.640   4.940 -0.0641 -0.0508 -1.1266
15429TIP3    H267779   1.597   2.646   4.865  2.0821  0.8107  2.4302
15430TIP3   OH267780   4.604   2.706  17.212  0.2442  0.4020  0.3105
15430TIP3    H167781   4.517   2.711  17.171  0.4203 -1.1695 -0.3398
15430TIP3    H267782   4.614   2.789  17.258 -2.6893 -0.3719  2.6166
15431TIP3   OH267783   0.433   3.861   6.052  0.2021 -0.1994  0.0817
15431TIP3    H167784   0.508   3.900   6.096 -0.1682  0.7837 -0.1373
15431TIP3    H267785   0.371   3.933   6.041 -0.5425 -0.8714 -0.2438
15432TIP3   OH267786   3.260   4.742  15.575 -0.2808 -0.7487 -0.3103
15432TIP3    H167787   3.336   4.769  15.626 -0.8532  0.3029  0.0113
15432TIP3    H267788   3.237   4.656  15.609 -0.7618  0.0091  1.3405
15433TIP3   OH267789   4.105   3.010  11.875 -0.3527 -0.1644 -0.6587
15433TIP3    H167790   4.125   2.918  11.886  0.0496 -0.2642 -2.0887
15433TIP3    H267791   4.190   3.052  11.864 -0.5785  0.2629 -0.8035
15434TIP3   OH267792   1.331   1.734  16.424  0.4976  0.1912  0.4892
15434TIP3    H167793   1.306   1.822  16.397 -0.4954 -0.1372  0.3123
15434TIP3    H267794   1.423   1.742  16.450 -0.1423  1.7510  2.5592
15435TIP3   OH267795   5.714   4.174  10.615  0.0664  0.5807  0.0199
15435TIP3    H167796   5.719   4.264  10.645 -0.2803  1.4672 -2.3999
15435TIP3    H267797   5.631   4.142  10.649  0.0264  1.2753  0.5957
15436TIP3   OH267798   1.951   6.062  13.943  0.8677 -0.4314  0.1575
15436TIP3    H167799   1.868   6.063  13.894  0.5209 -1.9444  0.6489
15436TIP3    H267800   1.945   6.136  14.002 -0.2721 -0.6848  0.3775
15437TIP3   OH267801   0.417   3.568  13.324  0.7710 -0.1355 -0.1017
15437TIP3    H167802   0.372   3.573  13.408  0.0362 -0.2316 -0.4816
15437TIP3    H267803   0.497   3.517  13.342  1.3493  1.0481  0.8351
15438TIP3   OH267804   2.535   2.699  17.272 -0.1056 -0.0491  0.5881
15438TIP3    H167805   2.589   2.694  17.193 -1.8639 -0.4198 -0.6275
15438TIP3    H267806   2.514   2.792  17.280  0.2636  0.0210  0.7569
15439TIP3   OH267807   5.555   4.651   5.857  0.0014 -0.4884  0.3934
15439TIP3    H167808   5.630   4.639   5.916  0.0943 -0.1556  0.3424
15439TIP3    H267809   5.557   4.573   5.801  0.3786 -0.4285  0.3179
15440TIP3   OH267810   4.463   5.056  16.491 -0.0500 -0.6176 -0.5420
15440TIP3    H167811   4.546   5.044  16.445 -1.1272  1.4672 -3.2758
15440TIP3    H267812   4.412   4.979  16.468  0.2978 -0.7847 -0.7697
15441TIP3   OH267813   1.187   6.324  12.311 -0.0948  0.3352  0.1989
15441TIP3    H167814   1.154   6.282  12.391  0.2762  0.4049  0.3911
15441TIP3    H267815   1.234   6.401  12.343  1.8717 -0.7523  0.0898
15442TIP3   OH267816   1.920   5.305  11.816 -0.3057 -0.0415  0.1546
15442TIP3    H167817   1.846   5.355  11.780  0.9138  2.1151  0.4257
15442TIP3    H267818   1.897   5.214  11.803 -3.5444  0.4908  1.2512
15443TIP3   OH267819   1.374   1.638  15.755 -0.9246 -0.2082  0.0326
15443TIP3    H167820   1.401   1.718  15.800  1.1362  0.6948 -2.5361
15443TIP3    H267821   1.448   1.578  15.764 -1.9720 -1.4342  0.9057
15444TIP3   OH267822   0.838   5.147  13.665 -0.3912 -0.7258 -1.0728
15444TIP3    H167823   0.857   5.121  13.755 -1.2842 -0.6701 -0.8605
15444TIP3    H267824   0.852   5.241  13.663 -0.3024 -0.7378 -1.0174
15445TIP3   OH267825   4.652   3.947  12.043 -0.1826  0.1130 -0.4461
15445TIP3    H167826   4.637   3.955  12.137 -1.3255 -1.6044 -0.4431
15445TIP3    H267827   4.743   3.975  12.031  0.3340 -0.6681  1.3255
15446TIP3   OH267828   5.847   0.561   5.354 -0.5063  0.2972  0.8575
15446TIP3    H167829   5.782   0.504   5.314 -0.5624  1.1250 -0.2883
15446TIP3    H267830   5.899   0.504   5.411 -1.4425 -0.6041  0.8269
15447TIP3   OH267831   3.253   3.673   0.105  0.3664 -0.0277  0.2463
15447TIP3    H167832   3.253   3.602   0.040  1.2843  0.5220 -0.3816
15447TIP3    H267833   3.344   3.680   0.133  0.4029  1.2804 -0.1315
15448TIP3   OH267834   2.978   2.050  12.721  0.3129  0.2386  0.3394
15448TIP3    H167835   2.945   2.111  12.787 -0.2209  0.5814 -0.2344
15448TIP3    H267836   3.045   1.999  12.767  0.5773  1.0664  0.9027
15449TIP3   OH267837   6.679   1.044   4.530  0.6238  0.2151 -0.4846
15449TIP3    H167838   6.691   0.950   4.512  1.2987  0.2168 -0.0808
15449TIP3    H267839   6.707   1.088   4.450  4.9845  0.3044  0.8336
15450TIP3   OH267840   0.433   3.064  12.680  0.0559 -0.0437 -0.5456
15450TIP3    H167841   0.418   3.128  12.610  0.6160 -1.2356 -1.8100
15450TIP3    H267842   0.398   2.982  12.646 -1.2554 -0.3190  1.3166
15451TIP3   OH267843   2.461   1.660  12.293  0.0479  0.5616 -0.1313
15451TIP3    H167844   2.403   1.586  12.315 -0.1526  0.6261 -0.4408
15451TIP3    H267845   2.494   1.639  12.206 -0.2161  0.9623 -0.3308
15452TIP3   OH267846   2.998   4.607   0.416  0.1423 -0.2555  0.3985
15452TIP3    H167847   2.908   4.610   0.450  0.1104  1.6511  0.2541
15452TIP3    H267848   3.053   4.601   0.494 -0.0593  0.0454  0.5624
15453TIP3   OH267849   1.494   3.018   2.786 -0.4806  0.0297 -0.3306
15453TIP3    H167850   1.511   3.084   2.854  0.5791 -1.0128  0.4603
15453TIP3    H267851   1.531   3.055   2.706  0.9258  0.0427  0.2920
15454TIP3   OH267852   6.776   1.924   0.733  0.6774 -0.1696  0.1111
15454TIP3    H167853   6.732   1.938   0.650  2.1694 -0.7527 -0.8071
15454TIP3    H267854   6.738   1.843   0.767 -0.9034  0.7677  0.6940
15455TIP3   OH267855   6.698   6.233  15.162  0.2934 -0.4127  0.2446
15455TIP3    H167856   6.667   6.143  15.152  1.1093 -0.6215 -0.5313
15455TIP3    H267857   6.784   6.234  15.120  0.4717  0.6340  0.5988
15456TIP3   OH267858   3.374   0.485   1.374 -0.1818 -0.0688  0.3982
15456TIP3    H167859   3.297   0.541   1.380 -0.2239 -0.2541  2.0504
15456TIP3    H267860   3.439   0.529   1.429 -0.1265 -1.4603  1.4856
15457TIP3   OH267861   2.502   6.021   3.715 -0.3020  0.1556  0.2376
15457TIP3    H167862   2.491   6.109   3.678  0.6585  0.7703  1.3571
15457TIP3    H267863   2.588   6.022   3.755 -1.0359 -0.6894  1.9316
15458TIP3   OH267864   5.730   2.912   4.154 -0.2688 -0.1332 -0.1742
15458TIP3    H167865   5.773   2.985   4.199 -0.7844 -0.6416  1.1976
15458TIP3    H267866   5.676   2.870   4.221  1.0442 -2.6212 -0.5450
15459TIP3   OH267867   5.737   1.430   5.065  0.2291  0.0208 -0.0910
15459TIP3    H167868   5.680   1.393   4.998 -2.4528  1.2226  1.3727
15459TIP3    H267869   5.825   1.425   5.027 -0.9416 -0.8619 -2.9560
15460TIP3   OH267870   5.640   6.205   4.006  0.1516 -0.0598 -0.2489
15460TIP3    H167871   5.581   6.151   4.058  0.5502 -0.9664 -0.6929
15460TIP3    H267872   5.600   6.292   4.004 -0.7157 -0.4447  0.1606
15461TIP3   OH267873   4.731   5.239   6.237 -0.5019 -0.2337 -0.9223
15461TIP3    H167874   4.749   5.331   6.259  1.2739 -0.7515 -0.0451
15461TIP3    H267875   4.801   5.214   6.176  0.0944 -1.4613  0.1998
15462TIP3   OH267876   4.771   6.381  14.541 -0.3530 -0.0068  0.2425
15462TIP3    H167877   4.744   6.325  14.613 -4.1574  0.2914 -0.7581
15462TIP3    H267878   4.810   6.458  14.584 -0.0733 -0.9810  1.8084
15463TIP3   OH267879   6.345   2.477  13.449 -0.2941 -0.2627  0.1498
15463TIP3    H167880   6.356   2.450  13.540  2.4987 -1.3441 -0.4291
15463TIP3    H267881   6.302   2.563  13.455  0.5877  0.0960  2.5110
15464TIP3   OH267882   0.006   5.778  14.106  0.0412 -0.5196 -0.1548
15464TIP3    H167883   0.028   5.685  14.102 -1.1566 -0.7718 -1.3034
15464TIP3    H267884   0.054   5.811  14.182 -1.6628 -2.6376  1.9324
15465TIP3   OH267885   1.038   0.658   2.069  0.7443  0.2590 -0.0665
15465TIP3    H167886   1.022   0.589   2.005  1.7791  1.5679 -1.8392
15465TIP3    H267887   1.130   0.683   2.055  0.6223  1.4771  1.0515
15466TIP3   OH267888   5.777   1.512  13.716  0.1024 -0.5896 -0.6606
15466TIP3    H167889   5.732   1.443  13.764  0.1946  1.5059  2.7545
15466TIP3    H267890   5.852   1.536  13.771  0.4016  1.8343 -1.9511
15467TIP3   OH267891   3.780   4.045   3.570 -0.1886 -0.1716 -0.5068
15467TIP3    H167892   3.794   3.989   3.493  1.6746  2.8385 -2.5945
15467TIP3    H267893   3.689   4.073   3.562 -0.4421 -1.0182 -0.7534
15468TIP3   OH267894   5.274   6.245   2.450  0.3414 -0.0158 -0.1590
15468TIP3    H167895   5.363   6.259   2.415 -0.1657  1.2892 -0.9913
15468TIP3    H267896   5.256   6.324   2.500 -1.5686  1.3048 -2.7029
15469TIP3   OH267897   5.890   2.414   3.383  0.6661 -0.0594  0.6184
15469TIP3    H167898   5.841   2.493   3.358 -1.2386 -1.2806  0.3403
15469TIP3    H267899   5.972   2.421   3.334  0.0393  1.1536 -0.3137
15470TIP3   OH267900   2.443   1.541  13.886  0.1603  0.2024 -0.3081
15470TIP3    H167901   2.497   1.609  13.925  0.8075  0.1989 -1.1690
15470TIP3    H267902   2.464   1.544  13.793 -1.0245 -0.0751 -0.6015
15471TIP3   OH267903   6.431   6.454   2.457  0.1947 -0.2984 -0.2317
15471TIP3    H167904   6.453   6.545   2.476  1.6394 -0.9548  1.5011
15471TIP3    H267905   6.338   6.447   2.482  0.3349  0.4525  0.5596
15472TIP3   OH267906   3.124   6.767  11.953  0.0166  0.2640 -0.9608
15472TIP3    H167907   3.200   6.802  12.000  0.5543 -0.7093 -1.0808
15472TIP3    H267908   3.048   6.807  11.996  0.5956  1.6733 -1.1816
15473TIP3   OH267909   5.273   2.177  11.095  0.1605 -0.2160 -0.4681
15473TIP3    H167910   5.311   2.091  11.080 -2.3573 -1.2718 -1.1132
15473TIP3    H267911   5.258   2.213  11.008  0.8378  0.7693 -0.2067
15474TIP3   OH267912   6.379   0.461   3.508  0.5557 -0.7083 -0.2915
15474TIP3    H167913   6.407   0.423   3.591 -0.3059  0.1775  0.4281
15474TIP3    H267914   6.350   0.387   3.456  1.4908 -1.3211  0.0268
15475TIP3   OH267915   5.797   3.791   1.213  0.5910 -0.0152  0.3554
15475TIP3    H167916   5.716   3.755   1.248 -0.6359  2.1402 -0.1141
15475TIP3    H267917   5.829   3.850   1.281  1.0739  0.1138  0.0258
15476TIP3   OH267918   0.055   3.490   3.547 -0.0667  1.0676  0.1303
15476TIP3    H167919  -0.011   3.428   3.516  0.1165  0.9162  0.0386
15476TIP3    H267920   0.031   3.506   3.639  0.2870  0.3072  0.3691
15477TIP3   OH267921   2.326   6.240  14.661 -0.0228  0.2466  0.2176
15477TIP3    H167922   2.362   6.289  14.587  0.8113  0.2607  0.6276
15477TIP3    H267923   2.396   6.239  14.726 -0.2304 -0.9831  0.4527
15478TIP3   OH267924   4.241   2.492  14.377 -0.3492  0.6506  0.3611
15478TIP3    H167925   4.263   2.481  14.469 -1.8276 -3.2651  0.4337
15478TIP3    H267926   4.311   2.444  14.330 -1.2146 -0.0065 -0.2936
15479TIP3   OH267927   2.741   3.429  11.580  0.1771 -0.0838 -0.2436
15479TIP3    H167928   2.809   3.377  11.623  0.5133  1.5885  1.3558
15479TIP3    H267929   2.735   3.509  11.632 -1.0290  1.0582 -2.0231
15480TIP3   OH267930   4.731   2.962  12.756 -0.1809 -0.6025 -0.2946
15480TIP3    H167931   4.785   3.008  12.821 -0.7145  0.7384 -0.7792
15480TIP3    H267932   4.790   2.948  12.682 -0.3373  0.4190 -0.6282
15481TIP3   OH267933   6.512   6.665   2.212 -0.3608 -0.5534  0.0138
15481TIP3    H167934   6.568   6.651   2.135 -1.5651 -1.5174 -0.7289
15481TIP3    H267935   6.459   6.741   2.189  0.6884  0.4178  0.7562
15482TIP3   OH267936   2.194   6.545  12.687 -0.0063  0.0089  0.2785
15482TIP3    H167937   2.281   6.555  12.726 -0.1602  0.6503  0.4679
15482TIP3    H267938   2.170   6.634  12.660  0.0292 -0.3887 -1.1244
15483TIP3   OH267939   0.035   1.071  15.925  0.5039  0.3879 -0.5065
15483TIP3    H167940   0.050   1.038  16.013  1.5688 -0.0918 -0.8522
15483TIP3    H267941   0.096   1.144  15.916  0.6141  0.2468 -0.9459
15484TIP3   OH267942   2.979   2.716  14.587  0.3200  0.5270  0.9770
15484TIP3    H167943   2.919   2.666  14.532  1.1928  0.5370  0.0025
15484TIP3    H267944   3.061   2.667  14.584  0.4067  0.5696  2.2194
15485TIP3   OH267945   3.169   5.911  14.174 -0.1147 -0.0347 -0.1374
15485TIP3    H167946   3.174   5.818  14.152  0.2554  0.0908 -0.6165
15485TIP3    H267947   3.260   5.936  14.192 -0.1048  0.3962 -0.7395
15486TIP3   OH267948   1.257   5.115   2.224 -0.2850 -0.1659 -0.1176
15486TIP3    H167949   1.262   5.193   2.279 -0.2685 -1.0444  1.1722
15486TIP3    H267950   1.224   5.047   2.282 -1.5588 -0.8290 -1.5453
15487TIP3   OH267951   2.723   4.368   5.612 -0.0640  0.0109  0.6850
15487TIP3    H167952   2.809   4.337   5.583 -1.3668 -2.5079 -0.8343
15487TIP3    H267953   2.702   4.310   5.686 -0.8961 -0.1030  0.3615
15488TIP3   OH267954   3.257   2.881  12.914 -0.6189 -0.7998 -0.5894
15488TIP3    H167955   3.287   2.971  12.904  0.3249 -0.9539  0.7356
15488TIP3    H267956   3.162   2.886  12.903 -0.8890  0.7597  1.7799
15489TIP3   OH267957   6.371   2.414   1.851 -0.2109 -0.5306  0.1230
15489TIP3    H167958   6.407   2.329   1.873 -1.0384 -1.3760 -1.6045
15489TIP3    H267959   6.424   2.476   1.901  0.7265 -2.0041  1.0364
15490TIP3   OH267960   0.462   0.365  11.392 -0.2313  0.2102  0.6734
15490TIP3    H167961   0.490   0.399  11.308  1.0675  0.2823  1.1204
15490TIP3    H267962   0.537   0.316  11.425 -0.3309  1.0686  2.2606
15491TIP3   OH267963   2.332   5.450   5.175 -0.4400  0.2315  0.3067
15491TIP3    H167964   2.362   5.408   5.094 -1.4297  0.2077 -0.0502
15491TIP3    H267965   2.254   5.401   5.200 -0.4993  0.6419  0.9364
15492TIP3   OH267966   0.054   4.990   5.783 -0.4184 -0.4725 -0.2759
15492TIP3    H167967  -0.027   4.951   5.816 -1.4774  1.9548  0.2306
15492TIP3    H267968   0.034   5.083   5.775  1.5604 -0.1323 -2.5364
15493TIP3   OH267969   3.035   0.026   3.152  0.1964 -1.0539 -0.2397
15493TIP3    H167970   2.953  -0.022   3.163  0.5033 -1.4372  0.3918
15493TIP3    H267971   3.057   0.015   3.059 -0.1332 -1.4859 -0.2683
15494TIP3   OH267972   2.060   3.637   5.656 -0.2797  0.0592 -0.0846
15494TIP3    H167973   1.999   3.656   5.584 -2.0293  1.2793  1.6251
15494TIP3    H267974   2.005   3.602   5.726  1.0862  0.5866  1.3143
15495TIP3   OH267975   4.237   4.557  12.932 -0.5419  0.2918 -0.3756
15495TIP3    H167976   4.298   4.488  12.958 -2.0668 -1.1079 -0.3996
15495TIP3    H267977   4.265   4.633  12.984  1.1262 -0.3219 -0.2921
15496TIP3   OH267978   2.955   4.992   5.428  0.3555 -0.1339 -0.0797
15496TIP3    H167979   2.881   4.954   5.476  0.0407  1.2364  0.6003
15496TIP3    H267980   2.965   4.937   5.351  0.3967 -1.9930  1.1778
15497TIP3   OH267981   2.043   6.681  11.636 -0.0380  0.0764 -0.1089
15497TIP3    H167982   2.087   6.766  11.624  0.7526 -0.4636 -1.2820
15497TIP3    H267983   2.115   6.617  11.637 -0.7387 -0.7566 -1.2635
15498TIP3   OH267984   5.098   6.704   5.488 -0.0913  0.2896 -0.1851
15498TIP3    H167985   5.138   6.618   5.501  1.7855  1.1538  0.1705
15498TIP3    H267986   5.147   6.743   5.416 -2.2573  0.3317 -1.7280
15499TIP3   OH267987   2.322   1.677  14.757 -0.7353  0.2406  0.2882
15499TIP3    H167988   2.256   1.745  14.742 -0.4231  0.5246  0.1999
15499TIP3    H267989   2.338   1.641  14.670  0.7477  1.5850 -0.0414
15500TIP3   OH267990   2.721   6.539  13.319  0.3258 -0.1853  0.4128
15500TIP3    H167991   2.727   6.624  13.363  1.4986  0.4487 -0.8982
15500TIP3    H267992   2.629   6.531  13.296 -0.1124 -0.0463  1.9834
15501TIP3   OH267993   4.384   0.359  16.034  0.2694  0.4050  0.0453
15501TIP3    H167994   4.411   0.373  16.125 -0.2769 -0.5325  0.3612
15501TIP3    H267995   4.333   0.437  16.012 -0.3747  0.2305  0.8539
15502TIP3   OH267996   6.820   5.658  14.845  0.0600  0.0867  0.3520
15502TIP3    H167997   6.792   5.653  14.936 -2.1786 -1.4407 -0.3569
15502TIP3    H267998   6.743   5.688  14.797  1.4716  1.8454 -0.9888
15503TIP3   OH267999   1.711   0.421  12.396  0.3484 -0.2121 -0.2237
15503TIP3    H168000   1.625   0.391  12.424 -0.0339  1.0363  0.0040
15503TIP3    H268001   1.767   0.405  12.472  0.0695 -0.0333  0.0255
15504TIP3   OH268002   3.408   1.918   4.893 -0.1928 -0.4041 -0.7647
15504TIP3    H168003   3.330   1.974   4.897 -0.8364 -1.1931 -1.6889
15504TIP3    H268004   3.469   1.967   4.838  0.4476  0.7498  0.9087
15505TIP3   OH268005   3.052   6.523  15.464  0.1394  0.0327 -0.1093
15505TIP3    H168006   3.077   6.606  15.504 -0.2762 -0.4881  1.3163
15505TIP3    H268007   3.069   6.458  15.531 -1.0315 -0.8380 -0.6090
15506TIP3   OH268008   2.038   1.559  16.169  0.1994  0.0976  0.3292
15506TIP3    H168009   2.133   1.553  16.162  0.1592  0.7760 -1.1722
15506TIP3    H268010   2.008   1.580  16.081 -1.2204  1.4331  1.0725
15507TIP3   OH268011   4.133   4.166  15.407 -0.5020 -0.1060  0.3348
15507TIP3    H168012   4.194   4.189  15.336 -0.8264  2.0790  0.6726
15507TIP3    H268013   4.188   4.166  15.486 -0.4208 -1.0431  0.2866
15508TIP3   OH268014   2.487   4.918   3.659 -0.2270  0.6089 -0.2097
15508TIP3    H168015   2.580   4.911   3.678 -0.3856  0.5753  0.5696
15508TIP3    H268016   2.482   4.916   3.563  0.4401 -0.9387 -0.2357
15509TIP3   OH268017   5.291   2.937  12.170 -0.3473 -0.1399  0.3269
15509TIP3    H168018   5.324   3.006  12.227 -1.9264  0.8146  0.1404
15509TIP3    H268019   5.368   2.906  12.122  0.4466  1.2713  0.6489
15510TIP3   OH268020   4.129   6.534  12.334 -0.1065 -0.4073 -0.3544
15510TIP3    H168021   4.079   6.534  12.252  1.4993  2.1002 -1.4441
15510TIP3    H268022   4.212   6.491  12.312  0.1229 -0.2149  0.1222
15511TIP3   OH268023   4.328   3.475  14.747 -0.1491  0.3958 -0.0902
15511TIP3    H168024   4.292   3.477  14.658  0.2055 -1.1264 -0.3011
15511TIP3    H268025   4.338   3.382  14.767  2.8622  0.6910  0.2833
15512TIP3   OH268026   2.917   1.417   2.846  0.0445 -0.2250  0.2080
15512TIP3    H168027   3.012   1.431   2.849  0.4608 -2.1208 -1.6724
15512TIP3    H268028   2.887   1.475   2.776 -0.1314  0.1187  0.5682
15513TIP3   OH268029   0.874   0.454  12.692 -1.2376 -0.6275  0.8783
15513TIP3    H168030   0.921   0.434  12.773 -0.8132  1.4317  1.1789
15513TIP3    H268031   0.940   0.446  12.624 -0.3602  2.0986  1.2809
15514TIP3   OH268032   0.772   4.316  11.126 -0.4380 -0.0983  0.6473
15514TIP3    H168033   0.691   4.283  11.088  0.1543  0.0872 -0.8744
15514TIP3    H268034   0.802   4.247  11.185 -0.1381 -1.5576 -1.1239
15515TIP3   OH268035   2.820   5.605  14.367 -0.0239  0.2797  0.1172
15515TIP3    H168036   2.843   5.696  14.384 -0.2333  0.4646 -0.5811
15515TIP3    H268037   2.795   5.603  14.275  0.1390 -0.5157  0.0854
15516TIP3   OH268038   5.609   0.409  12.849  0.2244  0.2187  0.2618
15516TIP3    H168039   5.669   0.357  12.904  0.5123  0.6343  0.3470
15516TIP3    H268040   5.659   0.488  12.829  0.4578 -0.3037 -1.3353
15517TIP3   OH268041   2.322   4.332  17.203 -0.3460  0.3424 -0.0098
15517TIP3    H168042   2.385   4.394  17.164 -0.7508  0.0141 -1.2341
15517TIP3    H268043   2.337   4.250  17.155  0.3035 -0.5923  1.7055
15518TIP3   OH268044   1.878   1.374  15.939  0.1479  0.2396 -0.2678
15518TIP3    H168045   1.905   1.327  16.018 -1.0817  1.2705  0.8156
15518TIP3    H268046   1.789   1.344  15.922  0.7792 -0.7919 -1.9507
15519TIP3   OH268047   2.604   3.630  13.287  0.0794 -0.1737  1.3291
15519TIP3    H168048   2.518   3.591  13.302  0.1260  0.1263  2.5040
15519TIP3    H268049   2.589   3.725  13.293 -0.2763  0.2050 -2.7204
15520TIP3   OH268050   2.168   4.122  14.094 -0.1364  0.0725 -0.5251
15520TIP3    H168051   2.177   4.217  14.091  0.6449  0.0801  0.9580
15520TIP3    H268052   2.206   4.091  14.011 -0.1696  1.0273 -0.9063
15521TIP3   OH268053   1.815   4.537   4.417  0.5678 -0.7375  0.0963
15521TIP3    H168054   1.768   4.465   4.458 -0.7467  0.9151  1.6861
15521TIP3    H268055   1.865   4.577   4.489 -1.3811  1.9137  0.1239
15522TIP3   OH268056   0.126   6.775   1.913  0.4638 -0.3458  0.2600
15522TIP3    H168057   0.182   6.840   1.954  1.6929 -0.9998 -0.3057
15522TIP3    H268058   0.051   6.824   1.881  1.0811  0.6912  0.3647
15523TIP3   OH268059   1.346   5.189  12.942  0.5190  0.3190  0.4924
15523TIP3    H168060   1.335   5.190  12.847  0.8558  0.1691  0.4512
15523TIP3    H268061   1.391   5.271  12.962 -0.1494  0.6689  0.6005
15524TIP3   OH268062   5.948   6.439   5.231 -0.3434 -0.2062 -0.7647
15524TIP3    H168063   5.911   6.425   5.318  1.9503  1.2830  0.5814
15524TIP3    H268064   5.973   6.352   5.200 -0.7843 -0.7123  0.2769
15525TIP3   OH268065   2.294   5.034  16.749  0.0624 -0.4343  0.3238
15525TIP3    H168066   2.251   4.984  16.680 -0.6270  1.1274 -0.4241
15525TIP3    H268067   2.287   4.978  16.827 -0.2323 -1.6924 -0.5825
15526TIP3   OH268068   2.968   3.167   6.306  0.1260  0.0588 -0.5201
15526TIP3    H168069   2.891   3.221   6.289  0.0028  0.8912  2.1987
15526TIP3    H268070   2.934   3.079   6.318 -0.0658 -0.0492 -1.7008
15527TIP3   OH268071   4.529   5.594   1.738  0.1024 -0.1254  0.5444
15527TIP3    H168072   4.608   5.543   1.756  1.5863  0.9969 -2.1072
15527TIP3    H268073   4.506   5.634   1.822  0.8044 -2.4909  1.9335
15528TIP3   OH268074   6.244   4.173   5.215  0.0859  0.4155  0.4988
15528TIP3    H168075   6.262   4.138   5.302  0.3458  0.4052  0.4405
15528TIP3    H268076   6.236   4.095   5.159 -2.7705  0.2270  0.9842
15529TIP3   OH268077   5.122   2.440   3.439 -0.7458  0.0138  0.0231
15529TIP3    H168078   5.140   2.401   3.525 -1.1388 -0.1254  0.0462
15529TIP3    H268079   5.057   2.508   3.458  0.7798  1.5022  0.1647
15530TIP3   OH268080   3.648   4.335  13.080  0.2808  0.3734 -0.4672
15530TIP3    H168081   3.730   4.309  13.122 -0.1132 -0.1822 -0.0242
15530TIP3    H268082   3.655   4.301  12.991  0.1461 -0.5112 -0.1547
15531TIP3   OH268083   4.006   2.281  17.263  0.1835 -0.4012  0.2615
15531TIP3    H168084   4.051   2.350  17.213  0.1604 -0.5497  0.0329
15531TIP3    H268085   3.933   2.326  17.306  0.0051 -0.3356 -0.1063
15532TIP3   OH268086   0.507   6.295   2.405  0.0794 -0.0260  0.3918
15532TIP3    H168087   0.430   6.339   2.369 -0.9345 -0.2620  2.1906
15532TIP3    H268088   0.569   6.293   2.332 -1.7847 -0.2687 -1.2591
15533TIP3   OH268089   0.694   6.295   2.197  0.4068  0.0323  0.2581
15533TIP3    H168090   0.740   6.359   2.142 -0.3844 -0.1653 -0.6565
15533TIP3    H268091   0.659   6.231   2.135  0.4953 -0.8475  1.1018
15534TIP3   OH268092   3.437   6.130  12.773 -0.3832 -0.2130  0.1790
15534TIP3    H168093   3.384   6.206  12.747  0.7068  0.4072 -0.3061
15534TIP3    H268094   3.516   6.169  12.811 -0.1217 -1.1167  0.5784
15535TIP3   OH268095   3.486   2.256   2.547  0.5219  0.3027 -0.6550
15535TIP3    H168096   3.427   2.192   2.588  0.7350  0.6837  0.2572
15535TIP3    H268097   3.428   2.328   2.520  0.5614  0.7037  0.2942
15536TIP3   OH268098   1.841   0.332  12.979  0.1484 -0.5844 -0.2280
15536TIP3    H168099   1.775   0.401  12.983  0.2931 -0.4403 -0.3000
15536TIP3    H268100   1.847   0.298  13.068  0.4555 -0.1445 -0.0806
15537TIP3   OH268101   5.908   2.138  10.368 -0.0609 -0.0323 -0.1754
15537TIP3    H168102   5.905   2.179  10.454  1.5819  0.7570 -0.4363
15537TIP3    H268103   5.909   2.211  10.307 -0.1826 -0.5487 -0.8054
15538TIP3   OH268104   2.692   3.203  12.333  0.5369  0.4231  0.0261
15538TIP3    H168105   2.690   3.181  12.426 -1.7579 -0.8140 -0.2566
15538TIP3    H268106   2.608   3.245  12.316  0.7724  0.3257 -1.5472
15539TIP3   OH268107   1.315   6.294   5.694  0.6222  0.3168  0.0781
15539TIP3    H168108   1.243   6.256   5.644 -0.0141 -0.8283  1.7761
15539TIP3    H268109   1.378   6.322   5.627 -0.6921 -0.0625 -1.3852
15540TIP3   OH268110   4.926   6.288   3.214 -0.0436  0.1949 -0.3614
15540TIP3    H168111   4.856   6.237   3.174 -0.3304 -0.4162  0.8861
15540TIP3    H268112   4.916   6.375   3.175 -1.4718  0.1097 -0.2536
15541TIP3   OH268113   3.449   0.169   3.982  0.3043  0.5937 -0.4038
15541TIP3    H168114   3.382   0.226   3.944 -0.0475 -0.6166 -1.6748
15541TIP3    H268115   3.486   0.220   4.054  0.0750  2.4565 -1.5522
15542TIP3   OH268116   1.231   0.757   4.640 -0.0274 -0.0949 -0.1154
15542TIP3    H168117   1.151   0.787   4.684  0.3403  0.6299  0.0812
15542TIP3    H268118   1.201   0.723   4.556 -0.5940 -0.2709  0.1533
15543TIP3   OH268119   1.551   0.897  11.704 -0.8950  0.6350 -0.3906
15543TIP3    H168120   1.526   0.975  11.753  2.3269  1.1929  0.6241
15543TIP3    H268121   1.605   0.930  11.632 -1.1241 -0.5444 -1.1335
15544TIP3   OH268122   3.580   6.312  16.605  0.6209  0.0372 -0.0340
15544TIP3    H168123   3.621   6.231  16.575 -1.9706 -0.9149 -1.3186
15544TIP3    H268124   3.488   6.303  16.580  0.2891  3.5769 -0.6375
15545TIP3   OH268125   0.049   0.078   6.233  0.1004  0.3151 -0.1103
15545TIP3    H168126  -0.011   0.080   6.158  0.8074  3.3334 -0.7467
15545TIP3    H268127   0.008   0.135   6.298  1.0648  0.3758  0.4551
15546TIP3   OH268128   3.142   4.839  11.153 -0.2298 -0.8315  0.1337
15546TIP3    H168129   3.119   4.932  11.141  0.7325 -0.3633  1.5898
15546TIP3    H268130   3.068   4.803  11.203 -0.4027 -0.7470 -0.0567
15547TIP3   OH268131   1.913   2.324   3.980  0.5365 -0.5051 -0.1739
15547TIP3    H168132   1.834   2.347   3.931  0.0171  0.6036  1.1274
15547TIP3    H268133   1.976   2.392   3.959 -0.3120  1.1015  2.0541
15548TIP3   OH268134   2.949   5.223   3.369 -0.0107  0.5482 -0.0325
15548TIP3    H168135   2.878   5.160   3.381 -0.4502  1.0337 -0.0697
15548TIP3    H268136   3.014   5.176   3.317 -1.1173  0.6832 -1.6159
15549TIP3   OH268137   1.701   5.086   4.827 -0.5489 -0.7905 -0.4073
15549TIP3    H168138   1.734   5.051   4.745 -1.6239 -0.4834 -1.0002
15549TIP3    H268139   1.609   5.106   4.809 -0.4128  0.7240  0.4038
15550TIP3   OH268140   4.068   6.632  16.762  0.2164  0.2633  0.2607
15550TIP3    H168141   4.026   6.561  16.715  0.0776  0.3964  0.1812
15550TIP3    H268142   4.031   6.628  16.850 -0.1552  0.5392  0.1187
15551TIP3   OH268143   2.159   4.864   4.400 -0.3320 -0.4132  0.0350
15551TIP3    H168144   2.210   4.880   4.320 -1.7641 -0.5436 -0.9305
15551TIP3    H268145   2.093   4.799   4.374 -2.5665  1.5158  0.5570
15552TIP3   OH268146   2.558   6.111   1.327 -0.0268 -0.7407 -0.2041
15552TIP3    H168147   2.520   6.035   1.284  0.9093 -1.7425  0.6580
15552TIP3    H268148   2.650   6.110   1.300  0.0586 -0.1053  0.0543
15553TIP3   OH268149   1.277   4.480   2.528  0.0139 -0.2043  0.1002
15553TIP3    H168150   1.328   4.538   2.583  0.2016  1.3934 -1.6698
15553TIP3    H268151   1.189   4.481   2.567  0.4711 -0.2176  1.1516
15554TIP3   OH268152   0.276   2.454   4.501  0.0376  0.2607 -0.1200
15554TIP3    H168153   0.264   2.547   4.520 -2.8289 -0.3440  1.7350
15554TIP3    H268154   0.196   2.429   4.454  0.4090 -1.3848  0.0735
15555TIP3   OH268155   1.970   0.195   0.256 -0.5097  0.3421 -0.2855
15555TIP3    H168156   1.930   0.168   0.339  0.6301  0.5918  0.3596
15555TIP3    H268157   1.929   0.138   0.191 -1.5564  0.2639  0.4077
15556TIP3   OH268158   5.953   3.560  13.679  0.1090 -0.2333 -0.3407
15556TIP3    H168159   6.014   3.628  13.708 -1.4512  0.7037  0.9443
15556TIP3    H268160   5.877   3.571  13.737 -0.7927 -2.1097 -1.1089
15557TIP3   OH268161   2.185   5.051   6.263 -0.3508  0.2600 -0.4963
15557TIP3    H168162   2.242   5.096   6.200  0.2110 -1.1355 -1.0295
15557TIP3    H268163   2.182   4.960   6.231 -1.9211  0.0441  0.2097
15558TIP3   OH268164   0.828   1.050   2.528 -0.6280 -1.3321 -0.3891
15558TIP3    H168165   0.750   1.101   2.551 -0.8582 -2.5861  1.9833
15558TIP3    H268166   0.900   1.093   2.574 -0.4203 -1.7932 -0.2777
15559TIP3   OH268167   2.956   5.271  15.753  0.1173 -0.3991  0.2294
15559TIP3    H168168   2.926   5.202  15.693  0.5804 -2.0117  1.7430
15559TIP3    H268169   2.883   5.281  15.815 -0.9353  2.2224 -1.2634
15560TIP3   OH268170   3.924   5.026   4.715 -0.3087 -0.0502  0.1569
15560TIP3    H168171   3.986   5.096   4.738  0.9184 -1.3052  0.8611
15560TIP3    H268172   3.844   5.049   4.762 -1.0597  2.5442 -2.1606
15561TIP3   OH268173   0.505   0.400  15.749  0.0703  0.3171  0.1111
15561TIP3    H168174   0.432   0.338  15.751 -1.1772  1.5996 -1.6098
15561TIP3    H268175   0.572   0.362  15.805 -0.6859 -2.4913 -0.7536
15562TIP3   OH268176   0.647   3.167  17.081 -0.4156  0.4273  0.2003
15562TIP3    H168177   0.716   3.167  17.148 -0.0582 -2.2245 -0.0449
15562TIP3    H268178   0.590   3.094  17.106 -3.2071  2.4894  0.3763
15563TIP3   OH268179   2.259   3.824   5.899  0.3117 -0.0943 -0.1148
15563TIP3    H168180   2.248   3.764   5.825  0.1004  0.4325 -0.5239
15563TIP3    H268181   2.173   3.865   5.909  0.6903  0.7995 -0.4395
15564TIP3   OH268182   4.472   6.368  12.195  0.2648 -0.0345  0.5711
15564TIP3    H168183   4.459   6.444  12.252 -0.1949 -0.1612  0.6356
15564TIP3    H268184   4.417   6.300  12.233 -0.8348  0.1621 -0.5889
15565TIP3   OH268185   0.997   5.043  12.037  0.9845  0.3273 -0.0252
15565TIP3    H168186   0.934   4.989  12.084  1.0840  0.9686  0.8786
15565TIP3    H268187   0.966   5.044  11.946 -1.3322  2.0246  0.6957
15566TIP3   OH268188   3.104   2.149  14.059  0.1568 -0.2636 -0.3342
15566TIP3    H168189   3.111   2.244  14.059  0.6597 -0.2976 -0.1416
15566TIP3    H268190   3.056   2.128  13.979  0.6326  0.1121 -0.7243
15567TIP3   OH268191   3.133   5.340   3.102 -0.4362  0.0561 -0.3815
15567TIP3    H168192   3.088   5.396   3.166  0.6062  1.5881 -0.9323
15567TIP3    H268193   3.075   5.265   3.091 -2.3464  1.4531 -0.3038
15568TIP3   OH268194   5.832   5.762  16.631  0.0534 -0.3465  0.0730
15568TIP3    H168195   5.883   5.788  16.708  0.6473  0.7633 -0.6621
15568TIP3    H268196   5.897   5.745  16.564 -0.5136  1.3961 -0.9787
15569TIP3   OH268197   5.461   5.431   4.122  0.2753 -0.4837 -0.0653
15569TIP3    H168198   5.381   5.397   4.162  0.2809 -0.6263 -0.1764
15569TIP3    H268199   5.532   5.388   4.169  0.2776 -0.9301 -0.4756
15570TIP3   OH268200   0.836   2.840   5.159 -0.3325  0.1450  0.0569
15570TIP3    H168201   0.779   2.873   5.229 -2.9162 -0.0302 -1.8240
15570TIP3    H268202   0.776   2.804   5.094  2.0417 -1.2216 -1.5299
15571TIP3   OH268203   1.717   2.518   3.892 -0.0691 -0.4855 -0.6821
15571TIP3    H168204   1.751   2.605   3.912  0.2276 -0.3504 -1.6913
15571TIP3    H268205   1.657   2.532   3.819 -2.5614 -0.6812  1.1910
15572TIP3   OH268206   6.398   2.233  14.047 -0.2261  0.1010  0.5106
15572TIP3    H168207   6.310   2.261  14.021 -0.1941 -0.6621 -0.4921
15572TIP3    H268208   6.450   2.314  14.048 -0.8668  0.5141  0.8190
15573TIP3   OH268209   5.308   4.823  15.951  0.8523  0.2585 -0.6606
15573TIP3    H168210   5.272   4.908  15.925  0.3068 -0.0275 -0.8598
15573TIP3    H268211   5.306   4.825  16.047  0.1961  0.2044 -0.6697
15574TIP3   OH268212   6.436   4.618  14.821 -0.3324  0.3810  0.9873
15574TIP3    H168213   6.472   4.553  14.882 -0.4235 -1.2108 -0.5871
15574TIP3    H268214   6.363   4.658  14.869 -0.4551 -0.8814  1.8950
15575TIP3   OH268215   2.984   3.428   3.725  0.2052 -0.6569 -0.6454
15575TIP3    H168216   2.935   3.437   3.807  1.3004  2.2259 -0.1951
15575TIP3    H268217   2.916   3.428   3.657 -0.5860  0.0722  0.1236
15576TIP3   OH268218   6.022   3.795  14.301 -0.2857  0.6494 -0.7571
15576TIP3    H168219   6.051   3.886  14.294 -0.2451  0.5680 -1.7923
15576TIP3    H268220   6.003   3.768  14.211 -0.6510 -0.2548 -0.4287
15577TIP3   OH268221   4.690   2.962   3.812  0.4835 -0.1310 -0.3588
15577TIP3    H168222   4.615   3.021   3.812 -0.8183 -1.6957  0.4435
15577TIP3    H268223   4.767   3.020   3.811 -0.7188  1.5291 -0.3348
15578TIP3   OH268224   0.221   2.196   3.008  0.2368  0.2853 -0.3688
15578TIP3    H168225   0.283   2.249   2.960 -0.1494  1.7373  0.6635
15578TIP3    H268226   0.217   2.113   2.960  1.7497  0.7463 -1.3369
15579TIP3   OH268227   2.182   0.101  15.483 -0.0438  0.0218 -0.4583
15579TIP3    H168228   2.106   0.145  15.443 -0.6027 -0.1674  0.3727
15579TIP3    H268229   2.238   0.173  15.512 -0.2383  0.1677 -0.4407
15580TIP3   OH268230   3.589   5.367   4.813 -0.4068 -0.1597 -0.5801
15580TIP3    H168231   3.611   5.293   4.869  1.7567  0.1625 -0.8945
15580TIP3    H268232   3.673   5.394   4.776 -1.5826  0.2682 -3.1996
15581TIP3   OH268233   3.994   4.982   1.639  0.0829 -0.0146 -0.0175
15581TIP3    H168234   3.941   4.972   1.560 -0.0033 -0.0340  0.0435
15581TIP3    H268235   3.998   4.894   1.677  0.4952 -0.0960 -0.2399
15582TIP3   OH268236   0.070   0.875   5.585  0.2521  0.1445 -0.1171
15582TIP3    H168237  -0.006   0.850   5.531 -0.1218  1.7132 -0.3655
15582TIP3    H268238   0.100   0.958   5.547  1.1381  0.3337  0.9488
15583TIP3   OH268239   5.464   6.033   4.729 -0.3017 -0.4737  0.6699
15583TIP3    H168240   5.504   5.949   4.705 -2.7894 -1.1675 -1.3835
15583TIP3    H268241   5.502   6.096   4.668  0.2268 -0.4291  1.0358
15584TIP3   OH268242   0.132   6.683  15.113  0.0934 -0.3718 -0.1652
15584TIP3    H168243   0.141   6.598  15.155  0.0664 -1.0668 -1.4995
15584TIP3    H268244   0.075   6.733  15.171  0.8537 -0.9251  1.1046
15585TIP3   OH268245   1.540   6.210   4.320 -0.3363  0.2320 -0.3254
15585TIP3    H168246   1.516   6.192   4.230  0.6955 -3.4153 -0.0163
15585TIP3    H268247   1.478   6.159   4.373 -0.4392  1.6766  1.0420
15586TIP3   OH268248   3.431   4.093   2.753 -0.5878 -0.1476 -0.1206
15586TIP3    H168249   3.457   4.108   2.662 -1.0351  1.2935 -0.0378
15586TIP3    H268250   3.367   4.022   2.749 -0.1387 -0.5277 -0.8396
15587TIP3   OH268251   6.322   1.496  11.521 -0.3519  0.6687 -0.1098
15587TIP3    H168252   6.414   1.470  11.533  0.1187  2.0885 -0.4314
15587TIP3    H268253   6.278   1.462  11.598  0.4725  0.0881  0.1257
15588TIP3   OH268254   2.140   0.412   3.402  0.4234  0.4500 -0.2014
15588TIP3    H168255   2.089   0.380   3.328 -0.7061  0.2042  0.6602
15588TIP3    H268256   2.137   0.507   3.393 -0.0796  0.4338 -0.2284
15589TIP3   OH268257   3.092   5.785  12.844 -0.6998  0.3847  0.2034
15589TIP3    H168258   3.040   5.707  12.864 -0.1483  0.2368  1.1054
15589TIP3    H268259   3.118   5.819  12.929  1.0829  0.1717 -0.2126
15590TIP3   OH268260   3.216   5.084   4.064  0.0577 -0.1920 -0.1836
15590TIP3    H168261   3.143   5.052   4.116  0.0136  0.9362  0.4778
15590TIP3    H268262   3.196   5.176   4.049  0.0376 -0.4975 -2.2797
15591TIP3   OH268263   4.675   0.811   4.455  0.5041  0.6642 -0.1311
15591TIP3    H168264   4.661   0.901   4.427  0.3189  0.7751  0.3002
15591TIP3    H268265   4.762   0.811   4.494  0.1479  0.8791  0.7020
15592TIP3   OH268266   1.398   3.904   2.244 -0.0620 -0.1280  0.3499
15592TIP3    H168267   1.387   3.993   2.278  0.0549 -0.1743  0.5101
15592TIP3    H268268   1.315   3.885   2.199 -0.0737  0.0739  0.2873
15593TIP3   OH268269   4.610   6.174  11.558  0.4807  0.1215  0.1814
15593TIP3    H168270   4.577   6.085  11.557 -1.8881  0.9323  0.6282
15593TIP3    H268271   4.606   6.203  11.467 -0.1745  0.2536  0.2496
15594TIP3   OH268272   6.103   3.659   6.071  0.2784 -0.2281 -0.1864
15594TIP3    H168273   6.164   3.720   6.113  1.3928 -1.3775 -0.0735
15594TIP3    H268274   6.144   3.573   6.082 -1.8815 -1.2122  0.8675
15595TIP3   OH268275   2.949   0.829  17.121 -0.4944  0.5310  0.1830
15595TIP3    H168276   2.986   0.916  17.140 -0.9015  0.4494  1.4035
15595TIP3    H268277   2.858   0.835  17.149 -0.4232 -0.4019  0.6421
15596TIP3   OH268278   3.699   3.672  11.122 -0.7221 -0.5428  0.1654
15596TIP3    H168279   3.727   3.755  11.161 -0.5552 -0.9321  0.8678
15596TIP3    H268280   3.628   3.697  11.062 -0.0045  0.2359 -0.3913
15597TIP3   OH268281   5.952   3.118   3.806 -0.1550  0.5135 -0.1660
15597TIP3    H168282   5.883   3.074   3.856  1.4986  2.0526  3.8137
15597TIP3    H268283   5.925   3.210   3.804  2.3410  1.4888  2.9923
15598TIP3   OH268284   1.022   3.274  13.428  0.2333  0.0195  0.5573
15598TIP3    H168285   0.979   3.303  13.508  0.3232 -1.5732  1.2302
15598TIP3    H268286   0.988   3.331  13.359 -1.7597 -0.1696  1.3310
15599TIP3   OH268287   0.157   4.884   4.675 -0.1624 -0.0233 -0.1238
15599TIP3    H168288   0.204   4.841   4.746 -1.4933  0.8960  1.3990
15599TIP3    H268289   0.213   4.958   4.650  0.2972 -0.3284 -0.0033
15600TIP3   OH268290   5.674   1.108   6.172  0.5999 -0.5491  0.1922
15600TIP3    H168291   5.758   1.067   6.192  1.5016 -0.7292 -3.3378
15600TIP3    H268292   5.685   1.200   6.196  1.1059 -0.9366  1.5043
15601TIP3   OH268293   5.090   2.627  11.750 -0.6282  0.4493 -0.5080
15601TIP3    H168294   5.127   2.714  11.763  0.3214  0.2394 -1.5978
15601TIP3    H268295   4.996   2.643  11.738 -1.2456  0.8737  3.5310
15602TIP3   OH268296   0.035   6.431  14.869  0.3963 -0.1465  0.0602
15602TIP3    H168297   0.087   6.374  14.925  1.6130  1.1403  0.3109
15602TIP3    H268298   0.035   6.388  14.784  1.8607 -0.2015  0.0682
15603TIP3   OH268299   2.212   1.117  14.244 -0.1917  0.3789 -0.7957
15603TIP3    H168300   2.124   1.136  14.210 -0.6152  2.6616  1.2943
15603TIP3    H268301   2.255   1.202  14.248  0.7529 -0.1335  1.6877
15604TIP3   OH268302   0.519   5.888   1.486 -0.3782 -0.7061 -0.2307
15604TIP3    H168303   0.478   5.804   1.463 -1.3328 -0.2016 -0.4097
15604TIP3    H268304   0.461   5.954   1.450 -2.9746  0.2681  4.8281
15605TIP3   OH268305   4.561   0.702   4.009  0.0836 -0.3017  0.6223
15605TIP3    H168306   4.528   0.780   3.965 -0.8519 -1.4008 -0.6926
15605TIP3    H268307   4.586   0.733   4.096 -0.4673  1.4125  0.2121
15606TIP3   OH268308   6.127   1.963   4.207 -0.3074  0.4863  0.0571
15606TIP3    H168309   6.190   1.960   4.136 -1.4232 -0.1192 -0.9430
15606TIP3    H268310   6.181   1.966   4.287  0.9670 -0.0384 -0.7555
15607TIP3   OH268311   3.710   1.051  14.063  0.2390  0.0640  0.0837
15607TIP3    H168312   3.763   0.983  14.106 -1.4420 -0.2274  1.8497
15607TIP3    H268313   3.620   1.019  14.071 -0.5116  2.0638  0.1277
15608TIP3   OH268314   1.318   1.123   2.272  0.5487 -0.5586 -0.3161
15608TIP3    H168315   1.223   1.127   2.258  0.2577 -1.3103  1.1876
15608TIP3    H268316   1.349   1.210   2.249 -0.8108  0.3335  1.0125
15609TIP3   OH268317   0.512   1.051   4.417 -0.2933  0.4378  0.0752
15609TIP3    H168318   0.580   1.032   4.352 -0.3943  0.3057  0.0049
15609TIP3    H268319   0.483   0.964   4.447  0.3157  0.5095  0.8965
15610TIP3   OH268320   5.767   0.769  16.943 -0.0620  0.4818  0.4148
15610TIP3    H168321   5.845   0.816  16.971 -0.0392  0.7454 -0.0809
15610TIP3    H268322   5.782   0.678  16.970 -1.1527  1.1298  3.5510
15611TIP3   OH268323   6.022   2.521   5.506  0.4559  0.0570  0.1810
15611TIP3    H168324   6.086   2.507   5.576  1.4453 -1.7275 -1.0212
15611TIP3    H268325   5.937   2.526   5.552  1.1897  0.1348  1.5866
15612TIP3   OH268326   4.038   5.690   2.448 -0.0971  0.1512 -0.3103
15612TIP3    H168327   3.985   5.627   2.497  0.3517 -0.5101 -0.6588
15612TIP3    H268328   4.104   5.636   2.403  0.0201  0.8265 -0.9631
15613TIP3   OH268329   4.022   1.430   5.983 -0.1583 -0.3702 -0.2301
15613TIP3    H168330   3.992   1.341   5.996  1.0706 -0.8872 -0.7852
15613TIP3    H268331   3.948   1.475   5.942 -0.4947 -1.3667 -0.7470
15614TIP3   OH268332   2.469   2.581  12.675  0.4660  0.0744 -0.3461
15614TIP3    H168333   2.411   2.634  12.622 -1.0464 -0.2227  0.9479
15614TIP3    H268334   2.519   2.644  12.727  1.0837  0.3170 -1.2097
15615TIP3   OH268335   3.529   0.037  14.569 -0.0741  0.1976  0.3576
15615TIP3    H168336   3.449   0.070  14.610 -0.1775 -0.1296  0.4253
15615TIP3    H268337   3.501   0.007  14.483 -0.6945 -2.7754  1.4644
15616TIP3   OH268338   0.626   2.354  15.309  0.2159 -0.5729  0.0029
15616TIP3    H168339   0.632   2.288  15.240  0.3367  0.0437 -0.5758
15616TIP3    H268340   0.683   2.425  15.280 -0.5335  0.1358  0.2413
15617TIP3   OH268341   2.987   2.255   1.139  0.0314 -0.1379 -0.0495
15617TIP3    H168342   3.005   2.227   1.049 -1.5157 -2.3298  0.2384
15617TIP3    H268343   2.917   2.320   1.130 -0.9856 -1.2457 -0.4033
15618TIP3   OH268344   0.546   1.059  13.050 -0.5967  0.4136  0.1006
15618TIP3    H168345   0.583   1.068  13.138 -0.2415  0.3728 -0.0420
15618TIP3    H268346   0.510   0.971  13.048  1.1052 -0.3219 -0.4162
15619TIP3   OH268347   5.784   3.465  12.673  0.2671  0.5646 -0.3173
15619TIP3    H168348   5.821   3.498  12.755 -1.5267  1.5564  0.1416
15619TIP3    H268349   5.839   3.503  12.604 -0.6948  3.2027  0.2621
15620TIP3   OH268350   3.715   5.167  15.379  0.2236 -0.1096 -0.3750
15620TIP3    H168351   3.771   5.233  15.420 -1.7254  2.6194 -1.7479
15620TIP3    H268352   3.742   5.165  15.287  0.8111 -1.9588 -0.2075
15621TIP3   OH268353   1.779   5.288   6.192 -0.3716  0.3487 -0.1699
15621TIP3    H168354   1.692   5.315   6.162 -1.7436 -2.9262  0.4361
15621TIP3    H268355   1.784   5.195   6.171  2.7471  0.2373  0.4924
15622TIP3   OH268356   2.142   3.113  11.405 -0.1222  0.6435 -0.4318
15622TIP3    H168357   2.142   3.156  11.491  0.7035 -1.7967  0.8967
15622TIP3    H268358   2.205   3.164  11.353  0.6348  1.2035  0.9671
15623TIP3   OH268359   4.921   4.051  12.024  0.1452  0.0976  0.3254
15623TIP3    H168360   4.896   4.013  11.939 -2.9794  0.3813  1.0053
15623TIP3    H268361   4.966   4.132  12.001  0.0828 -0.2309 -1.0735
15624TIP3   OH268362   6.732   2.993   2.149  0.5058  0.4720  0.3148
15624TIP3    H168363   6.745   2.905   2.114  0.8916  0.7933 -0.3863
15624TIP3    H268364   6.799   3.046   2.106  2.0862  0.6014  2.7538
15625TIP3   OH268365   3.378   1.090  15.445 -0.5043 -0.1936  0.1162
15625TIP3    H168366   3.393   1.182  15.423 -1.6855  0.1786  0.8107
15625TIP3    H268367   3.362   1.090  15.540  0.9588 -1.3113  0.4054
15626TIP3   OH268368   5.790   2.514   6.148  0.3363 -0.3550  0.2039
15626TIP3    H168369   5.784   2.559   6.233 -0.5986 -1.0056  0.5028
15626TIP3    H268370   5.820   2.426   6.170  2.3210  0.1367 -0.3970
15627TIP3   OH268371   6.712   3.974  13.147  0.1801  0.3578 -0.4529
15627TIP3    H168372   6.739   4.065  13.138 -1.6899  0.8776 -1.0581
15627TIP3    H268373   6.617   3.975  13.136 -0.1355 -1.4128  1.4019
15628TIP3   OH268374   2.618   4.694  16.183  0.0833 -0.3392 -0.1027
15628TIP3    H168375   2.699   4.739  16.157 -0.3007 -0.2625 -1.2401
15628TIP3    H268376   2.600   4.633  16.111  0.0688 -1.6373  0.9668
15629TIP3   OH268377   5.487   0.088  15.974 -0.1343 -0.2108  0.1070
15629TIP3    H168378   5.430   0.047  15.909 -1.5082 -0.2323  1.2724
15629TIP3    H268379   5.566   0.032  15.975 -0.3640 -0.5783 -1.0502
15630TIP3   OH268380   4.928   3.485   5.551  0.1102 -0.5225 -0.5618
15630TIP3    H168381   4.850   3.431   5.538  0.5214 -1.3966  0.5323
15630TIP3    H268382   4.938   3.532   5.468 -0.6018 -1.6697 -1.3222
15631TIP3   OH268383   2.067   2.254  13.875 -0.4252 -0.2570 -0.4892
15631TIP3    H168384   2.029   2.228  13.959 -0.1855  3.1156  0.8100
15631TIP3    H268385   2.008   2.320  13.840  0.0772 -0.7725 -2.4865
15632TIP3   OH268386   4.876   6.735  17.161 -0.4897  0.0641 -0.7371
15632TIP3    H168387   4.885   6.804  17.095  0.0963  0.3051 -0.4081
15632TIP3    H268388   4.782   6.719  17.166 -0.7978  1.9735  0.3349
15633TIP3   OH268389   3.420   6.195  12.515 -0.5102  0.1137  0.6261
15633TIP3    H168390   3.426   6.288  12.495  0.0419  0.8163  3.6002
15633TIP3    H268391   3.340   6.187  12.568 -0.1479 -0.9693  1.0456
15634TIP3   OH268392   0.596   0.831   5.408 -0.0918  0.0124 -0.0557
15634TIP3    H168393   0.605   0.909   5.462 -1.1230  0.4917 -0.5594
15634TIP3    H268394   0.523   0.783   5.447 -0.1243 -0.1868 -0.3634
15635TIP3   OH268395   2.027   6.634  14.102  0.0137 -0.3093  0.2849
15635TIP3    H168396   2.053   6.552  14.062  1.4884  0.3467 -0.1605
15635TIP3    H268397   2.027   6.616  14.196  0.4727 -0.7798  0.1971
15636TIP3   OH268398   3.440   2.324  11.220 -0.4282 -0.9862  0.4948
15636TIP3    H168399   3.518   2.270  11.233  0.1323 -0.2199  0.4049
15636TIP3    H268400   3.367   2.263  11.229  0.1952 -1.8205  0.0578
15637TIP3   OH268401   2.274   2.843   3.984 -0.2700 -0.2393  0.3177
15637TIP3    H168402   2.186   2.857   3.948 -0.2043  1.1993  0.6296
15637TIP3    H268403   2.269   2.879   4.073  0.7081  0.1629  0.2229
15638TIP3   OH268404   5.087   2.902  13.811  1.1474  0.2598 -0.5643
15638TIP3    H168405   5.161   2.862  13.765  2.2965  0.6265  0.8790
15638TIP3    H268406   5.114   2.904  13.903 -0.6688  0.4231  0.0063
15639TIP3   OH268407   0.050   0.154  16.794  0.3053 -0.5245 -0.3953
15639TIP3    H168408   0.103   0.220  16.749  0.4347  0.0662  0.6124
15639TIP3    H268409   0.048   0.080  16.733  0.7033  0.1564 -1.2571
15640TIP3   OH268410   0.641   5.580  13.810  0.3067 -0.0618  0.0407
15640TIP3    H168411   0.555   5.582  13.767 -0.3561 -0.7168  1.2892
15640TIP3    H268412   0.703   5.573  13.737 -0.8313 -2.1776 -0.8180
15641TIP3   OH268413   1.180   2.180   2.397 -0.3502  0.3238 -0.1690
15641TIP3    H168414   1.213   2.097   2.433  1.3881  1.1290  0.1573
15641TIP3    H268415   1.177   2.239   2.472 -1.3866  0.6494 -0.4437
15642TIP3   OH268416   6.709   3.369  12.418 -0.1392  0.0719  0.7649
15642TIP3    H168417   6.647   3.382  12.489  0.2947 -1.4991  1.4674
15642TIP3    H268418   6.692   3.281  12.387 -0.6899  0.9014 -1.4983
15643TIP3   OH268419   4.240   3.455   1.143 -0.1810  0.0127 -0.1435
15643TIP3    H168420   4.146   3.473   1.132 -0.3225 -1.0157 -0.7229
15643TIP3    H268421   4.247   3.415   1.229 -0.3699 -0.4925 -0.3594
15644TIP3   OH268422   1.483   0.072  16.216  0.2183 -0.2636  0.1006
15644TIP3    H168423   1.515   0.024  16.292  0.8811  1.5147  0.9971
15644TIP3    H268424   1.393   0.095  16.237 -0.1691 -1.2393 -0.4188
15645TIP3   OH268425   4.175   0.171  11.104 -0.4727 -0.2056 -0.2255
15645TIP3    H168426   4.265   0.154  11.131 -0.6471 -0.8248 -0.0251
15645TIP3    H268427   4.182   0.194  11.012  0.0697  1.4182  0.1940
15646TIP3   OH268428   2.623   6.033   3.350 -0.2645 -0.0996 -0.2533
15646TIP3    H168429   2.592   5.950   3.387 -0.7726  0.0643 -0.3059
15646TIP3    H268430   2.603   6.026   3.257  0.7783 -0.4055 -0.4656
15647TIP3   OH268431   5.295   0.330  13.011  0.0553  0.0467 -0.3685
15647TIP3    H168432   5.329   0.411  13.048 -2.0380  0.6206  0.4584
15647TIP3    H268433   5.245   0.359  12.934 -3.6123  0.1217  1.8072
15648TIP3   OH268434   0.376   4.820  13.754  0.6480 -0.0560  0.7009
15648TIP3    H168435   0.379   4.894  13.693  3.5124  0.8344  1.7236
15648TIP3    H268436   0.288   4.785  13.746  0.2026  1.4430 -2.2254
15649TIP3   OH268437   2.559   0.050   1.433 -0.4817  0.0514  0.1083
15649TIP3    H168438   2.545  -0.015   1.365  0.1968  0.7299 -0.6962
15649TIP3    H268439   2.530   0.133   1.395  2.3241  0.9078 -0.3975
15650TIP3   OH268440   1.756   1.593   0.749  0.3033  0.3413  0.3834
15650TIP3    H168441   1.765   1.532   0.823  1.1834  2.5771  2.2681
15650TIP3    H268442   1.823   1.659   0.765  0.5426  0.9255 -2.5017
15651TIP3   OH268443   3.297   0.529  15.238  0.4835 -0.4240 -0.0696
15651TIP3    H168444   3.292   0.448  15.186  1.1354 -1.1243  0.9426
15651TIP3    H268445   3.378   0.521  15.287  0.4408  0.7592  0.2040
15652TIP3   OH268446   5.381   6.772  13.440  0.5329  0.3372 -0.6478
15652TIP3    H168447   5.453   6.745  13.383  0.4177 -0.9747 -0.2117
15652TIP3    H268448   5.331   6.835  13.388 -0.1728 -1.5834 -2.4224
15653TIP3   OH268449   2.285   1.055  14.926  0.2323 -0.3871 -0.6138
15653TIP3    H168450   2.256   1.085  15.012  0.2717  0.0767 -0.7604
15653TIP3    H268451   2.315   1.134  14.881  0.2575 -0.6311 -1.0384
15654TIP3   OH268452   1.249   2.995  12.583  0.0914  0.2593 -0.9091
15654TIP3    H168453   1.197   3.066  12.546  0.0930  0.6453 -0.1832
15654TIP3    H268454   1.310   3.038  12.642  1.8360 -0.0855 -2.3498
15655TIP3   OH268455   6.375   0.024   1.552  0.8207  0.4117 -0.1583
15655TIP3    H168456   6.421  -0.058   1.535  0.5336  0.3291 -0.5349
15655TIP3    H268457   6.440   0.092   1.535  0.4359  0.3640 -2.0330
15656TIP3   OH268458   0.743   2.063   5.715 -0.5997 -0.2893  0.3264
15656TIP3    H168459   0.748   2.000   5.644  0.5524 -0.3423  0.4466
15656TIP3    H268460   0.812   2.126   5.696  0.6653 -1.0682  2.1228
15657TIP3   OH268461   6.481   4.462   1.596  0.2791  0.3335  0.1195
15657TIP3    H168462   6.471   4.521   1.670  1.8877  0.9873 -0.1466
15657TIP3    H268463   6.548   4.400   1.624 -0.1920 -0.3421 -0.2343
15658TIP3   OH268464   6.176   3.942  16.119 -0.7945 -0.2105  0.4393
15658TIP3    H168465   6.104   3.893  16.159 -0.0668  0.4037  2.6500
15658TIP3    H268466   6.253   3.886  16.131 -0.2142  0.8230  1.6916
15659TIP3   OH268467   2.115   2.870   1.527 -0.0865  0.0423  0.5219
15659TIP3    H168468   2.105   2.794   1.585 -2.3680  0.2996  0.5603
15659TIP3    H268469   2.084   2.944   1.579 -2.1538  0.2886 -0.9225
15660TIP3   OH268470   4.638   1.314   4.395  0.0311  0.8803 -0.2589
15660TIP3    H168471   4.699   1.387   4.404 -0.1424  0.9072  0.7635
15660TIP3    H268472   4.583   1.319   4.472  0.0887 -0.4018 -0.1109
15661TIP3   OH268473   3.003   3.276   4.406  0.6400 -0.2073 -0.5059
15661TIP3    H168474   2.929   3.280   4.467  0.6064  0.1296 -0.5665
15661TIP3    H268475   3.076   3.314   4.455  1.3117 -2.3268  0.2943
15662TIP3   OH268476   4.186   3.943  16.555 -0.2043 -0.1078  0.7523
15662TIP3    H168477   4.114   3.891  16.519 -0.5279 -0.4691  1.8854
15662TIP3    H268478   4.244   3.878  16.595  0.0293  0.2977  1.0755
15663TIP3   OH268479   6.626   6.607   5.970  0.1283 -0.3764 -0.0479
15663TIP3    H168480   6.648   6.540   6.035 -2.8907 -2.1028 -0.6271
15663TIP3    H268481   6.569   6.668   6.018  0.2268 -0.0407 -0.3557
15664TIP3   OH268482   0.128   4.067   4.425  0.1216  0.7912 -0.7576
15664TIP3    H168483   0.090   4.000   4.481  1.1046 -1.7621 -2.9058
15664TIP3    H268484   0.134   4.145   4.480  1.4822 -1.6148  2.8413
15665TIP3   OH268485   5.303   5.732   4.701  0.1043  0.8573 -0.0424
15665TIP3    H168486   5.278   5.750   4.791 -2.1862 -0.3434 -0.3433
15665TIP3    H268487   5.399   5.734   4.701  0.3686 -2.1557  3.1489
15666TIP3   OH268488   0.739   0.729   4.298 -0.0063  0.4236  0.3255
15666TIP3    H168489   0.786   0.655   4.259  1.3418  0.6106  1.5093
15666TIP3    H268490   0.802   0.801   4.295 -0.2422  0.7151  1.8520
15667TIP3   OH268491   1.454   5.641  16.735  0.2009  0.4210  0.1085
15667TIP3    H168492   1.478   5.619  16.644 -1.1619 -2.8892  0.4035
15667TIP3    H268493   1.382   5.703  16.726 -0.9662 -1.0149 -1.2174
15668TIP3   OH268494   0.635   3.774   4.836  0.5380  0.2066  0.1765
15668TIP3    H168495   0.647   3.681   4.854 -2.5699 -0.0972  1.3064
15668TIP3    H268496   0.601   3.777   4.747 -1.8146 -0.0721  0.9971
15669TIP3   OH268497   0.095   3.913  16.977 -0.2509  0.4367 -0.5935
15669TIP3    H168498   0.046   3.844  17.021 -0.5971  1.7455  1.2000
15669TIP3    H268499   0.187   3.892  16.995 -0.3946  1.0674  1.0098
15670TIP3   OH268500   5.081   5.328  16.051 -0.0350  0.5896 -0.2895
15670TIP3    H168501   5.032   5.358  15.974 -0.0236  0.4878 -0.3370
15670TIP3    H268502   5.114   5.409  16.091  1.5540  0.5832 -1.4589
15671TIP3   OH268503   5.396   0.043   3.042  0.4542 -0.1277  0.2187
15671TIP3    H168504   5.340   0.077   2.973  0.1546 -2.0910 -0.5914
15671TIP3    H268505   5.470   0.005   2.996  0.5481 -0.9443  1.0099
15672TIP3   OH268506   2.808   5.034  14.930 -0.0000 -0.5644  0.4423
15672TIP3    H168507   2.791   5.112  14.983  0.9677  0.5943 -0.8621
15672TIP3    H268508   2.737   5.034  14.865 -0.0650 -0.8332  0.5147
15673TIP3   OH268509   5.778   4.977  16.312  0.0508 -0.1642 -0.0673
15673TIP3    H168510   5.856   5.027  16.338  0.6246 -1.0420 -0.0517
15673TIP3    H268511   5.791   4.959  16.219 -0.1338 -0.3088 -0.0644
15674TIP3   OH268512   3.944   6.436   4.218 -0.2912 -0.6303 -0.2367
15674TIP3    H168513   3.977   6.500   4.154 -1.1779  0.2344  0.1519
15674TIP3    H268514   4.019   6.379   4.235 -0.0141 -0.8513 -2.0030
15675TIP3   OH268515   0.866   3.233   5.060  1.4350 -0.1698 -0.1636
15675TIP3    H168516   0.898   3.197   4.978  1.6504 -1.8615  0.6198
15675TIP3    H268517   0.856   3.327   5.043  1.9141 -0.4093 -1.9577
15676TIP3   OH268518   4.509   5.773  15.004 -0.3557  0.2916 -0.5664
15676TIP3    H168519   4.515   5.780  15.099  1.0384 -0.7405 -0.5481
15676TIP3    H268520   4.573   5.836  14.971 -0.0804 -0.1063 -0.7971
15677TIP3   OH268521   4.547   3.074   4.971 -0.1989  0.6038  0.4121
15677TIP3    H168522   4.489   3.140   5.012  0.3970  1.0473  0.5511
15677TIP3    H268523   4.498   2.992   4.979 -0.4262  0.8137  1.3304
15678TIP3   OH268524   2.068   3.151   4.204 -0.0171 -0.2865 -0.3007
15678TIP3    H168525   2.042   3.185   4.119  1.1522 -0.8521 -0.9072
15678TIP3    H268526   2.106   3.227   4.249 -3.5695  0.8838  1.0878
15679TIP3   OH268527   2.670   4.305   3.408  0.7158 -0.1538  0.6770
15679TIP3    H168528   2.631   4.220   3.388  2.4661 -0.6687 -0.9714
15679TIP3    H268529   2.631   4.365   3.344  1.8495 -0.4779 -0.3697
15680TIP3   OH268530   0.405   0.856   4.590  0.4250  0.3248 -0.2761
15680TIP3    H168531   0.315   0.887   4.587  0.0648 -0.6467 -3.4319
15680TIP3    H268532   0.401   0.765   4.559  2.4822  0.3009 -0.6520
15681TIP3   OH268533   3.790   2.079   0.455 -0.3649  0.0573 -0.0315
15681TIP3    H168534   3.879   2.078   0.490 -0.0580  1.3581 -0.7027
15681TIP3    H268535   3.798   2.042   0.367 -0.3730  0.7387 -0.3231
15682TIP3   OH268536   3.675   4.309   3.497 -0.8309 -0.6083  0.7972
15682TIP3    H168537   3.623   4.325   3.576  0.5550  1.3408  1.3953
15682TIP3    H268538   3.760   4.278   3.530 -1.0750 -2.4015 -0.1002
15683TIP3   OH268539   4.926   4.373   5.351 -0.0213  0.2828  0.2731
15683TIP3    H168540   4.958   4.372   5.441 -0.2151  0.7850  0.3539
15683TIP3    H268541   4.836   4.404   5.358  0.2402  1.2005 -0.1651
15684TIP3   OH268542   4.347   1.462   0.337  0.1308 -0.0648 -0.1178
15684TIP3    H168543   4.421   1.504   0.380  0.5331  0.2682 -1.1280
15684TIP3    H268544   4.271   1.511   0.368  0.3296 -0.3001  0.7915
15685TIP3   OH268545   1.907   5.871   4.757  0.5219  0.1627  0.0215
15685TIP3    H168546   1.888   5.959   4.788  0.1117 -0.3895  1.4131
15685TIP3    H268547   1.880   5.871   4.665  1.7065  1.8393 -0.3795
15686TIP3   OH268548   6.493   2.182   4.561 -0.0133 -0.1698 -0.7503
15686TIP3    H168549   6.484   2.106   4.618 -1.9147  1.2160  0.9450
15686TIP3    H268550   6.587   2.198   4.557  0.2392 -0.6495  1.6223
15687TIP3   OH268551   4.996   2.116  15.511 -0.2945 -0.1374  0.7462
15687TIP3    H168552   4.997   2.165  15.593  3.7460  1.2300  0.0951
15687TIP3    H268553   5.056   2.043  15.526 -0.0296 -0.2678 -0.8005
15688TIP3   OH268554   0.551   6.022  16.278  0.5220  0.0910  0.7251
15688TIP3    H168555   0.601   6.098  16.252  0.9260  0.7202  3.1153
15688TIP3    H268556   0.532   6.035  16.371 -3.1036 -0.6606  0.2779
15689TIP3   OH268557   0.337   6.696   0.720  0.0075  0.0814 -0.4422
15689TIP3    H168558   0.355   6.619   0.666  1.0589  0.3706 -0.5220
15689TIP3    H268559   0.388   6.766   0.680 -0.0326  0.5461  0.2978
15690TIP3   OH268560   5.296   1.917  13.756  0.3415  0.4869  0.1279
15690TIP3    H168561   5.284   1.904  13.850  0.5940  1.9990  0.4016
15690TIP3    H268562   5.346   1.840  13.727 -0.9788 -0.7182  0.9216
15691TIP3   OH268563   5.925   4.982  12.934  0.1078  0.0989  0.2097
15691TIP3    H168564   5.970   4.916  12.882 -0.1456  0.2324 -0.1861
15691TIP3    H268565   5.984   5.057  12.933  0.6029 -0.2740  1.0422
15692TIP3   OH268566   5.162   2.324  14.283 -0.5686 -0.2330 -0.4732
15692TIP3    H168567   5.151   2.235  14.247 -0.1979  0.0058 -1.1947
15692TIP3    H268568   5.085   2.371  14.250 -0.0202  0.0948 -1.3095
15693TIP3   OH268569   4.167   2.062   4.035 -0.5329  0.1404 -0.0945
15693TIP3    H168570   4.141   1.973   4.058 -2.5005  0.6020 -0.4048
15693TIP3    H268571   4.094   2.117   4.063  0.5595  1.6524 -0.0926
15694TIP3   OH268572   0.230   4.028  14.051 -0.2462 -0.4196 -0.2889
15694TIP3    H168573   0.280   4.006  13.973  0.7217  0.4804  0.0574
15694TIP3    H268574   0.230   4.124  14.054 -1.8726 -0.3845 -0.1885
15695TIP3   OH268575   4.481   0.796  15.002 -0.3206 -0.2339 -0.1044
15695TIP3    H168576   4.437   0.829  15.080 -0.4552  0.3795 -0.4317
15695TIP3    H268577   4.413   0.751  14.953 -0.0596 -1.3099  0.5096
15696TIP3   OH268578   6.081   5.583  11.335  0.7498  0.2494 -0.5747
15696TIP3    H168579   6.165   5.539  11.345  0.4430  0.0165  1.2900
15696TIP3    H268580   6.016   5.513  11.344  0.3197  0.5509 -1.2174
15697TIP3   OH268581   4.835   4.084   1.684  0.3468 -0.3184  0.0911
15697TIP3    H168582   4.922   4.057   1.712  0.5920  0.4519  0.0773
15697TIP3    H268583   4.780   4.072   1.762  0.0847 -2.4395 -0.3717
15698TIP3   OH268584   4.926   3.411   1.205 -0.1382  0.0975 -0.1718
15698TIP3    H168585   4.868   3.411   1.282 -0.9801  1.4581 -0.7676
15698TIP3    H268586   4.888   3.477   1.147  1.2511  0.0416 -1.1806
15699TIP3   OH268587   4.951   1.754   5.164 -0.0535 -0.8468  0.2292
15699TIP3    H168588   4.863   1.776   5.192  0.2815  2.9328 -1.0203
15699TIP3    H268589   5.003   1.755   5.244 -0.4612  1.4743  0.5298
15700TIP3   OH268590   1.639   1.220  13.339  0.0214 -0.1855 -1.2580
15700TIP3    H168591   1.720   1.262  13.309  0.3197 -0.7168 -1.2063
15700TIP3    H268592   1.570   1.264  13.290  0.2965  0.5916 -0.9681
15701TIP3   OH268593   4.804   4.394  14.985  0.0806  0.2651 -0.0589
15701TIP3    H168594   4.867   4.323  14.998  0.2572  0.4753  0.2405
15701TIP3    H268595   4.857   4.472  14.972 -0.1114  0.2406 -1.0082
15702TIP3   OH268596   1.887   4.347   1.730 -0.0607  0.4483  0.1427
15702TIP3    H168597   1.822   4.294   1.777  0.4808  1.1702  1.7666
15702TIP3    H268598   1.843   4.372   1.649 -1.2409 -0.3719  0.4998
15703TIP3   OH268599   3.673   2.174   3.246 -0.1383 -0.7011  0.5047
15703TIP3    H168600   3.666   2.187   3.341  0.3578 -1.4322  0.6531
15703TIP3    H268601   3.698   2.082   3.237  2.0492 -0.0945 -0.2293
15704TIP3   OH268602   3.132   3.771  11.479 -0.0921 -0.3685 -0.6639
15704TIP3    H168603   3.222   3.798  11.462 -0.1285 -0.8932 -1.7642
15704TIP3    H268604   3.102   3.731  11.397 -1.5418  0.3559 -0.5257
15705TIP3   OH268605   1.615   5.069   5.152  0.7131  0.1188  0.3132
15705TIP3    H168606   1.593   5.064   5.244 -0.5607 -1.3683 -0.0277
15705TIP3    H268607   1.537   5.107   5.110  1.9504  2.5280  0.0218
15706TIP3   OH268608   3.012   1.763  14.146 -0.0763 -0.0639  0.3136
15706TIP3    H168609   2.935   1.710  14.167  0.2014 -0.4905  0.2606
15706TIP3    H268610   3.029   1.746  14.054  0.1723 -0.0929  0.3636
15707TIP3   OH268611   0.780   4.209   1.357 -0.0012  0.2060 -0.2958
15707TIP3    H168612   0.827   4.154   1.420  0.3740  0.2428 -0.5433
15707TIP3    H268613   0.803   4.299   1.382  0.8076  0.2006 -0.9916
15708TIP3   OH268614   2.254   6.036   3.416  0.0430  0.1377 -0.5211
15708TIP3    H168615   2.219   6.115   3.375 -0.4576  0.1069 -0.1637
15708TIP3    H268616   2.211   6.032   3.501  0.2241 -0.4080 -0.4508
15709TIP3   OH268617   0.400   3.730   5.791 -0.4774 -0.4966 -0.0107
15709TIP3    H168618   0.410   3.747   5.884  1.5209 -1.4248 -0.0024
15709TIP3    H268619   0.465   3.788   5.749 -1.6875  0.2729 -0.8805
15710TIP3   OH268620   1.820   4.941  15.132 -0.1346 -0.6223 -0.0390
15710TIP3    H168621   1.776   4.870  15.086 -1.1255 -0.5792  0.7970
15710TIP3    H268622   1.858   4.995  15.063 -0.7009 -1.1199 -0.7534
15711TIP3   OH268623   4.980   4.605  11.947  0.7913 -0.2564  0.2666
15711TIP3    H168624   4.948   4.693  11.926 -0.2978 -0.2131  1.8895
15711TIP3    H268625   4.961   4.595  12.041  1.6904 -1.9009  0.3051
15712TIP3   OH268626   4.996   3.885  11.803  0.1092 -0.6092  0.0450
15712TIP3    H168627   4.961   3.951  11.744  0.7120  1.5004  1.9036
15712TIP3    H268628   4.988   3.802  11.755 -1.8102  0.6144 -1.8958
15713TIP3   OH268629   5.677   1.322  16.956 -0.2789  0.5916  0.2033
15713TIP3    H168630   5.682   1.300  16.863  0.3544  0.3989  0.2802
15713TIP3    H268631   5.649   1.413  16.958  1.5844  1.1962 -0.2259
15714TIP3   OH268632   2.331   3.321   5.539  0.2057  0.4698  0.2299
15714TIP3    H168633   2.340   3.378   5.615 -1.8370 -0.6213  1.3816
15714TIP3    H268634   2.237   3.320   5.521  0.3132 -1.5288 -0.5344
15715TIP3   OH268635   1.595   2.988   5.794  0.0125 -0.0560 -0.4671
15715TIP3    H168636   1.667   3.051   5.789 -1.9000  2.3729  0.5317
15715TIP3    H268637   1.630   2.915   5.845  1.5272  1.4063  0.6938
15716TIP3   OH268638   0.985   4.785   3.856  0.3636 -0.0358 -0.5505
15716TIP3    H168639   1.071   4.742   3.851  0.9704  1.2309 -1.8149
15716TIP3    H268640   0.972   4.822   3.769  0.2295  2.9353  0.6200
15717TIP3   OH268641   6.774   4.804   1.076  0.6022  0.1431 -0.8062
15717TIP3    H168642   6.837   4.744   1.117  0.5755  1.8809  2.0706
15717TIP3    H268643   6.808   4.892   1.097 -2.4447  1.1485  0.4273
15718TIP3   OH268644   0.735   6.555   0.432 -0.1963  0.4202 -0.0342
15718TIP3    H168645   0.651   6.511   0.446  0.2454 -0.0169  1.3981
15718TIP3    H268646   0.774   6.509   0.358 -0.7841 -0.0267 -0.0734
15719TIP3   OH268647   1.548   5.932   5.454  0.5674  0.2409 -0.0757
15719TIP3    H168648   1.569   5.974   5.537  1.0535 -0.7517  0.3225
15719TIP3    H268649   1.503   5.851   5.479  0.5081  0.0446 -0.7819
15720TIP3   OH268650   0.972   1.258  15.343 -0.1740  0.3634  0.1991
15720TIP3    H168651   0.998   1.262  15.251 -1.6342  1.2501 -0.2174
15720TIP3    H268652   1.046   1.293  15.391  0.6467 -0.1952 -0.6247
15721TIP3   OH268653   5.321   1.588   0.159 -0.1232  0.5840 -0.1549
15721TIP3    H168654   5.266   1.609   0.233  1.9483  0.8996  1.3946
15721TIP3    H268655   5.386   1.527   0.194  0.6716  0.4287 -1.7981
15722TIP3   OH268656   4.304   2.682  11.165  0.2188 -0.1721  0.2720
15722TIP3    H168657   4.375   2.746  11.157  0.0174  0.2094  1.2958
15722TIP3    H268658   4.275   2.667  11.075  0.4314  0.9990 -0.0122
15723TIP3   OH268659   5.710   1.422   0.554 -0.3074  0.1844 -0.3350
15723TIP3    H168660   5.700   1.515   0.575 -0.8934  0.4956 -1.8236
15723TIP3    H268661   5.802   1.414   0.527  0.3074 -0.1193  1.6807
15724TIP3   OH268662   6.564   2.604   1.957 -0.4973 -0.0658  0.2697
15724TIP3    H168663   6.537   2.676   1.899  0.3824 -0.9376 -1.2928
15724TIP3    H268664   6.659   2.612   1.961 -0.5283 -0.1277  1.5087
15725TIP3   OH268665   3.613   2.859   2.875 -0.1442  0.2061  0.4693
15725TIP3    H168666   3.696   2.814   2.859 -0.7173 -0.9171  0.5198
15725TIP3    H268667   3.549   2.788   2.884 -0.7971  0.9680  2.2991
15726TIP3   OH268668   2.085   5.692  14.103  0.2367 -0.1788 -0.5696
15726TIP3    H168669   2.097   5.760  14.037 -0.1292 -0.7259 -1.2194
15726TIP3    H268670   2.164   5.696  14.156  1.0027 -0.3923 -1.6618
15727TIP3   OH268671   0.990   4.957   0.773  0.3515  0.2444 -0.7848
15727TIP3    H168672   1.072   4.974   0.820  1.3347 -1.1531 -1.9160
15727TIP3    H268673   0.928   5.019   0.811  1.5523  0.3951  1.0823
15728TIP3   OH268674   4.891   0.880   4.129  0.3110  0.1992 -0.1712
15728TIP3    H168675   4.877   0.879   4.034 -1.1818  0.3020  0.0265
15728TIP3    H268676   4.900   0.973   4.150 -0.1470  0.2360 -0.1202
15729TIP3   OH268677   4.794   0.162   6.652 -0.2334 -0.4769  0.3844
15729TIP3    H168678   4.806   0.079   6.606 -0.7680 -1.0527  1.2492
15729TIP3    H268679   4.834   0.147   6.738 -1.6443 -0.3606  1.0848
15730TIP3   OH268680   4.155   5.023   5.009  0.3375 -0.5483  0.6148
15730TIP3    H168681   4.232   4.987   4.965 -0.7107 -0.1610 -1.6816
15730TIP3    H268682   4.172   5.117   5.014  0.5764 -0.6258  1.3247
15731TIP3   OH268683   4.185   0.329  11.509  0.1820  0.9445  0.7765
15731TIP3    H168684   4.138   0.290  11.435  0.1032  0.7664  0.9202
15731TIP3    H268685   4.138   0.411  11.527 -0.8380  0.1781  1.7093
15732TIP3   OH268686   4.499   0.081   5.838 -0.2776  0.2195 -0.7720
15732TIP3    H168687   4.436   0.129   5.892  1.0630  0.8333  0.3044
15732TIP3    H268688   4.499   0.127   5.754 -1.6086 -0.1071 -0.9851
15733TIP3   OH268689   0.323   5.331  12.015 -0.3402 -0.7009 -0.1990
15733TIP3    H168690   0.260   5.280  12.066 -0.3740 -2.5408 -1.9653
15733TIP3    H268691   0.403   5.278  12.016 -0.6844 -1.4126 -2.9648
15734TIP3   OH268692   2.166   6.286   5.446  0.4886  0.1824 -0.0315
15734TIP3    H168693   2.142   6.196   5.423  2.0870 -0.2165 -0.2365
15734TIP3    H268694   2.251   6.300   5.405  1.8288  0.6642  2.6753
15735TIP3   OH268695   3.194   0.656  15.492  0.0934  0.3056 -0.4567
15735TIP3    H168696   3.275   0.652  15.543 -0.8441  0.2029  1.0872
15735TIP3    H268697   3.221   0.635  15.403  1.4895 -1.5789  0.3416
15736TIP3   OH268698   5.048   3.579  16.890 -0.4280 -0.0033 -0.0478
15736TIP3    H168699   5.085   3.667  16.894  2.4770 -1.1369  0.3856
15736TIP3    H268700   5.021   3.560  16.980  0.8301 -0.2488  0.3014
15737TIP3   OH268701   4.504   5.243   6.055  0.6653 -0.9168  0.2617
15737TIP3    H168702   4.573   5.270   6.115  0.9436  1.6109 -1.0336
15737TIP3    H268703   4.423   5.276   6.095  0.6522 -0.7453  0.0987
15738TIP3   OH268704   4.701   5.384  15.797 -0.0850 -0.3328 -0.3310
15738TIP3    H168705   4.630   5.332  15.758  1.2828 -2.9425  0.4738
15738TIP3    H268706   4.656   5.444  15.857 -1.7697 -0.1142 -1.7129
15739TIP3   OH268707   0.854   2.336   0.867 -0.1301 -0.5500 -0.1956
15739TIP3    H168708   0.910   2.258   0.874 -0.1640 -0.6585 -1.0212
15739TIP3    H268709   0.857   2.359   0.774 -0.8561 -0.1042 -0.1117
15740TIP3   OH268710   0.781   2.049  13.458 -0.1387 -0.3465  0.2818
15740TIP3    H168711   0.686   2.036  13.450 -0.0704 -0.1785 -0.9094
15740TIP3    H268712   0.819   1.980  13.404  0.3019  2.3683 -3.2293
15741TIP3   OH268713   0.908   1.330  13.926  0.6194 -0.1635 -0.3409
15741TIP3    H168714   0.914   1.275  13.848 -0.7368  2.2738 -2.3261
15741TIP3    H268715   0.996   1.368  13.935  0.6577 -0.0463 -1.0766
15742TIP3   OH268716   3.210   6.669   3.713  0.5577  0.0724  0.2075
15742TIP3    H168717   3.302   6.690   3.703  1.2249 -1.8866  1.6932
15742TIP3    H268718   3.208   6.575   3.728 -1.6220  0.1686  0.9059
15743TIP3   OH268719   1.721   6.210  15.145 -0.4938 -0.3571 -0.1884
15743TIP3    H168720   1.730   6.283  15.084  0.9092  0.1551  0.6010
15743TIP3    H268721   1.780   6.143  15.111  0.5334  0.0515  0.7556
15744TIP3   OH268722   5.596   2.792   3.403 -0.5449  0.3207 -0.3685
15744TIP3    H168723   5.532   2.772   3.472 -0.4855 -0.3464 -0.5024
15744TIP3    H268724   5.670   2.831   3.450 -2.0268  3.6338 -0.4389
15745TIP3   OH268725   2.297   5.364  13.830  0.3470  0.5094 -0.1674
15745TIP3    H168726   2.238   5.430  13.796  0.2828  1.2197  1.2601
15745TIP3    H268727   2.293   5.374  13.925 -0.9410 -2.6193  0.2248
15746TIP3   OH268728   0.444   2.666   2.150  0.2922 -0.6174  0.0493
15746TIP3    H168729   0.519   2.697   2.201 -1.5053 -1.6269  3.6554
15746TIP3    H268730   0.398   2.746   2.125  0.6520 -0.0951  1.0054
15747TIP3   OH268731   1.744   2.580  16.863 -0.2314 -0.6954  0.0145
15747TIP3    H168732   1.720   2.552  16.952  1.3806 -0.3587  0.5897
15747TIP3    H268733   1.660   2.592  16.819 -1.1013 -0.3070  1.6620
15748TIP3   OH268734   5.705   1.895  13.804 -0.0329 -0.8355  0.4878
15748TIP3    H168735   5.686   1.986  13.826  1.2453 -0.3385 -0.3600
15748TIP3    H268736   5.673   1.884  13.714  2.9441 -0.1407 -0.7543
15749TIP3   OH268737   6.363   3.102  13.741 -0.9261 -0.2836 -0.7648
15749TIP3    H168738   6.444   3.075  13.785 -0.7358 -0.9345 -1.4810
15749TIP3    H268739   6.297   3.040  13.773 -1.0079 -0.1230 -0.6254
15750TIP3   OH268740   0.803   2.000  16.501  0.2073  0.7362 -0.7804
15750TIP3    H168741   0.870   1.935  16.480  0.1356  0.8402 -1.3320
15750TIP3    H268742   0.840   2.050  16.574 -0.8518 -1.7176  1.6591
15751TIP3   OH268743   3.298   0.723  12.316  0.2328  0.4281  0.2283
15751TIP3    H168744   3.382   0.696  12.353  0.4980  1.3780  0.3342
15751TIP3    H268745   3.305   0.700  12.223 -0.2243 -1.4519  0.6130
15752TIP3   OH268746   5.229   4.162  15.491  0.5494 -0.4544 -0.5677
15752TIP3    H168747   5.204   4.107  15.416 -0.6648 -0.9680  0.1744
15752TIP3    H268748   5.189   4.247  15.472 -1.2752 -1.0756  0.2799
15753TIP3   OH268749   1.171   6.516  13.508 -0.0608 -0.1675  0.1579
15753TIP3    H168750   1.122   6.523  13.591 -1.0599 -2.9254 -0.1041
15753TIP3    H268751   1.140   6.590  13.456 -0.8874  0.4890  1.5278
15754TIP3   OH268752   1.965   0.013   3.696 -0.1340 -0.0852  0.0276
15754TIP3    H168753   1.995   0.089   3.648  0.1083 -0.4462 -0.3979
15754TIP3    H268754   1.930   0.048   3.778  1.1807  0.3685  0.4149
15755TIP3   OH268755   0.714   0.254  12.424  0.2529 -0.3348 -0.1670
15755TIP3    H168756   0.748   0.168  12.449  2.9296  0.6291 -0.2249
15755TIP3    H268757   0.705   0.249  12.329 -2.9069 -1.5621  0.0462
15756TIP3   OH268758   4.114   6.389   3.159  0.2500 -0.0698  0.6158
15756TIP3    H168759   4.088   6.348   3.242 -1.0264 -0.1006  0.2233
15756TIP3    H268760   4.045   6.453   3.141 -0.0518 -0.7745 -0.9171
15757TIP3   OH268761   1.046   5.881  12.617 -0.1646 -0.0152 -0.4522
15757TIP3    H168762   1.015   5.793  12.634 -0.0366  0.1659  0.7761
15757TIP3    H268763   1.029   5.929  12.698  0.0364  1.0130 -1.0013
15758TIP3   OH268764   3.054   6.429   6.132 -0.2752 -0.2254 -0.3334
15758TIP3    H168765   2.980   6.421   6.192 -0.8696  2.1987 -0.6267
15758TIP3    H268766   3.050   6.349   6.079 -2.1260 -0.5951  0.2701
15759TIP3   OH268767   3.250   0.398   2.511 -0.3619 -0.0594  0.5421
15759TIP3    H168768   3.156   0.388   2.527 -0.8287  1.2609 -1.1586
15759TIP3    H268769   3.258   0.402   2.416  1.5791 -1.3073  0.5879
15760TIP3   OH268770   0.460   1.775  11.653  0.1165  0.2960 -0.0311
15760TIP3    H168771   0.507   1.694  11.668  0.7501  0.5266 -0.7114
15760TIP3    H268772   0.506   1.840  11.707 -0.6172  0.1482  0.8079
15761TIP3   OH268773   6.298   2.534  16.137 -0.6371  0.7194 -0.3292
15761TIP3    H168774   6.245   2.593  16.082 -0.7158  2.5063  1.5684
15761TIP3    H268775   6.234   2.493  16.195 -0.3065  0.4760 -0.1387
15762TIP3   OH268776   1.574   6.207   2.509  0.7023  0.5016  0.0769
15762TIP3    H168777   1.540   6.140   2.450  0.4080  0.5384  0.2022
15762TIP3    H268778   1.497   6.259   2.534  0.7229  0.1342  0.9412
15763TIP3   OH268779   1.168   2.351   0.323  0.0593 -0.0178  0.3430
15763TIP3    H168780   1.083   2.338   0.283  0.3942 -0.4455 -0.2523
15763TIP3    H268781   1.155   2.330   0.415 -1.0968  2.5244  0.8413
15764TIP3   OH268782   5.607   6.798   2.509 -0.3266 -0.3005  0.3483
15764TIP3    H168783   5.629   6.735   2.578  1.0109  0.5628  0.7366
15764TIP3    H268784   5.511   6.793   2.502 -0.3451 -1.5302  1.1667
15765TIP3   OH268785   3.290   6.678  12.729  0.2789 -0.8315  0.3225
15765TIP3    H168786   3.361   6.642  12.783  0.6962  0.1280  0.4466
15765TIP3    H268787   3.335   6.736  12.667 -0.3927 -0.1420  0.4631
15766TIP3   OH268788   1.269   6.251  13.460 -0.1137  0.1259  0.3394
15766TIP3    H168789   1.198   6.192  13.434  1.0150 -1.6396  1.0697
15766TIP3    H268790   1.225   6.334  13.479 -1.6642 -0.2027 -1.4930
15767TIP3   OH268791   4.008   5.120   2.610  0.4055 -0.3184 -0.2296
15767TIP3    H168792   4.041   5.207   2.628  0.1449 -0.1248 -0.6798
15767TIP3    H268793   3.919   5.120   2.646 -0.3655  0.2832 -2.0172
15768TIP3   OH268794   5.378   3.940  16.914 -0.4929 -0.2437  0.9020
15768TIP3    H168795   5.379   4.035  16.928 -2.4239 -0.4432  3.0339
15768TIP3    H268796   5.391   3.903  17.001 -2.4233 -1.8485  0.5886
15769TIP3   OH268797   2.219   6.073  13.663  0.2697 -0.5280  0.3002
15769TIP3    H168798   2.150   6.118  13.614  0.4588  0.9948  1.3639
15769TIP3    H268799   2.245   6.000  13.607 -0.6367  0.2024 -1.1195
15770TIP3   OH268800   4.632   1.280  10.785 -0.1930  0.1873 -0.3861
15770TIP3    H168801   4.677   1.320  10.859 -2.0998 -0.4394  1.1860
15770TIP3    H268802   4.613   1.191  10.813  1.8053 -1.1806 -2.8899
15771TIP3   OH268803   1.900   0.103   5.712 -0.6447 -0.3342  0.8396
15771TIP3    H168804   1.963   0.116   5.640  1.0374 -0.8912  2.1358
15771TIP3    H268805   1.815   0.122   5.673  0.0481 -1.8413 -1.6531
15772TIP3   OH268806   3.265   3.707   0.810 -0.2093 -0.0828 -0.2239
15772TIP3    H168807   3.173   3.710   0.783 -0.1176 -0.0496 -0.5348
15772TIP3    H268808   3.313   3.736   0.733  0.1106 -0.7787 -0.2931
15773TIP3   OH268809   5.672   0.676   0.348  0.0703 -0.2769 -0.4766
15773TIP3    H168810   5.592   0.723   0.371  0.4426  0.3677 -0.4926
15773TIP3    H268811   5.678   0.683   0.253  0.1726 -0.2809 -0.4709
15774TIP3   OH268812   0.120   5.289   5.439  0.4429 -0.1680 -0.2093
15774TIP3    H168813   0.185   5.319   5.502  0.7611  0.5883 -0.8759
15774TIP3    H268814   0.038   5.330   5.467  0.1240 -1.4926  0.9026
15775TIP3   OH268815   5.050   5.835  16.770 -0.5049 -0.1257 -0.2182
15775TIP3    H168816   5.128   5.844  16.715 -1.5923  1.6134 -1.5773
15775TIP3    H268817   5.031   5.924  16.800 -1.2352 -0.7150  1.1763
15776TIP3   OH268818   1.595   6.158   6.226 -0.1445 -1.1031  0.0431
15776TIP3    H168819   1.509   6.164   6.185  0.3211  3.1488 -0.8030
15776TIP3    H268820   1.577   6.142   6.318 -1.8388 -0.7735 -0.2021
15777TIP3   OH268821   2.484   1.871  14.255  0.5543 -0.1781  0.4787
15777TIP3    H168822   2.445   1.797  14.208  2.5913  0.2470 -2.1046
15777TIP3    H268823   2.435   1.948  14.223  2.6504  0.2458 -2.0553
15778TIP3   OH268824   2.578   4.826  12.203 -0.0252  0.7837 -0.7241
15778TIP3    H168825   2.669   4.832  12.174  0.6146  1.6119  1.2658
15778TIP3    H268826   2.537   4.766  12.141  2.3309 -1.1389 -0.5683
15779TIP3   OH268827   5.415   1.969  14.403  0.0742  0.0480  0.8148
15779TIP3    H168828   5.461   2.052  14.414 -1.1846  0.9199 -0.1554
15779TIP3    H268829   5.450   1.933  14.322  0.9072 -0.5844  1.4429
15780TIP3   OH268830   2.907   4.620   3.970 -0.3977 -0.3048 -0.2595
15780TIP3    H168831   2.816   4.647   3.967 -0.1426  0.7122  0.4413
15780TIP3    H268832   2.934   4.633   4.061  0.3621 -0.8898 -0.3813
15781TIP3   OH268833   5.124   0.359  15.565  0.5447 -0.2837  0.4772
15781TIP3    H168834   5.037   0.399  15.567  1.2019  1.3344 -0.9759
15781TIP3    H268835   5.112   0.273  15.606 -1.5077  0.3068  1.2253
15782TIP3   OH268836   2.187   2.902   4.224  0.1372 -0.2465 -0.3513
15782TIP3    H168837   2.177   2.878   4.317  0.4598  2.0069  0.3241
15782TIP3    H268838   2.150   2.990   4.218  1.3094  0.1688 -2.0957
15783TIP3   OH268839   0.727   2.998  16.542  0.3556  0.3590  0.8560
15783TIP3    H168840   0.736   2.983  16.636  2.7753  1.1316  0.8141
15783TIP3    H268841   0.751   3.090  16.530  1.6257 -0.1265 -0.6552
15784TIP3   OH268842   4.190   3.699  11.335  0.2607 -0.2671  0.2942
15784TIP3    H168843   4.113   3.704  11.391 -0.8962  0.6192 -1.2856
15784TIP3    H268844   4.192   3.607  11.306 -0.5846 -0.1699 -0.1213
15785TIP3   OH268845   6.529   4.270  14.477 -0.1069 -0.7211 -0.1385
15785TIP3    H168846   6.607   4.300  14.524 -1.4218  1.8922  0.5488
15785TIP3    H268847   6.526   4.176  14.496  2.4320 -0.7855  0.4170
15786TIP3   OH268848   4.610   4.548   2.578  0.0885 -0.2028 -0.1767
15786TIP3    H168849   4.547   4.477   2.592  0.4048 -0.2182  1.3835
15786TIP3    H268850   4.582   4.590   2.497 -1.3363 -0.8295 -0.0334
15787TIP3   OH268851   5.039   6.052   3.648 -0.2367 -0.1958 -0.7912
15787TIP3    H168852   4.978   6.011   3.587  0.2389 -0.0989 -1.3386
15787TIP3    H268853   5.025   6.146   3.635 -0.2840 -0.1757 -0.5954
15788TIP3   OH268854   3.648   3.155  14.414  0.1728 -0.1676  0.1245
15788TIP3    H168855   3.599   3.175  14.493  0.9260 -0.3928  0.6631
15788TIP3    H268856   3.734   3.195  14.428  0.8682 -1.5723  0.1603
15789TIP3   OH268857   4.612   1.989   2.007 -0.1481 -0.7598 -0.0489
15789TIP3    H168858   4.624   2.003   1.913 -1.4678 -1.7300 -0.3894
15789TIP3    H268859   4.521   2.014   2.024  0.8938  2.4709  1.6323
15790TIP3   OH268860   1.704   4.326  14.076  0.1198  0.1841 -0.3817
15790TIP3    H168861   1.681   4.415  14.104 -1.6205 -0.0947 -0.8444
15790TIP3    H268862   1.687   4.272  14.153  1.4004  0.2628 -0.0273
15791TIP3   OH268863   6.402   5.432   5.575  0.5221 -0.5559 -0.2602
15791TIP3    H168864   6.309   5.422   5.553  0.2574 -0.9669  0.9951
15791TIP3    H268865   6.441   5.471   5.497 -0.4848 -1.4621 -1.2489
15792TIP3   OH268866   1.566   5.011  16.557  0.2020 -0.6523 -0.2415
15792TIP3    H168867   1.486   5.041  16.513 -0.0242 -1.3198 -0.2937
15792TIP3    H268868   1.635   5.025  16.492  0.3780  1.2983  0.3248
15793TIP3   OH268869   5.359   4.927   3.069 -0.2756  0.2662 -0.1968
15793TIP3    H168870   5.375   4.833   3.065 -0.9017  0.1157  0.5125
15793TIP3    H268871   5.285   4.941   3.009  0.1222  0.3832 -0.6633
15794TIP3   OH268872   3.471   4.168   5.146  0.4116 -0.1088  0.1561
15794TIP3    H168873   3.531   4.140   5.078  0.6541 -2.5569  1.2792
15794TIP3    H268874   3.400   4.104   5.144 -0.9957  1.3738  0.4208
15795TIP3   OH268875   1.391   1.190  15.950  0.2894  0.3041  0.6945
15795TIP3    H168876   1.356   1.277  15.969  1.2575  0.5577  1.3728
15795TIP3    H268877   1.482   1.204  15.927 -0.0564 -0.3371 -1.2425
15796TIP3   OH268878   2.343   2.100   1.383  0.0791  0.1944 -0.4512
15796TIP3    H168879   2.377   2.190   1.381 -1.4262  0.8815 -3.6156
15796TIP3    H268880   2.413   2.047   1.346 -0.1608  0.7045 -1.7379
15797TIP3   OH268881   3.123   5.107  12.774  0.2392 -0.1730  0.5552
15797TIP3    H168882   3.176   5.027  12.776 -0.6204 -0.7556  1.6993
15797TIP3    H268883   3.134   5.141  12.685  1.4426 -0.9975  0.3609
15798TIP3   OH268884   2.632   1.014  16.166 -0.8561 -0.0647  0.1393
15798TIP3    H168885   2.542   1.010  16.136 -0.4143 -2.0421 -1.0413
15798TIP3    H268886   2.649   1.108  16.178 -2.2599  0.5451 -2.1089
15799TIP3   OH268887   0.267   4.676   3.018  0.3752 -0.5550 -0.0243
15799TIP3    H168888   0.318   4.660   2.938  1.2063 -2.0537  0.7762
15799TIP3    H268889   0.203   4.742   2.992  0.8027 -0.8089 -1.8571
15800TIP3   OH268890   3.822   1.482   0.529 -0.7890  0.0644  0.3949
15800TIP3    H168891   3.788   1.440   0.450  4.4107 -1.2334 -1.5807
15800TIP3    H268892   3.796   1.424   0.600 -1.3471 -1.6085 -1.0870
15801TIP3   OH268893   2.436   0.784   4.062 -0.2580  0.8405 -0.3664
15801TIP3    H168894   2.427   0.751   3.973 -2.4074  1.3597 -0.3783
15801TIP3    H268895   2.422   0.879   4.055  0.2821  0.9928  0.4314
15802TIP3   OH268896   6.703   6.565   2.673 -0.3066  0.1341 -0.3251
15802TIP3    H168897   6.714   6.556   2.579 -0.8356 -0.0748 -0.3724
15802TIP3    H268898   6.609   6.552   2.687 -0.1064 -0.7356  0.3201
15803TIP3   OH268899   4.352   4.800   2.428  0.0051 -0.3856 -0.2194
15803TIP3    H168900   4.332   4.891   2.405 -1.0910 -0.6230 -0.2818
15803TIP3    H268901   4.283   4.776   2.490  0.4287 -1.0983 -0.0199
15804TIP3   OH268902   0.798   4.184   4.583 -0.0589 -0.2494  0.6681
15804TIP3    H168903   0.837   4.117   4.638  0.4042 -0.4744  0.0833
15804TIP3    H268904   0.850   4.263   4.600  0.7765 -0.5877 -0.2249
15805TIP3   OH268905   3.213   5.496  16.805  0.0977 -0.0418  0.0096
15805TIP3    H168906   3.200   5.581  16.763  0.1192  0.0591  0.2084
15805TIP3    H268907   3.221   5.434  16.732  1.0204  0.2578 -0.1633
15806TIP3   OH268908   1.915   5.571  13.564  0.4329 -0.3586 -0.2043
15806TIP3    H168909   1.881   5.520  13.491 -0.4840 -0.3430  0.1961
15806TIP3    H268910   1.886   5.661  13.546  0.3762 -0.3201  0.0680
15807TIP3   OH268911   0.300   2.839  13.029 -0.0236  0.0481 -0.1891
15807TIP3    H168912   0.292   2.820  13.123 -0.8382 -1.4589 -0.5271
15807TIP3    H268913   0.276   2.931  13.021  0.3920  0.2973  1.1195
15808TIP3   OH268914   0.760   3.290   1.340  0.0960 -0.0736 -0.1004
15808TIP3    H168915   0.801   3.206   1.361 -4.4119 -2.7921 -0.7978
15808TIP3    H268916   0.772   3.300   1.246 -0.0234 -0.4188 -0.1559
15809TIP3   OH268917   0.520   4.496   5.887 -0.2403  0.2642  0.1800
15809TIP3    H168918   0.565   4.563   5.835 -0.0805  0.8227  0.9947
15809TIP3    H268919   0.472   4.546   5.953 -0.2593 -0.4228  0.6991
15810TIP3   OH268920   4.069   0.029   2.416 -0.1649 -0.2578  0.2308
15810TIP3    H168921   3.974   0.027   2.423 -0.4142 -3.3278 -2.1129
15810TIP3    H268922   4.092   0.122   2.427 -3.2291  0.4298  1.9846
15811TIP3   OH268923   1.729   5.949   0.015  0.5653 -0.2703 -0.3858
15811TIP3    H168924   1.636   5.964   0.032  0.6837  0.3224 -0.2141
15811TIP3    H268925   1.747   5.862   0.051 -0.0458 -0.6217 -0.9314
15812TIP3   OH268926   4.587   5.155  15.950 -0.1201 -0.1711 -0.7929
15812TIP3    H168927   4.674   5.118  15.936 -0.1467  0.1582 -1.9047
15812TIP3    H268928   4.603   5.243  15.983 -0.0491 -0.5150  0.1207
15813TIP3   OH268929   1.563   4.629   5.109  0.1292 -0.0863  0.1241
15813TIP3    H168930   1.597   4.591   5.028  1.4450 -0.6286  0.8914
15813TIP3    H268931   1.518   4.557   5.153  0.4823 -0.1213  0.4340
15814TIP3   OH268932   2.266   5.732   0.783 -0.0275  0.2160  0.1492
15814TIP3    H168933   2.281   5.680   0.862  1.9529 -0.2076 -0.4491
15814TIP3    H268934   2.344   5.716   0.729 -1.5241  0.0883 -2.1130
15815TIP3   OH268935   5.741   3.282   3.145 -0.8042  0.0158 -0.1140
15815TIP3    H168936   5.757   3.190   3.169  2.6866  0.4777 -0.2019
15815TIP3    H268937   5.709   3.278   3.055  0.2275 -1.1198 -0.4620
15816TIP3   OH268938   2.766   2.131   4.237 -0.6021 -0.2229  0.2089
15816TIP3    H168939   2.808   2.088   4.311 -0.9971  0.5681  0.9211
15816TIP3    H268940   2.805   2.090   4.160 -1.8130 -2.6816  0.8087
15817TIP3   OH268941   2.844   6.035  12.922 -0.1836  0.1824  0.1407
15817TIP3    H168942   2.908   5.966  12.904 -0.7515 -0.2231 -0.3570
15817TIP3    H268943   2.798   6.047  12.839 -1.5359 -0.3487  0.7923
15818TIP3   OH268944   3.091   3.645   4.494 -0.4458  0.3198  0.3131
15818TIP3    H168945   3.118   3.568   4.544 -2.3245 -0.2369  0.5313
15818TIP3    H268946   3.148   3.644   4.417 -0.6319 -1.4749  0.1463
15819TIP3   OH268947   0.889   6.128   3.260 -0.0768 -0.5576  0.2987
15819TIP3    H168948   0.948   6.063   3.222 -1.7822 -0.7405 -2.2764
15819TIP3    H268949   0.838   6.161   3.186 -1.0588  1.8695  1.9170
15820TIP3   OH268950   0.766   1.750  13.528 -0.1472 -0.2489  0.0060
15820TIP3    H168951   0.826   1.760  13.454 -1.4057 -2.1142 -1.3628
15820TIP3    H268952   0.690   1.803  13.506  0.0076  0.2297  0.6031
15821TIP3   OH268953   1.805   2.256  14.772 -0.1694  0.3601 -0.5068
15821TIP3    H168954   1.866   2.234  14.702 -0.7378  1.8277 -1.5154
15821TIP3    H268955   1.848   2.326  14.821 -0.4026  0.3637 -0.3028
15822TIP3   OH268956   1.154   2.585  12.331  0.0991 -0.6148  1.2505
15822TIP3    H168957   1.150   2.525  12.405 -0.4023 -2.3660 -0.1446
15822TIP3    H268958   1.084   2.648  12.348  0.8661 -0.1466  2.9104
15823TIP3   OH268959   4.708   2.391   3.423  0.1900  0.0646  0.5064
15823TIP3    H168960   4.772   2.459   3.442  1.9310 -1.5002  0.4271
15823TIP3    H268961   4.718   2.327   3.493  2.3356 -2.6874 -2.0563
15824TIP3   OH268962   0.566   0.865  15.202 -0.1934  0.4897 -0.0652
15824TIP3    H168963   0.497   0.922  15.236 -0.5692 -0.3651  0.6331
15824TIP3    H268964   0.640   0.924  15.185 -1.5147  1.6665 -2.1706
15825TIP3   OH268965   6.683   4.271  15.173 -0.2856  0.4588  0.0464
15825TIP3    H168966   6.758   4.328  15.155 -0.2826  0.7763  1.0007
15825TIP3    H268967   6.716   4.183  15.156  0.2579  0.6079  0.2945
15826TIP3   OH268968   3.885   5.176  11.347 -0.2210  0.2888  0.3034
15826TIP3    H168969   3.960   5.177  11.288  0.2365 -2.3406  0.6907
15826TIP3    H268970   3.827   5.108  11.310 -0.2156 -0.9832  2.4619
15827TIP3   OH268971   3.697   1.544  12.101 -0.1389 -0.0943 -0.2179
15827TIP3    H168972   3.747   1.467  12.129  0.1575 -0.4917 -1.7454
15827TIP3    H268973   3.606   1.521  12.117  0.0058 -0.3923  0.1939
15828TIP3   OH268974   4.983   3.045   5.801  0.0482 -0.1176  0.3127
15828TIP3    H168975   4.974   2.996   5.720 -0.0857 -2.1616  1.4912
15828TIP3    H268976   5.005   3.134   5.774  0.9136 -0.9578 -1.9193
15829TIP3   OH268977   4.990   2.757   0.151  0.8085 -0.3814 -0.0566
15829TIP3    H168978   4.951   2.669   0.160 -0.8983  0.3056 -0.2441
15829TIP3    H268979   5.080   2.741   0.125  0.2393 -2.0869 -1.1649
15830TIP3   OH268980   0.285   3.963  13.563  0.0146  0.5065  0.2669
15830TIP3    H168981   0.193   3.936  13.560 -0.5292  2.1338  1.2565
15830TIP3    H268982   0.297   4.015  13.484 -0.1762  1.0118  0.5629
15831TIP3   OH268983   4.046   6.690   1.785 -0.5895  0.3110  0.1113
15831TIP3    H168984   4.123   6.731   1.825 -1.2052  1.2625  0.3712
15831TIP3    H268985   3.984   6.763   1.773 -1.4219 -0.4226 -0.1488
15832TIP3   OH268986   5.574   3.184   1.082 -0.0773  0.7299 -0.4425
15832TIP3    H168987   5.553   3.141   1.165 -1.0886 -1.4725 -1.7683
15832TIP3    H268988   5.505   3.249   1.070 -0.5792  0.2729 -0.0866
15833TIP3   OH268989   0.431   0.815  14.886 -0.0353 -0.3749  0.8780
15833TIP3    H168990   0.383   0.878  14.941  0.6821  0.3138  0.7255
15833TIP3    H268991   0.523   0.833  14.904  0.2683  0.6316 -1.3664
15834TIP3   OH268992   1.931   6.247  12.606  0.3108  0.0289  0.0186
15834TIP3    H168993   1.975   6.163  12.618 -1.6126 -0.7207  2.5327
15834TIP3    H268994   1.861   6.229  12.543  2.1646  0.7337 -2.3692
15835TIP3   OH268995   4.555   4.577   3.454 -0.3151 -0.2408 -0.1204
15835TIP3    H168996   4.646   4.548   3.447 -0.7416 -1.6448 -0.2323
15835TIP3    H268997   4.528   4.594   3.364  0.0559  0.9629 -0.0216
15836TIP3   OH268998   6.332   6.815   2.441 -0.1226  0.0135  0.4053
15836TIP3    H168999   6.259   6.768   2.399 -0.0401 -1.0172  1.3609
15836TIP3    H269000   6.385   6.846   2.368 -0.0026 -1.7043 -0.2912
15837TIP3   OH269001   1.054   0.312   6.672  0.6660  0.7472 -0.2744
15837TIP3    H169002   1.024   0.225   6.695 -0.0082  0.4504 -2.0963
15837TIP3    H269003   1.021   0.369   6.742  1.3743 -0.4570  1.0931
15838TIP3   OH269004   4.367   2.353   1.989  0.2924 -0.1557  0.2022
15838TIP3    H169005   4.456   2.343   2.020  0.2674 -2.0911 -0.2222
15838TIP3    H269006   4.313   2.349   2.068  0.5044 -0.3035  0.3408
15839TIP3   OH269007   1.824   5.471   5.516 -0.3493  0.3061 -0.7654
15839TIP3    H169008   1.879   5.420   5.576 -1.2620 -1.4370 -1.3349
15839TIP3    H269009   1.847   5.438   5.429 -2.3919 -0.6418 -1.0084
15840TIP3   OH269010   0.937   2.848   2.337 -0.6810 -0.0596 -0.0877
15840TIP3    H169011   0.953   2.858   2.431  0.8251 -0.2455 -0.3000
15840TIP3    H269012   1.023   2.828   2.300 -0.8844  1.8462 -1.7618
15841TIP3   OH269013   0.480   6.005   4.277  0.4202 -0.0043 -0.0328
15841TIP3    H169014   0.462   5.975   4.188  0.7120 -0.2686 -0.0080
15841TIP3    H269015   0.518   6.092   4.267  1.0873 -0.3103 -0.2129
15842TIP3   OH269016   0.899   5.858  16.315 -0.1772 -0.3661 -0.3658
15842TIP3    H169017   0.856   5.907  16.386 -1.8109  0.1486 -1.6671
15842TIP3    H269018   0.903   5.768  16.347  0.2266  0.0647  0.8648
15843TIP3   OH269019   5.781   2.819   5.265 -0.5864 -0.0518  0.0940
15843TIP3    H169020   5.858   2.775   5.299 -0.9507 -0.0857  0.8875
15843TIP3    H269021   5.814   2.903   5.232 -0.3787  0.4577  1.5211
15844TIP3   OH269022   5.377   3.217   3.829  0.1807  0.2210 -0.0120
15844TIP3    H169023   5.412   3.305   3.840 -0.7945  0.6144  0.0353
15844TIP3    H269024   5.366   3.184   3.918  0.2895  0.1502 -0.0241
15845TIP3   OH269025   5.980   1.736   4.338 -0.4356  0.0686  0.0881
15845TIP3    H169026   6.041   1.695   4.399 -0.9533 -0.9979 -0.0870
15845TIP3    H269027   5.992   1.830   4.351 -0.7437 -0.1245  2.0292
15846TIP3   OH269028   2.211   1.524   1.664  0.1971  0.3026 -0.0289
15846TIP3    H169029   2.302   1.495   1.659 -0.0476 -0.4430 -0.3812
15846TIP3    H269030   2.202   1.589   1.595  0.2529 -0.2628 -0.5848
15847TIP3   OH269031   6.601   0.950   3.606 -0.1392 -0.5775  0.0128
15847TIP3    H169032   6.573   0.861   3.589  0.9295 -1.0516  0.6363
15847TIP3    H269033   6.693   0.942   3.633  0.0346  0.7199 -0.0934
15848TIP3   OH269034   4.008   5.127   3.237 -0.2560  0.0945  0.0909
15848TIP3    H169035   3.916   5.105   3.252  0.2018 -1.2233  1.2026
15848TIP3    H269036   4.057   5.064   3.290  1.3017  0.6847 -0.5676
15849TIP3   OH269037   4.917   2.123   0.006  0.1202 -0.2999  0.2392
15849TIP3    H169038   4.897   2.038   0.045  2.2893 -0.9289  0.0895
15849TIP3    H269039   4.872   2.186   0.063  0.0237 -1.4278  1.4660
15850TIP3   OH269040   1.351   5.383   5.868 -0.1355 -0.0376 -0.0027
15850TIP3    H169041   1.282   5.379   5.935 -0.0715 -1.1886  0.0250
15850TIP3    H269042   1.334   5.465   5.822 -0.4417  0.5768  1.1394
15851TIP3   OH269043   1.076   3.304   5.412  0.3531  0.0236 -0.7850
15851TIP3    H169044   1.155   3.339   5.453  0.7736  0.4857 -1.9447
15851TIP3    H269045   1.101   3.219   5.377 -0.3885 -1.0161  1.1154
15852TIP3   OH269046   0.798   3.161  12.817  0.0649  0.2257  0.5174
15852TIP3    H169047   0.725   3.101  12.829  0.3571 -0.5751 -1.3065
15852TIP3    H269048   0.832   3.175  12.905 -1.6751 -0.1318  1.2963
15853TIP3   OH269049   1.079   1.377   0.219 -0.4544  0.0988 -0.5527
15853TIP3    H169050   1.120   1.291   0.208  0.6488  0.4364  0.6464
15853TIP3    H269051   1.011   1.363   0.284 -0.0883  0.1892 -0.1502
15854TIP3   OH269052   6.644   2.488  11.590 -0.2693  0.0539 -0.3383
15854TIP3    H169053   6.556   2.516  11.563 -0.4299  0.1407  0.2547
15854TIP3    H269054   6.631   2.401  11.628  0.0003 -0.1994 -0.8238
15855TIP3   OH269055   2.248   1.710  15.624 -1.2595 -0.3708  0.6904
15855TIP3    H169056   2.157   1.687  15.646 -1.1620 -0.9936  0.4669
15855TIP3    H269057   2.239   1.774  15.554 -1.5336 -2.4995 -1.3348
15856TIP3   OH269058   1.397   0.737  11.892 -0.2657 -0.3657  0.3923
15856TIP3    H169059   1.413   0.777  11.978  2.1565 -1.7140  0.6718
15856TIP3    H269060   1.445   0.792  11.831  0.1128 -0.8122  0.2806
15857TIP3   OH269061   5.054   5.511  11.436 -0.2589 -0.1952  0.6152
15857TIP3    H169062   4.977   5.521  11.381  0.3479  0.5967 -0.1294
15857TIP3    H269063   5.022   5.518  11.525 -1.0475  0.0789  0.3139
15858TIP3   OH269064   3.321   4.512  16.763 -0.0682 -0.1419 -0.1436
15858TIP3    H169065   3.303   4.497  16.670 -0.2404 -2.9893  0.2415
15858TIP3    H269066   3.247   4.564  16.794  0.6587  2.0025 -1.8181
15859TIP3   OH269067   3.044   3.862   6.893  0.1447 -0.1829  0.2570
15859TIP3    H169068   3.012   3.804   6.824  0.8666  0.3418 -0.5297
15859TIP3    H269069   3.028   3.950   6.860  0.7759  0.0759  0.6211
15860TIP3   OH269070   5.878   5.970  12.862  0.9421  0.0533  0.1880
15860TIP3    H169071   5.962   5.995  12.823  0.8452 -0.9654 -0.7120
15860TIP3    H269072   5.812   6.016  12.810  0.9399  2.4907  2.1276
15861TIP3   OH269073   0.375   6.619   0.997  0.7635 -0.4924 -0.2754
15861TIP3    H169074   0.364   6.643   0.905 -0.9296 -0.4015 -0.0860
15861TIP3    H269075   0.315   6.545   1.009  1.0605 -0.5805  0.7207
15862TIP3   OH269076   0.817   4.737   5.221 -0.8969 -0.3142 -0.1889
15862TIP3    H169077   0.756   4.747   5.148 -0.7482 -1.1042 -0.4371
15862TIP3    H269078   0.904   4.752   5.183 -0.8309 -0.5852 -0.1519
15863TIP3   OH269079   3.436   2.834  15.594 -0.0931 -0.2398 -0.0375
15863TIP3    H169080   3.440   2.811  15.501 -1.2597 -0.2195 -0.0990
15863TIP3    H269081   3.468   2.924  15.597  0.1353 -0.3044 -0.3831
15864TIP3   OH269082   3.950   3.289  16.093  0.8268  0.0275 -0.1370
15864TIP3    H169083   4.011   3.265  16.162  0.8721  0.3561 -0.0649
15864TIP3    H269084   3.903   3.365  16.127  0.2217 -0.3618 -0.1021
15865TIP3   OH269085   2.075   1.605   1.041 -0.0440 -0.1131 -0.2008
15865TIP3    H169086   2.105   1.539   1.103 -2.9889 -0.2621  1.2242
15865TIP3    H269087   2.063   1.684   1.093 -1.6997  0.0161 -0.7326
15866TIP3   OH269088   1.837   4.358   2.601  0.2153 -0.0294 -0.3238
15866TIP3    H169089   1.831   4.450   2.574 -1.8999 -0.3310 -1.0553
15866TIP3    H269090   1.759   4.317   2.564  0.7942 -2.0012  0.5197
15867TIP3   OH269091   3.880   0.504   1.490 -0.2348  0.2808  0.1684
15867TIP3    H169092   3.817   0.519   1.561 -1.0647 -1.4248 -0.1657
15867TIP3    H269093   3.940   0.579   1.496 -0.9818  0.8055  1.8952
15868TIP3   OH269094   2.260   6.214   5.005 -0.3387  0.1037 -0.1797
15868TIP3    H169095   2.307   6.296   4.996 -0.7917  0.2034 -2.1950
15868TIP3    H269096   2.198   6.229   5.076  0.7179  0.9117  0.6046
15869TIP3   OH269097   0.232   6.090  14.311  0.6752 -0.5010  0.0996
15869TIP3    H169098   0.177   6.052  14.242 -1.0411 -0.4273  1.3805
15869TIP3    H269099   0.259   6.015  14.364 -1.3032 -0.2210  1.6228
15870TIP3   OH269100   3.057   3.535   6.471  0.1578  0.1662  0.0659
15870TIP3    H169101   3.129   3.475   6.488 -0.4361 -1.5254 -2.7388
15870TIP3    H269102   3.099   3.620   6.460  1.4946 -0.4317  0.3526
15871TIP3   OH269103   5.050   4.050  11.485  0.2356 -0.2812 -0.0951
15871TIP3    H169104   4.987   3.989  11.447 -1.2368  0.9636  0.2096
15871TIP3    H269105   5.002   4.093  11.556  1.7952 -0.0473  0.8715
15872TIP3   OH269106   5.290   1.546   4.548  0.5437 -0.0726  0.0469
15872TIP3    H169107   5.374   1.561   4.591  0.2291  0.6043  0.4369
15872TIP3    H269108   5.229   1.527   4.620  0.2671 -0.1325 -0.1999
15873TIP3   OH269109   1.359   3.916   1.090  0.6344 -0.1966  0.0933
15873TIP3    H169110   1.363   3.900   0.996 -0.6416  1.8157 -0.3617
15873TIP3    H269111   1.323   4.004   1.098  0.1193 -0.5499  2.4870
15874TIP3   OH269112   2.291   5.672  11.328 -0.2652 -0.8043 -0.5722
15874TIP3    H169113   2.206   5.715  11.343 -0.3202 -0.6534 -1.2607
15874TIP3    H269114   2.298   5.607  11.397 -0.4877 -0.1308  0.0915
15875TIP3   OH269115   5.024   4.900   1.703  0.6117 -0.3251  0.4939
15875TIP3    H169116   5.112   4.938   1.704  0.7973 -0.6283 -0.9899
15875TIP3    H269117   5.022   4.849   1.622 -0.6733 -0.9585  0.9042
15876TIP3   OH269118   2.487   1.504   2.306  0.6097  0.0941  0.1140
15876TIP3    H169119   2.510   1.596   2.319 -1.1515  0.6596 -0.5090
15876TIP3    H269120   2.509   1.487   2.215  1.3084 -0.2421  0.3364
15877TIP3   OH269121   5.856   6.192   0.625  0.1923  0.2368  0.1521
15877TIP3    H169122   5.833   6.106   0.658 -1.3651  0.4741 -0.2761
15877TIP3    H269123   5.842   6.251   0.700 -1.7215  0.5329 -0.3960
15878TIP3   OH269124   5.316   0.417   4.197 -0.0164  0.3034  0.1774
15878TIP3    H169125   5.409   0.442   4.192 -0.5731  2.6804  0.3530
15878TIP3    H269126   5.299   0.373   4.113  0.8048  1.7286 -0.7935
15879TIP3   OH269127   0.781   4.747  14.717  0.2328  0.2324 -0.1480
15879TIP3    H169128   0.704   4.692  14.727  1.4056 -1.9595 -2.0218
15879TIP3    H269129   0.747   4.836  14.708 -1.9871 -0.5675 -0.2426
15880TIP3   OH269130   4.187   6.621  11.928 -0.0694  0.0844 -0.0485
15880TIP3    H169131   4.232   6.542  11.957  0.2725 -0.8275 -2.7521
15880TIP3    H269132   4.257   6.682  11.907 -0.2424  0.2301 -0.2013
15881TIP3   OH269133   1.062   1.578  12.110  0.0929 -0.3083 -0.3348
15881TIP3    H169134   1.114   1.641  12.159  1.0951  0.3075 -2.0933
15881TIP3    H269135   0.973   1.590  12.142  0.8306 -0.6943  2.0474
15882TIP3   OH269136   4.453   3.162   1.099  0.7881 -0.6307 -0.0546
15882TIP3    H169137   4.501   3.238   1.066 -0.4607 -0.2951 -1.1851
15882TIP3    H269138   4.459   3.170   1.195 -0.5689  1.7778 -0.0824
15883TIP3   OH269139   6.522   5.293   6.304 -0.2186 -0.2990 -0.0181
15883TIP3    H169140   6.514   5.210   6.257 -0.2145  0.2949 -1.0790
15883TIP3    H269141   6.456   5.287   6.373 -0.2812 -1.1465 -0.1366
15884TIP3   OH269142   0.577   4.698  14.224 -0.9185 -0.1910 -0.1128
15884TIP3    H169143   0.528   4.739  14.153 -1.4206 -1.6816 -0.6487
15884TIP3    H269144   0.509   4.668  14.285 -0.4862  1.4791  1.2720
15885TIP3   OH269145   4.652   6.080  16.783  0.2056  0.2902  0.3563
15885TIP3    H169146   4.701   6.032  16.716 -1.2568  0.5524 -0.9669
15885TIP3    H269147   4.703   6.068  16.864  1.3115 -1.1831 -0.5065
15886TIP3   OH269148   5.824   6.035  14.798 -0.0784  0.0104  0.3925
15886TIP3    H169149   5.761   5.985  14.746  0.0784 -0.9146  1.0620
15886TIP3    H269150   5.896   6.052  14.739  0.4769 -1.7636  0.5026
15887TIP3   OH269151   6.079   0.740  15.803 -0.2886 -0.6709 -0.3525
15887TIP3    H169152   6.123   0.824  15.793 -0.3489 -0.7065 -0.9880
15887TIP3    H269153   5.991   0.762  15.832  0.2465 -0.6183  1.3130
15888TIP3   OH269154   3.615   5.000   2.745  0.5711 -0.3112 -0.3257
15888TIP3    H169155   3.618   4.905   2.732  1.9636 -0.4536  0.7245
15888TIP3    H269156   3.522   5.022   2.746  0.1828 -1.8771  0.7225
15889TIP3   OH269157   0.346   6.185  11.277  0.1904  0.0530  0.4235
15889TIP3    H169158   0.329   6.277  11.256  0.1856  0.0172  0.2709
15889TIP3    H269159   0.433   6.168  11.240 -0.7958 -0.6875 -1.7482
15890TIP3   OH269160   4.372   5.130  11.724 -0.4581 -0.6092 -0.1787
15890TIP3    H169161   4.287   5.128  11.769  0.0568  0.4470  0.8745
15890TIP3    H269162   4.434   5.095  11.788  0.1880  0.3480 -0.2582
15891TIP3   OH269163   2.981   6.402  13.380 -0.0641 -0.2411 -0.3357
15891TIP3    H169164   3.004   6.333  13.318 -1.3531 -0.9819 -0.0276
15891TIP3    H269165   2.899   6.438  13.347 -0.4723 -0.2645  0.6291
15892TIP3   OH269166   0.465   3.914   1.812 -0.5737 -0.2452 -0.2212
15892TIP3    H169167   0.536   3.902   1.748 -0.4703  0.7086 -0.2870
15892TIP3    H269168   0.443   4.007   1.807 -0.5318 -0.1463  1.1663
15893TIP3   OH269169   0.821   3.642  12.007  0.2287  0.3146  0.0148
15893TIP3    H169170   0.828   3.734  11.982 -0.9115  0.1555 -1.0078
15893TIP3    H269171   0.884   3.597  11.951  0.3082  0.3945  0.0405
15894TIP3   OH269172   0.019   4.861  13.265 -0.2383  0.1276  0.0949
15894TIP3    H169173   0.029   4.952  13.295 -0.6270  0.4710 -0.7657
15894TIP3    H269174   0.108   4.829  13.256 -0.1040  0.2647  0.8674
15895TIP3   OH269175   0.356   2.185  13.032  0.0960  0.1903  0.4512
15895TIP3    H169176   0.400   2.123  13.089 -0.2915 -0.9916 -0.4808
15895TIP3    H269177   0.402   2.267  13.044  1.1420 -0.4816  1.1227
15896TIP3   OH269178   1.695   0.480  13.993 -0.1914  0.9780 -0.3149
15896TIP3    H169179   1.645   0.552  14.031 -0.0608  1.5027 -1.1219
15896TIP3    H269180   1.641   0.402  14.011  0.3410  1.0485  1.7914
15897TIP3   OH269181   2.782   5.783   0.801  0.6673  0.1242 -0.5913
15897TIP3    H169182   2.753   5.728   0.728  1.9193 -3.3822  1.3366
15897TIP3    H269183   2.705   5.790   0.857 -0.2579  2.7153 -2.0109
15898TIP3   OH269184   2.756   6.748   4.552 -0.0227 -0.2946 -0.0971
15898TIP3    H169185   2.756   6.844   4.548  0.9929 -0.2496  0.6304
15898TIP3    H269186   2.823   6.721   4.490 -0.1529 -0.5294 -0.1383
15899TIP3   OH269187   1.473   2.481   2.030 -0.6942  0.3464 -0.3105
15899TIP3    H169188   1.427   2.446   1.953 -0.1770  1.2707 -1.0641
15899TIP3    H269189   1.566   2.470   2.008 -0.5285 -0.6088  0.7783
15900TIP3   OH269190   3.426   1.863  15.091 -0.1696  0.8089  0.5579
15900TIP3    H169191   3.430   1.877  14.997 -0.8515  0.6133  0.4914
15900TIP3    H269192   3.437   1.950  15.129 -1.4711  1.1403  0.2358
15901TIP3   OH269193   3.179   5.647  12.609 -0.5763  0.1484 -0.2665
15901TIP3    H169194   3.235   5.580  12.649 -3.4674 -2.6076 -0.4199
15901TIP3    H269195   3.147   5.698  12.683  1.0254  0.9163 -0.0590
15902TIP3   OH269196   3.429   5.454   6.393 -0.0365  0.7007  0.1313
15902TIP3    H169197   3.393   5.533   6.353 -1.0833 -0.5600 -1.5651
15902TIP3    H269198   3.378   5.443   6.474 -0.2363  1.4599  0.1198
15903TIP3   OH269199   6.691   2.509  15.306  0.1638 -0.2696  0.6035
15903TIP3    H169200   6.768   2.492  15.251 -1.1101  2.0795 -2.2126
15903TIP3    H269201   6.724   2.566  15.376  1.1880 -0.1138  0.0172
15904TIP3   OH269202   1.181   1.756  12.306  0.0872  0.1304  0.4385
15904TIP3    H169203   1.153   1.774  12.396  3.1531 -0.5171  1.6412
15904TIP3    H269204   1.201   1.842  12.270  1.6524  0.2320  1.4509
15905TIP3   OH269205   6.461   4.786  13.495 -0.1106 -0.7748  0.0453
15905TIP3    H169206   6.507   4.723  13.438  2.0672  1.0311 -0.3302
15905TIP3    H269207   6.441   4.860  13.437 -0.9620 -0.3347  0.8802
15906TIP3   OH269208   3.727   6.614  14.187 -0.4169  0.0772  0.2544
15906TIP3    H169209   3.814   6.654  14.187 -0.3022 -0.1444 -0.5997
15906TIP3    H269210   3.734   6.542  14.123 -0.8519 -0.7783  1.1431
15907TIP3   OH269211   2.467   3.011   4.193 -0.1307  0.1767 -0.8001
15907TIP3    H169212   2.533   3.058   4.244 -1.1443  0.4940  0.2627
15907TIP3    H269213   2.390   3.007   4.250 -0.8187 -0.7859 -1.7383
15908TIP3   OH269214   4.940   1.964  15.772  0.6066 -0.2931 -0.3392
15908TIP3    H169215   5.003   1.988  15.839  0.8911  1.4461 -1.1792
15908TIP3    H269216   4.992   1.955  15.692  0.0028 -0.3826 -0.7308
15909TIP3   OH269217   1.492   0.256  15.154  0.3657  0.1493  0.1376
15909TIP3    H169218   1.446   0.260  15.237  1.6494 -2.0892  1.0459
15909TIP3    H269219   1.466   0.335  15.108 -1.0990  0.9898  2.2780
15910TIP3   OH269220   5.642   1.544   3.993  0.1790 -0.3915 -0.2797
15910TIP3    H169221   5.736   1.526   3.992  0.1906 -0.3180 -1.1913
15910TIP3    H269222   5.605   1.474   4.048  0.6382 -1.0969 -0.8411
15911TIP3   OH269223   5.750   5.038  10.857  0.2962  0.3002  0.0838
15911TIP3    H169224   5.691   4.980  10.904  0.9461 -0.3794  0.0764
15911TIP3    H269225   5.801   5.081  10.925 -0.1441  0.8357  0.0871
15912TIP3   OH269226   5.638   3.658  15.130  0.7258 -0.3903 -0.4141
15912TIP3    H169227   5.593   3.740  15.152  3.0366  0.9613 -0.3512
15912TIP3    H269228   5.689   3.680  15.052  3.1022 -1.0502  0.8644
15913TIP3   OH269229   0.823   4.978   4.649 -0.3129 -0.4263 -0.0588
15913TIP3    H169230   0.837   5.005   4.558 -0.6589 -2.2397 -0.6849
15913TIP3    H269231   0.766   5.046   4.685 -0.2790  0.2484 -1.2207
15914TIP3   OH269232   3.189   0.102  16.485 -0.5858 -0.2988  0.4528
15914TIP3    H169233   3.258   0.168  16.484  0.6400 -1.5119  0.5748
15914TIP3    H269234   3.146   0.111  16.400 -0.5988  0.8092  0.5746
15915TIP3   OH269235   2.689   6.323   5.785 -0.2414 -0.4596 -0.3189
15915TIP3    H169236   2.643   6.257   5.837 -0.4542  0.3428  0.5409
15915TIP3    H269237   2.743   6.272   5.724  0.1595 -1.4473  0.8066
15916TIP3   OH269238   5.141   0.390   2.711  0.2923 -0.2329 -0.3805
15916TIP3    H169239   5.068   0.386   2.773  0.6428 -0.5896  0.0170
15916TIP3    H269240   5.167   0.482   2.710 -0.1173 -0.1132 -0.4789
15917TIP3   OH269241   5.747   0.806  12.522 -0.2061  0.4662  0.1822
15917TIP3    H169242   5.776   0.848  12.603  0.2656 -1.1056  0.8534
15917TIP3    H269243   5.816   0.826  12.459  1.3859 -1.4759  1.2089
15918TIP3   OH269244   3.803   5.182  12.088 -0.0229 -0.5696  0.1556
15918TIP3    H169245   3.819   5.105  12.034 -1.9668 -1.0268  0.1639
15918TIP3    H269246   3.890   5.208  12.118  0.7107 -2.6882  0.0624
15919TIP3   OH269247   4.571   1.120   5.087 -0.1933 -0.0981  0.1284
15919TIP3    H169248   4.476   1.123   5.076  0.0400  0.2388 -2.3968
15919TIP3    H269249   4.598   1.212   5.087  0.1238 -0.1883  0.9888
15920TIP3   OH269250   1.602   2.134  17.177 -0.5883  0.0966  0.0700
15920TIP3    H169251   1.581   2.195  17.107 -1.4942  1.0719  1.1658
15920TIP3    H269252   1.542   2.061  17.164 -0.8993  0.3705 -0.0360
15921TIP3   OH269253   6.348   0.924   6.039  0.1395 -0.3509  0.2390
15921TIP3    H169254   6.260   0.959   6.053 -0.2478 -0.6669 -1.2552
15921TIP3    H269255   6.405   1.000   6.046 -0.4605  0.2016 -0.7362
15922TIP3   OH269256   5.354   5.627   1.960 -0.1328  0.5781  0.0276
15922TIP3    H169257   5.281   5.607   2.019  1.0333  0.7444  1.5790
15922TIP3    H269258   5.315   5.680   1.891 -2.5115 -3.2703 -1.9835
15923TIP3   OH269259   5.661   1.488   3.007  0.0425 -0.2320 -0.0530
15923TIP3    H169260   5.580   1.502   3.057  0.3598  1.2935  0.0581
15923TIP3    H269261   5.730   1.486   3.074  0.1877 -0.9071 -0.2086
15924TIP3   OH269262   1.462   3.697  15.078  0.0118  0.0156 -0.3425
15924TIP3    H169263   1.494   3.714  15.167 -3.0378 -1.8799  1.2967
15924TIP3    H269264   1.447   3.784  15.041 -0.3845  0.8938  1.7301
15925TIP3   OH269265   0.883   5.642  14.121 -0.0979 -0.0480 -0.8423
15925TIP3    H169266   0.875   5.614  14.030  0.5057 -1.3320 -0.5302
15925TIP3    H269267   0.793   5.649  14.152 -0.3244  0.8351 -1.6433
15926TIP3   OH269268   4.413   6.499   6.458  0.2999  0.4179  0.1518
15926TIP3    H169269   4.506   6.523   6.465  0.0074  1.9660 -0.7847
15926TIP3    H269270   4.413   6.404   6.461  1.9400  0.3784 -0.0021
15927TIP3   OH269271   5.476   5.728   3.709  0.4340 -0.5811 -0.3396
15927TIP3    H169272   5.462   5.633   3.713  1.2880 -0.7947 -1.7202
15927TIP3    H269273   5.416   5.758   3.641  0.1568 -0.1224  0.1050
15928TIP3   OH269274   5.121   3.765  15.845 -0.3441 -0.5791 -0.1089
15928TIP3    H169275   5.159   3.846  15.877 -0.8046  0.1417 -1.3001
15928TIP3    H269276   5.196   3.713  15.817 -0.1345  0.4120 -1.4964
15929TIP3   OH269277   3.926   3.535  14.751 -0.2000  0.1141  0.0062
15929TIP3    H169278   3.929   3.609  14.690 -1.1481 -1.0574 -1.5300
15929TIP3    H269279   3.982   3.469  14.711  4.1745  1.2628  3.3837
15930TIP3   OH269280   4.775   1.214   3.273 -0.1129 -0.3740 -0.8419
15930TIP3    H169281   4.820   1.290   3.308 -0.0288 -1.2251  0.9869
15930TIP3    H269282   4.683   1.228   3.294  0.2503 -2.2605  2.6104
15931TIP3   OH269283   3.502   0.737   4.079  0.2821  0.2582  0.3340
15931TIP3    H169284   3.474   0.804   4.016  0.1830 -0.3794 -0.3037
15931TIP3    H269285   3.421   0.703   4.116  0.3002 -0.0479  0.0943
15932TIP3   OH269286   3.311   2.616   4.789  0.5004  0.0986  0.1446
15932TIP3    H169287   3.364   2.683   4.832 -0.4083 -1.0250  3.3442
15932TIP3    H269288   3.221   2.637   4.814 -0.0828 -0.7669 -1.1176
15933TIP3   OH269289   5.979   3.186  13.971  0.2737 -0.8202 -0.8563
15933TIP3    H169290   6.002   3.248  14.040  0.1842 -1.1183 -0.5527
15933TIP3    H269291   5.983   3.100  14.014 -1.0192 -0.9138 -0.8788
15934TIP3   OH269292   5.284   3.049  16.750  0.1808  0.1083  0.5063
15934TIP3    H169293   5.244   3.058  16.663  0.0105 -1.6249  0.3699
15934TIP3    H269294   5.330   3.132  16.764  1.6524 -0.1949 -1.9771
15935TIP3   OH269295   0.682   2.144  12.714  0.1629 -0.1434  0.1908
15935TIP3    H169296   0.744   2.098  12.658  0.0563 -1.6022  1.2059
15935TIP3    H269297   0.727   2.152  12.798 -0.5487 -0.1176  0.5806
15936TIP3   OH269298   2.165   1.645  13.106  0.1953  0.2266 -0.2181
15936TIP3    H169299   2.238   1.585  13.121 -1.1957 -1.6238 -0.4737
15936TIP3    H269300   2.151   1.642  13.012  1.5162  2.7827 -0.5778
15937TIP3   OH269301   5.824   1.238   1.447  0.1605 -0.0079 -0.1645
15937TIP3    H169302   5.766   1.169   1.480  0.8341 -0.3070  0.4102
15937TIP3    H269303   5.881   1.259   1.521  1.0864 -0.0320 -0.8544
15938TIP3   OH269304   3.870   6.198  15.861 -0.6228 -0.5018 -0.2136
15938TIP3    H169305   3.901   6.149  15.937  0.4415 -1.2985 -1.1291
15938TIP3    H269306   3.936   6.266  15.847 -0.4249 -0.8186 -0.8528
15939TIP3   OH269307   4.535   5.945  15.321 -0.6323 -0.2175  0.4384
15939TIP3    H169308   4.590   5.869  15.341  0.0717  0.2137  0.1832
15939TIP3    H269309   4.455   5.930  15.370 -1.2513 -2.0121 -0.9931
15940TIP3   OH269310   3.610   3.728   5.809 -0.1267  0.1204 -0.1127
15940TIP3    H169311   3.683   3.789   5.796  0.5766 -0.7462 -0.3415
15940TIP3    H269312   3.567   3.757   5.889 -0.2664  1.3641 -0.6189
15941TIP3   OH269313   5.814   0.026  12.411 -0.3015 -0.3281 -0.1392
15941TIP3    H169314   5.738   0.002  12.357 -2.1272  0.9263  1.6995
15941TIP3    H269315   5.836   0.114  12.383 -0.3187 -0.2262  0.1651
15942TIP3   OH269316   5.043   1.431  11.026  0.0860 -0.4280 -0.5236
15942TIP3    H169317   5.075   1.408  11.113 -0.6662  1.1681  0.2145
15942TIP3    H269318   5.042   1.348  10.978  0.5949 -1.3262  0.9518
15943TIP3   OH269319   3.247   2.968  10.940  0.3555 -0.8728 -0.1340
15943TIP3    H169320   3.253   2.909  10.866  0.5652 -1.4775  0.3585
15943TIP3    H269321   3.231   3.054  10.901  0.4254 -1.1888 -0.8712
15944TIP3   OH269322   2.876   0.531  14.385 -0.2883  0.4179 -0.1765
15944TIP3    H169323   2.847   0.618  14.413  0.2363  0.5060  0.1047
15944TIP3    H269324   2.813   0.470  14.425 -0.4924  0.6483 -0.1463
15945TIP3   OH269325   0.135   2.649   1.170 -0.6438 -0.6425 -0.1598
15945TIP3    H169326   0.143   2.744   1.182 -1.9544 -0.4004 -0.9812
15945TIP3    H269327   0.148   2.613   1.258  1.9246  0.0913 -0.1360
15946TIP3   OH269328   4.542   2.603   2.662 -0.5186  0.0267  0.1321
15946TIP3    H169329   4.638   2.606   2.661 -0.4451 -0.1458  2.1073
15946TIP3    H269330   4.518   2.572   2.575  1.2118  0.1469 -0.4276
15947TIP3   OH269331   6.233   4.989   3.808 -0.4748  0.2308  0.0875
15947TIP3    H169332   6.325   4.979   3.834 -0.2830 -0.3227 -0.7431
15947TIP3    H269333   6.214   5.081   3.824  0.0941  0.2540  0.6870
15948TIP3   OH269334   3.813   3.336   3.377 -0.4964 -0.0223  0.2632
15948TIP3    H169335   3.868   3.272   3.421  0.6959  0.3668 -0.6260
15948TIP3    H269336   3.795   3.298   3.291 -0.6263  0.3814  0.1089
15949TIP3   OH269337   5.803   1.268  13.259 -0.3712  0.9508 -0.1743
15949TIP3    H169338   5.818   1.320  13.338 -0.0057 -0.0632  0.4321
15949TIP3    H269339   5.890   1.263  13.218 -0.3390  0.5328 -0.0529
15950TIP3   OH269340   1.567   6.232  13.045  0.2976 -0.2061 -0.8529
15950TIP3    H169341   1.661   6.248  13.041  0.0275  1.3402 -2.1888
15950TIP3    H269342   1.539   6.272  13.127  0.6880 -0.0153 -0.8130
15951TIP3   OH269343   1.082   6.735   1.917  0.4512  0.0414 -0.5156
15951TIP3    H169344   1.138   6.792   1.864 -0.0077 -0.1495 -1.2192
15951TIP3    H269345   1.088   6.771   2.005  1.1640  0.4159 -0.7115
15952TIP3   OH269346   3.324   6.093  12.178  0.1171 -0.9638  0.1960
15952TIP3    H169347   3.269   6.055  12.246  1.7639 -2.1851  0.9236
15952TIP3    H269348   3.362   6.171  12.218 -2.0539  0.6949 -0.7739
15953TIP3   OH269349   5.559   2.906  11.179  0.1190  0.1148  0.2795
15953TIP3    H169350   5.625   2.861  11.126 -0.7813 -0.7230 -0.1578
15953TIP3    H269351   5.525   2.974  11.122  1.0104  0.9433  0.7131
15954TIP3   OH269352   0.911   1.003  11.620  0.4270 -0.1569  0.2257
15954TIP3    H169353   0.826   1.042  11.600  0.1190 -1.1150 -0.4128
15954TIP3    H269354   0.973   1.051  11.566  0.3978  0.9413  1.1275
15955TIP3   OH269355   0.620   3.230  16.365 -0.1554  0.4048 -0.0062
15955TIP3    H169356   0.578   3.159  16.415 -0.8082  0.9521  0.2294
15955TIP3    H269357   0.659   3.186  16.290 -0.1785 -0.2716  0.3689
15956TIP3   OH269358   0.364   3.782   3.388  0.4426 -0.1533  0.2278
15956TIP3    H169359   0.335   3.694   3.413  0.3142 -0.2417 -0.2223
15956TIP3    H269360   0.360   3.782   3.292  1.2319  0.0746  0.1923
15957TIP3   OH269361   6.094   4.453   4.021  0.4909  0.0081  0.1265
15957TIP3    H169362   6.092   4.438   4.115 -0.2941  1.6320  0.4125
15957TIP3    H269363   6.174   4.505   4.006  0.9577 -0.7947 -0.2068
15958TIP3   OH269364   5.893   2.352  11.770 -0.3428  0.1371  0.0533
15958TIP3    H169365   5.942   2.341  11.689  0.3909  0.8911  0.3801
15958TIP3    H269366   5.867   2.263  11.795  0.4398 -0.2225 -0.3805
15959TIP3   OH269367   0.432   2.939   0.716 -0.0337  0.1155  0.3545
15959TIP3    H169368   0.360   2.927   0.778 -0.6246  1.6640  0.0219
15959TIP3    H269369   0.402   2.896   0.636 -0.7617  1.0142  0.1218
15960TIP3   OH269370   0.653   4.588  15.729  0.2917 -0.3474  0.2263
15960TIP3    H169371   0.649   4.494  15.747 -0.3462 -0.5197 -0.7581
15960TIP3    H269372   0.729   4.618  15.779 -1.6222 -0.6509  3.6402
15961TIP3   OH269373   0.264   3.061   4.657  0.4464  0.4695 -0.3922
15961TIP3    H169374   0.311   3.059   4.574  0.4674  0.4761 -0.3804
15961TIP3    H269375   0.312   3.002   4.715  0.1157  0.0359 -0.5533
15962TIP3   OH269376   3.306   3.684   1.878  0.1463 -0.0491  0.6714
15962TIP3    H169377   3.249   3.651   1.948  0.2293 -1.0091  0.3067
15962TIP3    H269378   3.394   3.678   1.914  0.0193  1.8484  1.3972
15963TIP3   OH269379   1.219   2.517  11.276 -0.2692 -0.0944  0.4670
15963TIP3    H169380   1.254   2.465  11.348  2.7178  0.5926 -0.3329
15963TIP3    H269381   1.195   2.601  11.316 -0.7276 -0.4848  1.0099
15964TIP3   OH269382   0.594   5.942  11.859 -0.4051 -0.1205  0.7301
15964TIP3    H169383   0.547   5.936  11.942  0.8151 -0.7106  1.4128
15964TIP3    H269384   0.588   6.034  11.834 -0.0465  0.2527  1.9397
15965TIP3   OH269385   3.886   2.858  17.242 -0.0143 -0.3808  0.6938
15965TIP3    H169386   3.855   2.803  17.171  0.8571 -0.9637  0.7471
15965TIP3    H269387   3.948   2.803  17.290 -0.6506 -0.0259  1.9646
15966TIP3   OH269388   1.661   6.076  14.797 -0.1784  0.2423 -0.3939
15966TIP3    H169389   1.750   6.084  14.832 -0.4867 -1.0221  0.7617
15966TIP3    H269390   1.607   6.059  14.873 -1.1661 -0.7418 -1.2813
15967TIP3   OH269391   6.768   0.681  14.402 -0.4358 -0.6707 -0.2588
15967TIP3    H169392   6.750   0.650  14.491 -0.6458  0.0318 -0.0501
15967TIP3    H269393   6.794   0.772  14.413  2.0765 -1.2629 -0.6720
15968TIP3   OH269394   3.014   2.952  13.199  0.4627  0.1241 -0.0482
15968TIP3    H169395   2.976   2.886  13.141  1.4232  0.2697 -0.8853
15968TIP3    H269396   2.986   2.927  13.286  0.0900 -0.8838 -0.4441
15969TIP3   OH269397   0.267   4.819  14.828  0.2196 -0.2611  0.3494
15969TIP3    H169398   0.193   4.771  14.790 -1.4223  2.6517 -0.4270
15969TIP3    H269399   0.238   4.841  14.916  0.1669  0.7692  0.0890
15970TIP3   OH269400   2.092   6.164   2.690 -0.3255 -0.5035  0.2699
15970TIP3    H169401   2.034   6.153   2.614  0.4923 -2.5585 -0.1132
15970TIP3    H269402   2.173   6.122   2.664  0.9335  1.1585  1.3031
15971TIP3   OH269403   2.988   6.007  16.437 -0.0718  0.3153  0.5667
15971TIP3    H169404   2.988   5.946  16.363 -1.1320  0.5298  0.3811
15971TIP3    H269405   2.975   6.093  16.398  0.0398  0.5114  0.9503
15972TIP3   OH269406   0.945   1.975   3.531 -0.3664 -0.1151  0.7762
15972TIP3    H169407   0.983   1.946   3.614 -0.7368  0.5222  1.1752
15972TIP3    H269408   1.019   1.977   3.470  0.0117 -0.0451  1.2354
15973TIP3   OH269409   0.366   0.173   4.844  0.5483 -0.0428 -0.8506
15973TIP3    H169410   0.289   0.226   4.828  1.2716  0.9686 -1.1129
15973TIP3    H269411   0.421   0.187   4.767 -0.2346 -3.0472 -2.0616
15974TIP3   OH269412   0.473   2.953  17.136 -0.0735  0.1606 -0.2417
15974TIP3    H169413   0.504   2.867  17.163 -0.3316  0.5519  1.4230
15974TIP3    H269414   0.405   2.976  17.200  1.3401  2.4185  0.5914
15975TIP3   OH269415   6.497   2.781   5.923  0.0812 -0.2739 -0.2623
15975TIP3    H169416   6.588   2.805   5.941 -0.8775  2.7174  1.1138
15975TIP3    H269417   6.496   2.686   5.931  2.7489 -0.2704  1.4223
15976TIP3   OH269418   6.405   1.582  15.797  0.3884 -0.6441  0.0397
15976TIP3    H169419   6.340   1.607  15.863  0.1280 -0.5925 -0.2347
15976TIP3    H269420   6.421   1.490  15.813 -0.8413 -1.0348 -0.8108
15977TIP3   OH269421   6.692   3.339  13.987  0.0516 -0.1852 -0.0021
15977TIP3    H169422   6.662   3.249  13.996  0.1718 -0.2628 -0.3489
15977TIP3    H269423   6.659   3.384  14.065  0.0047 -0.5315  0.1760
15978TIP3   OH269424   4.539   4.150  12.584  0.5713 -0.4909  0.5819
15978TIP3    H169425   4.584   4.119  12.505  1.0806 -1.6573  1.3083
15978TIP3    H269426   4.557   4.244  12.587  0.7855 -0.4810 -0.5219
15979TIP3   OH269427   6.163   4.142  14.929 -0.0742  0.1834  0.5800
15979TIP3    H169428   6.069   4.159  14.923 -0.0325  0.0237 -0.8408
15979TIP3    H269429   6.183   4.150  15.023 -1.2513  1.4876  0.7539
15980TIP3   OH269430   1.991   1.019  14.918 -0.2461  0.3748 -0.3306
15980TIP3    H169431   1.977   1.113  14.925 -1.1917  0.3164 -1.1814
15980TIP3    H269432   2.086   1.008  14.916 -0.0781  1.1527  1.5533
15981TIP3   OH269433   2.500   4.451   3.254  0.1668 -0.1628  0.6483
15981TIP3    H169434   2.492   4.388   3.182  0.2534 -0.5809  1.0001
15981TIP3    H269435   2.551   4.523   3.217 -0.3551 -0.0633  0.0911
15982TIP3   OH269436   4.750   4.532  13.016  0.3117 -0.1222  0.0931
15982TIP3    H169437   4.768   4.441  12.991  0.9496  0.0188  0.0270
15982TIP3    H269438   4.656   4.532  13.038  0.0883 -0.5937 -0.7904
15983TIP3   OH269439   5.381   1.609   2.095 -0.4528  0.1955 -0.3781
15983TIP3    H169440   5.408   1.572   2.011 -1.1468  1.8651 -1.3972
15983TIP3    H269441   5.298   1.566   2.116  0.0400 -0.6857 -0.2164
15984TIP3   OH269442   4.958   6.818   3.625  0.0275 -0.0284 -0.4136
15984TIP3    H169443   5.021   6.837   3.555  0.0137 -0.1067 -0.4479
15984TIP3    H269444   4.911   6.900   3.639  0.3612  0.1183 -0.1603
15985TIP3   OH269445   2.776   6.691  10.929 -0.5181 -0.5644 -0.2130
15985TIP3    H169446   2.855   6.732  10.893 -2.4900  1.5169 -2.5009
15985TIP3    H269447   2.757   6.619  10.868 -1.9884  0.8626 -1.5438
15986TIP3   OH269448   2.394   5.005  14.589  0.5560  0.1394  0.2562
15986TIP3    H169449   2.452   4.932  14.566 -0.1222 -0.3562  0.0824
15986TIP3    H269450   2.306   4.968  14.583  0.2093  0.9422  0.2965
15987TIP3   OH269451   1.409   3.737  14.398 -0.0893  0.2914 -0.0435
15987TIP3    H169452   1.335   3.791  14.422  0.1890  0.3228  0.7551
15987TIP3    H269453   1.432   3.765  14.309  1.9102  3.6278  1.3416
15988TIP3   OH269454   6.622   5.171   2.521  0.1707  0.0763 -0.2111
15988TIP3    H169455   6.713   5.168   2.551  0.4220  0.7022 -0.8468
15988TIP3    H269456   6.571   5.137   2.593  0.6897  2.0196  1.1582
15989TIP3   OH269457   3.589   2.670   5.830  0.2548  0.1486  0.0268
15989TIP3    H169458   3.664   2.660   5.889  0.4706  0.0228 -0.2668
15989TIP3    H269459   3.624   2.651   5.743 -0.0159  0.5355 -0.1692
15990TIP3   OH269460   2.721   1.447   3.355 -0.3318 -0.2931 -0.6344
15990TIP3    H169461   2.777   1.415   3.284 -1.6677 -1.3602 -1.2660
15990TIP3    H269462   2.712   1.373   3.414 -1.9962 -0.5573 -1.1626
15991TIP3   OH269463   3.998   1.026  11.705  0.3645  0.0472 -0.0112
15991TIP3    H169464   4.008   0.936  11.674  0.1331 -0.0426  0.1688
15991TIP3    H269465   3.904   1.043  11.696  0.3115  0.0561  0.5456
15992TIP3   OH269466   5.290   1.483  11.447  0.3239 -0.2523  0.0325
15992TIP3    H169467   5.267   1.533  11.525 -1.4176 -0.5346 -0.2602
15992TIP3    H269468   5.371   1.438  11.471  0.5241  0.6702  1.2074
15993TIP3   OH269469   0.068   3.302  13.143 -0.1159 -0.2404  0.1594
15993TIP3    H169470   0.016   3.376  13.173  1.1862  0.7188  0.1660
15993TIP3    H269471   0.159   3.334  13.145  0.4479 -1.7099 -0.2111
15994TIP3   OH269472   0.600   4.228   0.927  0.3261  0.4868 -0.4239
15994TIP3    H169473   0.519   4.278   0.916  1.0819  1.9920  0.5469
15994TIP3    H269474   0.668   4.295   0.936  1.6060 -0.7459 -0.6838
15995TIP3   OH269475   1.119   5.324  15.758 -0.4034 -0.0733 -0.1758
15995TIP3    H169476   1.194   5.384  15.760 -1.1893  0.9211  0.4076
15995TIP3    H269477   1.147   5.249  15.811 -0.1675  0.7274  0.8687
15996TIP3   OH269478   2.349   0.352  16.716 -0.8344 -0.0633 -0.3593
15996TIP3    H169479   2.394   0.268  16.727  2.2896  1.4084 -0.8949
15996TIP3    H269480   2.349   0.368  16.622 -1.9887  0.2958 -0.3224
15997TIP3   OH269481   3.160   2.710   0.599 -0.0965 -0.2424 -0.2966
15997TIP3    H169482   3.101   2.661   0.655 -0.0822  0.6329  0.5087
15997TIP3    H269483   3.241   2.716   0.649  0.5513 -1.0572 -1.2071
15998TIP3   OH269484   6.757   4.811   2.007 -0.5252 -0.1807  0.1603
15998TIP3    H169485   6.812   4.827   1.930  1.8750 -1.2796  1.5536
15998TIP3    H269486   6.768   4.890   2.061  0.5081 -0.7904  0.8722
15999TIP3   OH269487   2.441   2.788   0.338  0.0134  0.4440 -0.5428
15999TIP3    H169488   2.505   2.771   0.269 -0.7844 -1.0002 -0.9798
15999TIP3    H269489   2.467   2.731   0.410  0.1817  1.0966 -0.0812
16000TIP3   OH269490   0.749   2.713  16.666 -0.1959 -0.2556 -0.3339
16000TIP3    H169491   0.731   2.755  16.750 -1.4729 -1.5234  0.0622
16000TIP3    H269492   0.845   2.716  16.658 -0.0490 -0.1306  1.1818
16001TIP3   OH269493   1.498   1.302   2.846 -0.3515 -0.1122  0.0215
16001TIP3    H169494   1.557   1.238   2.806  1.0308  0.9630  0.2582
16001TIP3    H269495   1.448   1.251   2.909  1.4907 -0.8106  1.0087
16002TIP3   OH269496   1.112   4.600   1.452 -0.4473  0.0163  0.1629
16002TIP3    H169497   1.083   4.535   1.387 -0.2601  0.2887 -0.1982
16002TIP3    H269498   1.040   4.663   1.455 -1.9672 -1.6266  2.5878
16003TIP3   OH269499   3.822   5.051  14.214  0.1413 -0.4179  0.1426
16003TIP3    H169500   3.854   5.000  14.140  1.6087 -0.1760  0.5894
16003TIP3    H269501   3.900   5.093  14.251 -0.5801 -0.3673  1.6926
16004TIP3   OH269502   0.732   6.201   2.639 -0.0691 -0.6951  0.0195
16004TIP3    H169503   0.774   6.118   2.615 -0.6729 -0.8558 -0.5308
16004TIP3    H269504   0.804   6.264   2.644  0.1373 -0.6668 -2.2163
16005TIP3   OH269505   4.443   3.643  11.440  0.2824  0.5441 -0.1700
16005TIP3    H169506   4.385   3.567  11.431  0.4846  0.5691 -2.2127
16005TIP3    H269507   4.431   3.672  11.530  0.2502 -1.9381  0.7173
16006TIP3   OH269508   2.127   3.265  17.142  0.1519 -0.4781  0.2005
16006TIP3    H169509   2.041   3.239  17.174  0.4851 -0.3863  1.2153
16006TIP3    H269510   2.155   3.333  17.203  0.8161 -0.2995 -0.2965
16007TIP3   OH269511   2.578   4.948   6.084  0.0044 -0.1807  0.2323
16007TIP3    H169512   2.566   4.937   6.178 -1.0236 -0.7076  0.0462
16007TIP3    H269513   2.643   4.881   6.061 -0.0599 -0.3382  0.4982
16008TIP3   OH269514   3.276   3.886  15.260 -0.0595  0.2145 -0.1906
16008TIP3    H169515   3.260   3.870  15.352 -1.0169 -3.0674 -0.8257
16008TIP3    H269516   3.371   3.882  15.251 -0.0534 -1.4652  0.3851
16009TIP3   OH269517   0.134   2.779  13.847  0.5772  0.1234  0.0652
16009TIP3    H169518   0.119   2.724  13.770  0.6420 -0.2132  0.2896
16009TIP3    H269519   0.174   2.858  13.812 -2.2058  1.3450 -0.6599
16010TIP3   OH269520   6.434   1.570  11.266  0.5400 -0.1209 -0.2391
16010TIP3    H169521   6.368   1.566  11.196 -0.8032 -2.4529  1.0661
16010TIP3    H269522   6.392   1.530  11.342  2.1152  1.9123  1.8444
16011TIP3   OH269523   5.178   0.490  12.576  0.0449 -0.2392 -0.0641
16011TIP3    H169524   5.173   0.576  12.533  2.1617  0.2617  0.5965
16011TIP3    H269525   5.163   0.427  12.506  0.2254  0.6321 -0.9106
16012TIP3   OH269526   4.103   0.967   0.617  0.6856  0.1067 -0.3254
16012TIP3    H169527   4.147   0.941   0.698  0.6699 -0.2094 -0.4166
16012TIP3    H269528   4.121   0.896   0.555  1.7682  0.9359 -0.9987
16013TIP3   OH269529   6.738   6.227   4.351 -0.0681  0.5840  0.5313
16013TIP3    H169530   6.811   6.264   4.400 -0.3513  1.1762  0.5113
16013TIP3    H269531   6.660   6.264   4.392 -0.4148 -0.8650  1.2377
16014TIP3   OH269532   2.476   5.018  15.018  0.3599 -0.1401 -0.0497
16014TIP3    H169533   2.486   4.925  15.039 -2.1043 -0.7415 -1.1450
16014TIP3    H269534   2.518   5.027  14.932  0.6951 -0.1899  0.1040
16015TIP3   OH269535   3.926   3.710  16.628 -0.0364 -0.0896 -0.0691
16015TIP3    H169536   3.879   3.639  16.672 -0.3531  0.0933 -0.1085
16015TIP3    H269537   4.012   3.711  16.669 -0.3959  0.2136  0.6917
16016TIP3   OH269538   5.024   0.761   5.033 -0.0433  0.1547 -0.6328
16016TIP3    H169539   4.939   0.754   5.076 -0.7442  0.6483 -1.8909
16016TIP3    H269540   5.054   0.670   5.027 -0.3682 -0.0056  0.0138
16017TIP3   OH269541   6.172   4.790  16.105 -0.6392 -0.8286  0.3920
16017TIP3    H169542   6.236   4.768  16.037 -1.8330  0.1729 -1.1151
16017TIP3    H269543   6.216   4.767  16.187 -0.1494 -4.6060 -0.7414
16018TIP3   OH269544   5.851   4.041   3.405  0.1378  0.1266 -0.1115
16018TIP3    H169545   5.813   4.123   3.373  0.4778  0.2939 -0.0882
16018TIP3    H269546   5.775   3.989   3.434 -0.1533  0.0375 -1.0245
16019TIP3   OH269547   0.070   3.229  12.576  0.2685  0.1546  0.3468
16019TIP3    H169548   0.145   3.221  12.517 -0.3191  0.3976 -0.4588
16019TIP3    H269549   0.003   3.273  12.523 -1.0114 -1.4977  0.5032
16020TIP3   OH269550   2.980   2.112   2.835  0.1004 -0.2763  0.4627
16020TIP3    H169551   2.898   2.063   2.846 -0.4444  0.1523 -1.2751
16020TIP3    H269552   2.974   2.148   2.746  1.4506  1.1544  0.9135
16021TIP3   OH269553   1.660   3.032   4.008 -0.3979  0.0820  0.4048
16021TIP3    H169554   1.567   3.009   4.009 -0.4525  0.2379 -0.3488
16021TIP3    H269555   1.663   3.122   3.976  0.0285 -0.0321  0.1013
16022TIP3   OH269556   1.056   6.496   3.384 -0.1235 -0.1034  0.1086
16022TIP3    H169557   1.031   6.487   3.293 -1.7612  0.1609  0.5046
16022TIP3    H269558   0.981   6.538   3.426  0.9651  0.6491  1.4022
16023TIP3   OH269559   5.637   5.875  16.495 -0.3717 -0.4912 -0.2881
16023TIP3    H169560   5.719   5.830  16.515 -0.3622 -1.7000 -2.7470
16023TIP3    H269561   5.576   5.845  16.562  0.6987 -1.0254  0.4655
16024TIP3   OH269562   6.155   0.738  14.878 -0.2339 -0.3379 -0.1096
16024TIP3    H169563   6.067   0.774  14.863 -0.4881 -0.8166  0.2099
16024TIP3    H269564   6.151   0.649  14.844  0.1129 -0.3791 -0.0484
16025TIP3   OH269565   6.107   6.089  11.976 -0.4843  0.0661  0.2707
16025TIP3    H169566   6.070   6.144  12.045  0.4667  1.4150 -0.2509
16025TIP3    H269567   6.187   6.134  11.949 -0.3887 -0.8669 -1.1355
16026TIP3   OH269568   2.796   3.735   1.518 -0.1348  0.2570  0.2088
16026TIP3    H169569   2.737   3.726   1.593 -2.3126 -0.5083 -1.5088
16026TIP3    H269570   2.800   3.648   1.480  1.4956  0.4840 -0.1972
16027TIP3   OH269571   1.629   4.671  13.784  0.2223 -0.1150 -0.6466
16027TIP3    H169572   1.575   4.612  13.835  0.6185  0.4297  0.4277
16027TIP3    H269573   1.567   4.729  13.739 -0.1162  0.7314  0.8378
16028TIP3   OH269574   5.184   1.437  15.442 -0.2950 -0.4083  0.0313
16028TIP3    H169575   5.261   1.402  15.488  0.1677 -1.5592 -1.5229
16028TIP3    H269576   5.133   1.359  15.419 -2.5461  0.3787  1.9557
16029TIP3   OH269577   0.598   6.211  13.073  0.3387 -0.3522 -0.4367
16029TIP3    H169578   0.584   6.295  13.116  1.2961  0.8001 -2.2735
16029TIP3    H269579   0.539   6.151  13.119 -1.4131  1.5926  0.0042
16030TIP3   OH269580   0.911   1.013  13.181  1.0082 -0.1068 -0.2951
16030TIP3    H169581   0.870   1.099  13.178  0.4174 -0.3168 -4.4706
16030TIP3    H269582   1.004   1.029  13.166  0.6929 -0.1456 -2.6870
16031TIP3   OH269583   3.066   4.635   4.213 -0.3968 -0.1206 -0.3830
16031TIP3    H169584   3.125   4.561   4.201 -0.3594 -0.2112  0.3040
16031TIP3    H269585   3.021   4.617   4.296 -1.1255  0.1294 -0.7147
16032TIP3   OH269586   0.670   6.331  15.716  0.2131 -0.3103 -0.5352
16032TIP3    H169587   0.616   6.261  15.753 -0.5129  0.1800 -0.6389
16032TIP3    H269588   0.699   6.381  15.793 -0.0956 -0.1483 -0.5187
16033TIP3   OH269589   3.578   3.557  16.400 -0.2166  0.0895 -0.2297
16033TIP3    H169590   3.513   3.516  16.456 -0.7902  1.3101  0.0347
16033TIP3    H269591   3.526   3.603  16.334  0.4226 -0.2694 -0.9994
16034TIP3   OH269592   3.464   6.205   4.808 -0.1326 -0.2078 -0.1556
16034TIP3    H169593   3.495   6.290   4.777 -0.6916  0.0402 -0.0483
16034TIP3    H269594   3.490   6.202   4.900  1.1385 -0.7599 -0.5071
16035TIP3   OH269595   4.309   1.796   6.431 -0.3868 -0.4112  0.2904
16035TIP3    H169596   4.316   1.701   6.430 -0.5384 -0.4382 -1.6449
16035TIP3    H269597   4.300   1.821   6.339 -3.5197  1.2455  0.9042
16036TIP3   OH269598   1.650   3.694  12.096  0.3701  0.1239  0.2267
16036TIP3    H169599   1.578   3.668  12.039  0.7400  0.6858 -0.5156
16036TIP3    H269600   1.624   3.780  12.130  0.5406  0.1731  0.2314
16037TIP3   OH269601   0.943   0.588  13.993  0.4961  0.6919 -0.2198
16037TIP3    H169602   0.884   0.513  13.977 -0.5136  1.4638 -0.2364
16037TIP3    H269603   1.013   0.552  14.046  0.3899 -0.4272 -0.8038
16038TIP3   OH269604   0.836   0.814   1.262  0.0228 -0.2601  0.1204
16038TIP3    H169605   0.742   0.813   1.244  0.1165 -2.3453 -0.6010
16038TIP3    H269606   0.868   0.893   1.219 -1.2700  0.0633 -0.3045
16039TIP3   OH269607   5.571   2.003  16.585  0.2479 -0.1782  0.7530
16039TIP3    H169608   5.486   2.032  16.617 -0.6585  0.9431 -2.3763
16039TIP3    H269609   5.554   1.917  16.546  0.0172  0.9034 -1.6713
16040TIP3   OH269610   6.584   6.721  16.897 -0.4055 -0.1688  0.2946
16040TIP3    H169611   6.648   6.660  16.859 -2.2543 -0.9648 -1.7686
16040TIP3    H269612   6.593   6.800  16.845 -1.0763 -0.2950 -0.0287
16041TIP3   OH269613   0.582   4.524   0.671  0.1367  0.0256  0.6465
16041TIP3    H169614   0.522   4.568   0.611 -1.1631  0.5381  2.2346
16041TIP3    H269615   0.668   4.558   0.649 -0.4683  1.1127 -0.1361
16042TIP3   OH269616   4.122   1.479   4.160 -0.2278 -0.1916 -0.0233
16042TIP3    H169617   4.153   1.508   4.074 -0.5674  2.0272  0.5305
16042TIP3    H269618   4.171   1.399   4.178  0.9010  0.0853 -1.6586
16043TIP3   OH269619   2.695   1.861   4.741 -0.7716 -0.2805  0.5463
16043TIP3    H169620   2.636   1.786   4.737 -0.0681 -0.7975 -0.5135
16043TIP3    H269621   2.781   1.826   4.717 -0.6254  1.0317 -1.0875
16044TIP3   OH269622   4.139   3.907   2.364  0.0623 -0.5986  0.6947
16044TIP3    H169623   4.207   3.970   2.386 -0.6308  0.1030  0.8646
16044TIP3    H269624   4.062   3.936   2.413 -0.9714 -0.1418 -1.1104
16045TIP3   OH269625   0.512   5.220  17.095  0.0643 -0.2809  0.4540
16045TIP3    H169626   0.531   5.126  17.094 -0.7865 -0.4741 -1.2053
16045TIP3    H269627   0.533   5.249  17.006  0.8376  1.2368  1.0931
16046TIP3   OH269628   0.952   5.715  17.191 -0.0668  0.7698  0.4530
16046TIP3    H169629   0.912   5.761  17.118 -4.2090  0.9357  2.5228
16046TIP3    H269630   0.987   5.635  17.152 -1.9527  0.9168 -1.7828
16047TIP3   OH269631   0.499   3.112  14.947 -0.3796  0.1777  0.3214
16047TIP3    H169632   0.528   3.059  14.873 -1.0826  1.4723 -0.9543
16047TIP3    H269633   0.572   3.171  14.965 -0.9265  1.2210 -0.7191
16048TIP3   OH269634   4.835   0.917  12.224 -0.0495  0.3849 -0.4275
16048TIP3    H169635   4.793   1.002  12.236  0.3187  0.5867 -0.5445
16048TIP3    H269636   4.882   0.902  12.305  1.2506  1.0762 -1.0258
16049TIP3   OH269637   2.077   4.205  11.426 -0.2384  1.2009  0.0696
16049TIP3    H169638   2.095   4.298  11.433  0.4675  1.0698  0.0233
16049TIP3    H269639   1.982   4.200  11.415 -0.6739  1.7928  2.7545
16050TIP3   OH269640   0.326   1.600  12.710 -0.4358 -0.0396  1.0365
16050TIP3    H169641   0.357   1.510  12.717 -0.7720 -0.2007  0.5432
16050TIP3    H269642   0.231   1.592  12.698 -0.2188  0.2432 -1.3089
16051TIP3   OH269643   6.819   1.436   2.036 -0.3074 -1.0200 -0.4105
16051TIP3    H169644   6.872   1.480   2.102 -0.7951 -2.1827  0.7784
16051TIP3    H269645   6.744   1.494   2.023  0.0762 -0.5061 -0.3958
16052TIP3   OH269646   3.882   4.876  15.927 -0.0473  0.0188 -0.5471
16052TIP3    H169647   3.978   4.868  15.924  0.0092 -0.9967  1.8182
16052TIP3    H269648   3.852   4.824  15.853  1.2178  0.6929 -1.5875
16053TIP3   OH269649   0.440   3.387  11.596 -0.4769 -0.5151 -0.0473
16053TIP3    H169650   0.365   3.347  11.641 -1.3089  1.3922  0.3367
16053TIP3    H269651   0.492   3.426  11.666 -0.6164  0.5842 -0.5486
16054TIP3   OH269652   3.009   2.589   0.788  1.0051 -0.4839  0.2142
16054TIP3    H169653   3.001   2.504   0.830 -1.9478  0.0735  1.0450
16054TIP3    H269654   2.986   2.652   0.857 -0.1942  0.7174 -1.1901
16055TIP3   OH269655   2.587   2.877   5.450  0.5590 -0.8789  0.1086
16055TIP3    H169656   2.505   2.856   5.495  0.6257 -0.9202  0.2119
16055TIP3    H269657   2.586   2.972   5.441  0.5754 -0.8644  0.2564
16056TIP3   OH269658   6.345   6.489  16.578 -0.4549  0.2241  0.4873
16056TIP3    H169659   6.365   6.460  16.667 -0.6300  1.5684  0.9833
16056TIP3    H269660   6.343   6.584  16.583  2.5567  0.5563 -1.5862
16057TIP3   OH269661   4.179   1.066   4.871 -0.2936 -0.3250  0.3469
16057TIP3    H169662   4.131   0.985   4.852 -1.1854  0.4105 -0.6123
16057TIP3    H269663   4.207   1.098   4.786 -0.8427  0.9015  0.6016
16058TIP3   OH269664   6.163   1.240   4.590  0.3330  0.3870 -0.0788
16058TIP3    H169665   6.209   1.248   4.507  0.2528 -0.7232 -0.2478
16058TIP3    H269666   6.074   1.270   4.572  0.7083  1.5935  0.0028
16059TIP3   OH269667   2.329   3.084  10.888  0.0345  0.1912 -0.5170
16059TIP3    H169668   2.318   3.161  10.833  1.5341  0.9111  0.1291
16059TIP3    H269669   2.415   3.096  10.930  0.7847 -2.3008 -1.1550
16060TIP3   OH269670   3.296   0.482   5.443  0.0543  0.0621  0.1550
16060TIP3    H169671   3.246   0.554   5.403 -0.2048 -0.7992 -1.1319
16060TIP3    H269672   3.385   0.517   5.453  0.1206  0.3273 -1.1805
16061TIP3   OH269673   2.502   1.273   2.938 -0.4741 -0.0540  0.3909
16061TIP3    H169674   2.592   1.247   2.959 -0.5387  0.4141  1.2706
16061TIP3    H269675   2.462   1.292   3.022 -1.7020 -1.1780  0.0865
16062TIP3   OH269676   4.777   3.814  14.155  0.2044  0.0706 -0.2502
16062TIP3    H169677   4.858   3.763  14.148 -0.7074 -1.4395 -0.2526
16062TIP3    H269678   4.748   3.826  14.064  0.1363  0.1203 -0.2221
16063TIP3   OH269679   6.436   3.667  14.396  0.5407 -0.1934  0.2144
16063TIP3    H169680   6.410   3.620  14.476  1.1536  0.7665  1.0037
16063TIP3    H269681   6.358   3.665  14.341  0.9409 -3.4135 -0.4572
16064TIP3   OH269682   1.013   3.863   3.602  0.1227  0.0672  0.5352
16064TIP3    H169683   0.959   3.935   3.633 -0.2626  0.2447 -0.4856
16064TIP3    H269684   1.088   3.906   3.561 -0.1929 -0.0952 -0.2296
16065TIP3   OH269685   5.721   2.621  12.809 -0.5057  0.2135  0.1142
16065TIP3    H169686   5.705   2.708  12.847 -0.7153  0.0863  0.3199
16065TIP3    H269687   5.684   2.560  12.872 -0.4517 -0.0224 -0.0806
16066TIP3   OH269688   1.148   2.942  13.163  0.1397  0.1532 -0.3214
16066TIP3    H169689   1.059   2.933  13.195  0.3173 -0.3593  0.0565
16066TIP3    H269690   1.169   3.035  13.174 -0.7572  0.5097 -1.5552
16067TIP3   OH269691   4.870   6.506   0.040  0.0079  0.0026 -0.3686
16067TIP3    H169692   4.779   6.490   0.012 -0.8587  3.0536  0.3297
16067TIP3    H269693   4.894   6.588  -0.005  2.7622 -1.1447 -1.1688
16068TIP3   OH269694   1.878   5.788   3.617 -0.0726 -0.1746 -0.1705
16068TIP3    H169695   1.796   5.744   3.641 -1.6108  2.5722 -0.0513
16068TIP3    H269696   1.861   5.823   3.529  1.5569 -0.8115 -0.7803
16069TIP3   OH269697   2.689   0.144  13.558  0.2404 -0.1372  0.0682
16069TIP3    H169698   2.693   0.081  13.630 -0.5225  1.5577  1.6947
16069TIP3    H269699   2.598   0.173  13.556  0.5244  0.7708 -0.7526
16070TIP3   OH269700   0.609   3.242   4.965  0.5007 -0.2839  0.2682
16070TIP3    H169701   0.659   3.317   4.933  0.5311  0.0102  0.9977
16070TIP3    H269702   0.665   3.202   5.031 -1.0570  1.3044  2.6854
16071TIP3   OH269703   2.959   0.594   0.391  0.5078 -0.4857 -0.1957
16071TIP3    H169704   2.882   0.586   0.335 -0.5701  2.6876  0.6003
16071TIP3    H269705   2.947   0.525   0.457  0.2751 -2.3509 -2.0903
16072TIP3   OH269706   3.625   6.006   2.956 -0.3196  0.3748  0.0002
16072TIP3    H169707   3.696   5.951   2.989 -1.1371 -0.4038  0.5272
16072TIP3    H269708   3.631   6.086   3.009  1.1656  1.0201 -1.0928
16073TIP3   OH269709   6.148   4.517   2.871 -0.6176  0.3341  0.1644
16073TIP3    H169710   6.058   4.511   2.903 -0.4199  0.4295  0.7466
16073TIP3    H269711   6.198   4.551   2.945 -0.4614  2.3590 -0.7924
16074TIP3   OH269712   0.526   6.379   6.272 -0.0168  0.0584 -0.6706
16074TIP3    H169713   0.558   6.465   6.247 -0.9127  0.6590  0.1531
16074TIP3    H269714   0.604   6.328   6.293  0.4804  0.8779 -0.5247
16075TIP3   OH269715   4.998   2.848  16.694 -0.0058 -0.0207 -0.0423
16075TIP3    H169716   5.050   2.768  16.688 -1.0352 -0.6572 -0.7177
16075TIP3    H269717   4.920   2.822  16.742  0.2569  0.9185  0.9332
16076TIP3   OH269718   2.944   3.042   5.677  0.6707 -0.8828  0.4857
16076TIP3    H169719   2.978   3.035   5.588 -0.1614  3.7200 -0.4380
16076TIP3    H269720   2.852   3.016   5.670 -0.2035  2.1744 -0.8257
16077TIP3   OH269721   0.164   6.706   3.887 -0.0560 -0.1804 -0.2314
16077TIP3    H169722   0.141   6.640   3.952  0.3526 -1.6560 -1.5283
16077TIP3    H269723   0.092   6.770   3.892 -0.2667 -0.4987  1.3129
16078TIP3   OH269724   3.101   3.989   0.940  0.9869 -0.3894 -0.3702
16078TIP3    H169725   3.088   3.906   0.893  0.4856 -0.1174 -0.7251
16078TIP3    H269726   3.176   4.030   0.895  1.7939 -1.0307  0.3587
16079TIP3   OH269727   6.568   0.044  13.872  0.2098  0.1399  0.0580
16079TIP3    H169728   6.532   0.124  13.834 -2.9107 -1.8204 -1.5652
16079TIP3    H269729   6.631   0.013  13.807  0.0174  0.3347 -0.2248
16080TIP3   OH269730   4.494   2.359   4.524 -0.1248  0.2064  0.1352
16080TIP3    H169731   4.434   2.305   4.576  0.4228 -1.1325 -0.5727
16080TIP3    H269732   4.578   2.314   4.529  1.0035  2.3497  1.5425
16081TIP3   OH269733   2.520   3.361  11.051  0.2322  0.7584 -0.2178
16081TIP3    H169734   2.434   3.353  11.093  0.2043  1.6090 -0.0913
16081TIP3    H269735   2.547   3.271  11.034  0.4609  0.3263  2.0383
16082TIP3   OH269736   3.789   5.205   0.958 -0.2449 -0.3553 -0.4441
16082TIP3    H169737   3.865   5.265   0.957 -1.0141  0.6901  0.8629
16082TIP3    H269738   3.731   5.240   0.891  0.4616 -1.2548 -1.5650
16083TIP3   OH269739   5.207   0.611   1.223  0.0583  0.3792 -0.2301
16083TIP3    H169740   5.238   0.673   1.157  2.1486  0.9537  1.2066
16083TIP3    H269741   5.269   0.538   1.218  0.6443  0.7204  1.4971
16084TIP3   OH269742   4.664   6.523  12.740 -0.1315 -0.4419  0.3018
16084TIP3    H169743   4.581   6.476  12.729  0.1901 -1.3691  1.5404
16084TIP3    H269744   4.648   6.581  12.814  0.2674 -0.5076  0.4387
16085TIP3   OH269745   0.571   4.138  13.527  0.0597 -0.3297 -0.2341
16085TIP3    H169746   0.486   4.106  13.495 -1.4577  1.8835  1.2575
16085TIP3    H269747   0.590   4.214  13.473  0.5811 -0.2092  0.1135
16086TIP3   OH269748   2.242   6.570   1.340  0.3506 -0.5314  0.4180
16086TIP3    H169749   2.245   6.478   1.367  0.8673 -1.1721 -1.6231
16086TIP3    H269750   2.153   6.583   1.307  0.5390 -0.5717 -0.1197
16087TIP3   OH269751   1.681   6.450   2.782  0.3622  0.2004 -0.2279
16087TIP3    H169752   1.731   6.377   2.746  2.5390  1.5118 -0.0962
16087TIP3    H269753   1.687   6.518   2.714 -2.4663 -0.0091 -0.7871
16088TIP3   OH269754   5.245   3.796   4.650 -0.4636 -0.2873 -0.1913
16088TIP3    H169755   5.294   3.868   4.691  0.4083 -0.5744 -0.6961
16088TIP3    H269756   5.189   3.839   4.586 -1.2135  0.0865  0.6880
16089TIP3   OH269757   4.709   4.916  13.810 -0.1470 -0.2050 -0.2081
16089TIP3    H169758   4.782   4.973  13.834 -0.2784 -0.2680  0.3685
16089TIP3    H269759   4.679   4.879  13.894 -0.4652 -0.6281 -0.5040
16090TIP3   OH269760   4.382   4.921  17.272  0.0209  0.4468 -0.4431
16090TIP3    H169761   4.397   4.923  17.177  0.2487  0.9358 -0.3990
16090TIP3    H269762   4.466   4.895  17.310 -0.2246 -0.3091 -0.4063
16091TIP3   OH269763   3.059   0.456   3.773 -0.7996 -0.0100  0.4104
16091TIP3    H169764   3.003   0.397   3.822 -0.5491 -1.0188 -0.4868
16091TIP3    H269765   3.135   0.403   3.748  0.5119  1.2779  1.4678
16092TIP3   OH269766   0.124   0.003   6.996 -0.0330 -0.0282 -0.1866
16092TIP3    H169767   0.101   0.036   6.909  0.4809  0.4630 -0.1454
16092TIP3    H269768   0.075   0.058   7.057  1.5996  1.3965 -0.0765
16093TIP3   OH269769   3.108   0.039   2.900 -0.0261  0.4537 -0.0890
16093TIP3    H169770   3.020   0.054   2.867 -1.2914 -3.5036  0.9365
16093TIP3    H269771   3.151  -0.012   2.831  1.0499  1.2102 -0.0132
16094TIP3   OH269772   4.093   1.862  16.495 -0.0960 -0.6389 -0.2751
16094TIP3    H169773   4.108   1.790  16.434  0.3194 -1.7079  1.0406
16094TIP3    H269774   4.044   1.927  16.444 -0.2526 -1.7282 -1.5706
16095TIP3   OH269775   2.270   4.972  12.532  0.5347 -0.2599  0.1910
16095TIP3    H169776   2.262   5.056  12.489  2.4294 -0.3959 -0.4980
16095TIP3    H269777   2.199   4.919  12.496 -0.2616  0.8167  0.1482
16096TIP3   OH269778   3.368   2.655   6.017  0.6246  0.8355  0.2286
16096TIP3    H169779   3.433   2.643   5.949  0.8199  0.0418  0.5430
16096TIP3    H269780   3.398   2.731   6.066  0.3130  1.6059 -0.7425
16097TIP3   OH269781   4.357   1.226  15.439  0.0899 -0.0501 -0.6596
16097TIP3    H169782   4.449   1.237  15.464  0.4068 -1.6874 -0.9985
16097TIP3    H269783   4.348   1.132  15.423 -1.7621  0.0151 -0.1767
16098TIP3   OH269784   2.345   0.751  15.341  0.1126  0.2051 -0.0142
16098TIP3    H169785   2.347   0.683  15.273  2.0108  0.5273 -0.3267
16098TIP3    H269786   2.437   0.773  15.356 -0.4345  3.2344 -0.4488
16099TIP3   OH269787   3.239   4.775   2.263  0.4975  0.1699 -0.2907
16099TIP3    H169788   3.277   4.745   2.345  0.3424  0.0298 -0.2705
16099TIP3    H269789   3.202   4.861   2.283  0.8688  0.3435 -0.3295
16100TIP3   OH269790   5.918   0.952  11.174  0.3822  0.2729  0.1682
16100TIP3    H169791   5.937   0.969  11.082  0.7602  0.2493  0.2431
16100TIP3    H269792   5.975   0.879  11.198  0.2331  0.2314  0.4048
16101TIP3   OH269793   6.399   0.960  13.011  0.0236 -0.3255 -0.3223
16101TIP3    H169794   6.342   0.890  12.981 -0.5661  0.5177 -1.2278
16101TIP3    H269795   6.483   0.942  12.970 -0.3793  0.0027 -1.3131
16102TIP3   OH269796   1.861   4.362   0.916 -0.3066 -0.4552  0.8768
16102TIP3    H169797   1.835   4.276   0.949 -0.2680 -1.3621 -1.2724
16102TIP3    H269798   1.956   4.366   0.929 -0.4483 -0.2693  1.9331
16103TIP3   OH269799   1.507   6.018  12.419 -0.2755  0.1220 -0.4302
16103TIP3    H169800   1.490   6.094  12.363 -3.0762 -0.2778 -0.2968
16103TIP3    H269801   1.521   5.945  12.358 -2.0886 -0.0710 -0.6734
16104TIP3   OH269802   2.345   2.751  11.397 -0.0529 -0.5412 -0.1294
16104TIP3    H169803   2.426   2.709  11.370 -0.2661 -1.4786  0.6473
16104TIP3    H269804   2.289   2.747  11.319 -0.1028 -1.8039 -0.0537
16105TIP3   OH269805   4.083   2.492   3.254  0.0197 -0.3166  0.4394
16105TIP3    H169806   4.011   2.538   3.209 -0.0539 -0.0136  0.8577
16105TIP3    H269807   4.154   2.491   3.190 -0.1915 -0.1676  0.2001
16106TIP3   OH269808   3.300   3.092   5.305 -0.5991 -0.1369  0.2043
16106TIP3    H169809   3.280   3.173   5.259 -1.4391 -0.5575 -0.1869
16106TIP3    H269810   3.350   3.040   5.241 -0.3230 -0.0524  0.3498
16107TIP3   OH269811   6.805   1.800   4.142 -0.1775 -0.4321 -0.3560
16107TIP3    H169812   6.878   1.758   4.187 -1.5929 -2.0623  0.5824
16107TIP3    H269813   6.843   1.838   4.063  1.5215 -2.0609 -0.3920
16108TIP3   OH269814   4.084   2.192  14.689  0.2405  0.2015 -0.1802
16108TIP3    H169815   4.091   2.197  14.593  1.2177  1.1564 -0.0740
16108TIP3    H269816   3.998   2.153  14.704 -0.1904  0.5988 -1.4436
16109TIP3   OH269817   3.474   3.105   1.349  0.0738 -0.4383  0.4207
16109TIP3    H169818   3.418   3.040   1.305  3.0370 -3.8496  1.1638
16109TIP3    H269819   3.458   3.090   1.443  1.7771 -1.1983  0.6303
16110TIP3   OH269820   5.691   1.622   2.733  0.0054  0.0786 -0.1927
16110TIP3    H169821   5.736   1.705   2.744  0.5090 -0.0596 -1.1965
16110TIP3    H269822   5.698   1.580   2.819 -0.8184  1.3222  0.5254
16111TIP3   OH269823   5.562   4.875  11.018 -0.5364  0.4516 -0.6005
16111TIP3    H169824   5.530   4.938  11.083 -3.1844  0.8745 -2.1650
16111TIP3    H269825   5.496   4.806  11.018  0.4489 -0.5176 -1.4659
16112TIP3   OH269826   4.170   1.130  14.114  0.1522  0.2806  0.2396
16112TIP3    H169827   4.247   1.173  14.150 -0.2074  1.7630 -0.6916
16112TIP3    H269828   4.099   1.153  14.175 -0.0807  1.2150 -0.3665
16113TIP3   OH269829   4.859   1.460  14.143  0.1460 -0.2928  0.1136
16113TIP3    H169830   4.767   1.457  14.167  0.4925  1.1189  1.8644
16113TIP3    H269831   4.887   1.369  14.139 -0.7177 -0.7107  2.2440
16114TIP3   OH269832   3.467   5.598  16.912  0.1438  0.4837 -0.1744
16114TIP3    H169833   3.486   5.664  16.845 -3.1517  1.3972 -0.3523
16114TIP3    H269834   3.382   5.561  16.887 -0.4728 -0.2699  2.6457
16115TIP3   OH269835   1.305   1.428   1.641  0.4007 -0.0502  0.3071
16115TIP3    H169836   1.294   1.361   1.708 -1.6254 -1.1597 -1.0556
16115TIP3    H269837   1.361   1.494   1.683  0.4649 -1.4069  2.5268
16116TIP3   OH269838   1.671   0.680   1.870 -0.2440  0.4873 -0.1035
16116TIP3    H169839   1.584   0.720   1.863 -0.3921  0.0868 -0.5725
16116TIP3    H269840   1.716   0.707   1.790  0.2325  1.0839  0.3551
16117TIP3   OH269841   2.220   1.649   0.128  0.2470  0.1011  0.0781
16117TIP3    H169842   2.182   1.667   0.214  0.9623  1.7079  0.0982
16117TIP3    H269843   2.256   1.561   0.135  0.5314  0.3158  1.5129
16118TIP3   OH269844   4.309   5.434  17.156  0.4992  0.0553 -0.3130
16118TIP3    H169845   4.369   5.359  17.163  1.7850  1.1094  0.4662
16118TIP3    H269846   4.265   5.421  17.072  3.1891  0.1665 -1.8769
16119TIP3   OH269847   3.700   6.729  13.200 -0.2936  0.1325 -0.6709
16119TIP3    H169848   3.752   6.685  13.133  0.9209 -0.1080  0.3901
16119TIP3    H269849   3.670   6.659  13.258  0.0533  0.4943 -0.0431
16120TIP3   OH269850   1.969   0.212  10.352  0.2578 -0.2472 -0.5423
16120TIP3    H169851   1.976   0.306  10.336 -0.9457  0.2013  1.1837
16120TIP3    H269852   2.059   0.179  10.349  0.7941  1.1409 -0.2217
16121TIP3   OH269853   0.018   3.615  14.168  0.7349 -0.1216 -0.1023
16121TIP3    H169854   0.030   3.707  14.144 -0.8860 -0.2164 -1.4148
16121TIP3    H269855   0.049   3.566  14.091  1.0162 -0.6666  0.3492
16122TIP3   OH269856   6.183   4.049   0.740  0.3954 -0.5783  0.5944
16122TIP3    H169857   6.245   4.012   0.802 -0.3245 -0.4735  1.3844
16122TIP3    H269858   6.234   4.061   0.660  1.0047 -1.9323  0.7529
16123TIP3   OH269859   5.589   0.817  11.700 -0.1966  0.0278 -0.1251
16123TIP3    H169860   5.534   0.822  11.779 -0.8416  0.1003 -0.5720
16123TIP3    H269861   5.666   0.767  11.728  0.7270  2.0514  1.2005
16124TIP3   OH269862   1.120   6.794  11.465 -0.1374  0.3396 -0.4614
16124TIP3    H169863   1.211   6.764  11.472 -0.1780  0.2535 -0.2864
16124TIP3    H269864   1.124   6.871  11.408 -0.0445 -0.0398 -0.9709
16125TIP3   OH269865   6.517   3.311   5.670  0.4088  0.0471  0.2290
16125TIP3    H169866   6.488   3.331   5.580  0.2527 -1.3686 -0.0620
16125TIP3    H269867   6.588   3.247   5.658  1.8786  1.4698  1.0498
16126TIP3   OH269868   3.305   6.415   3.759 -0.0965 -0.1958 -0.3022
16126TIP3    H169869   3.288   6.364   3.680  1.5845 -0.6655 -0.4027
16126TIP3    H269870   3.242   6.381   3.823 -1.4229  0.1370 -1.3904
16127TIP3   OH269871   2.155   5.485  11.013  0.3384  0.1637 -0.5757
16127TIP3    H169872   2.224   5.539  11.050 -0.3533  0.5326  0.2037
16127TIP3    H269873   2.155   5.506  10.920  1.0740  0.3757 -0.5345
16128TIP3   OH269874   1.024   5.732   2.614 -0.3987 -0.3874  0.2477
16128TIP3    H169875   1.107   5.780   2.614 -0.8002  0.3733  1.2759
16128TIP3    H269876   0.960   5.796   2.581 -0.6945 -0.7135  0.1884
16129TIP3   OH269877   4.019   1.934   6.217  0.2925  0.2298  0.9076
16129TIP3    H169878   3.988   1.862   6.272  0.5793  0.1276  0.9357
16129TIP3    H269879   4.102   1.904   6.182 -0.2336 -0.0010 -0.1802
16130TIP3   OH269880   5.853   1.215   1.887 -0.2292  0.1958 -0.1592
16130TIP3    H169881   5.869   1.136   1.938  0.4924  0.9526  0.8061
16130TIP3    H269882   5.770   1.248   1.920 -1.3360 -0.9646 -1.6397
16131TIP3   OH269883   3.762   2.684   2.215 -0.5669 -0.3196 -0.5315
16131TIP3    H169884   3.857   2.670   2.213 -0.5228 -0.0056 -0.6129
16131TIP3    H269885   3.741   2.717   2.128 -0.9316 -1.5168 -0.9111
16132TIP3   OH269886   3.882   4.008   1.888  0.1132  0.3149  0.0794
16132TIP3    H169887   3.955   4.039   1.834 -0.0223  2.1476  0.8980
16132TIP3    H269888   3.804   4.040   1.843 -0.1438 -0.4819 -0.0630
16133TIP3   OH269889   2.113   4.074   4.286  0.0159 -0.0037 -0.3209
16133TIP3    H169890   2.028   4.040   4.313 -0.6079  1.8932  0.2904
16133TIP3    H269891   2.135   4.140   4.352  1.8327 -0.2319 -0.6322
16134TIP3   OH269892   0.839   3.766   2.334 -0.0706  0.7805 -0.2367
16134TIP3    H169893   0.745   3.752   2.328 -0.2565  2.4291 -1.9693
16134TIP3    H269894   0.877   3.693   2.284 -0.4645  0.7171 -0.4470
16135TIP3   OH269895   6.566   0.665   3.489 -0.1472  0.2158 -0.2276
16135TIP3    H169896   6.489   0.610   3.503  0.2659 -0.1185  0.8360
16135TIP3    H269897   6.552   0.706   3.403 -1.0217 -0.6252 -0.4962
16136TIP3   OH269898   1.400   2.189   5.183  0.6993  0.5797 -0.1485
16136TIP3    H169899   1.347   2.195   5.262  0.7870 -1.2101  0.0904
16136TIP3    H269900   1.482   2.148   5.212 -0.0924 -2.2016 -1.4276
16137TIP3   OH269901   2.267   0.553   1.214 -0.3786  0.1097  0.2528
16137TIP3    H169902   2.267   0.459   1.195  0.4483  0.2355 -0.4149
16137TIP3    H269903   2.353   0.569   1.252 -0.3675  0.6736 -0.0112
16138TIP3   OH269904   5.807   0.096  11.314 -0.4770 -0.0314 -0.4606
16138TIP3    H169905   5.847   0.158  11.375  1.3689 -1.2713 -0.3143
16138TIP3    H269906   5.718   0.083  11.348  0.4832 -0.7189  2.0587
16139TIP3   OH269907   3.995   2.914  12.492  0.0109 -0.0401 -0.0164
16139TIP3    H169908   4.044   2.973  12.435 -0.0553 -0.2609 -0.3019
16139TIP3    H269909   3.914   2.961  12.512  0.2259  0.2207  0.2547
16140TIP3   OH269910   2.418   1.303   1.169 -0.1976 -0.3637 -0.1696
16140TIP3    H169911   2.492   1.338   1.220 -0.5496 -0.0778  0.1510
16140TIP3    H269912   2.400   1.218   1.209  0.1189 -0.5461 -0.4105
16141TIP3   OH269913   0.746   4.740   1.565  0.0211 -0.1463  0.1551
16141TIP3    H169914   0.761   4.832   1.586  2.0974 -0.1702 -0.9656
16141TIP3    H269915   0.674   4.741   1.501  2.0409  1.0495 -2.2442
16142TIP3   OH269916   6.020   5.883   0.185  0.1072 -0.1984  0.4783
16142TIP3    H169917   5.945   5.935   0.156  1.5751  1.4774 -0.4962
16142TIP3    H269918   6.066   5.939   0.247  0.8946 -0.9500  0.5976
16143TIP3   OH269919   3.059   3.365   2.285  0.0909 -0.0927  0.0041
16143TIP3    H169920   3.079   3.371   2.192  1.4425 -1.6865  0.1404
16143TIP3    H269921   3.140   3.389   2.329 -0.9190  2.0290  0.8667
16144TIP3   OH269922   0.296   2.977  13.765 -0.1525 -0.2759  0.5725
16144TIP3    H169923   0.370   2.969  13.705  0.0931 -0.6294  0.9168
16144TIP3    H269924   0.253   3.059  13.740  0.1229 -0.2721  0.1119
16145TIP3   OH269925   6.078   0.168  15.954  0.1602  0.2732 -0.5514
16145TIP3    H169926   6.110   0.079  15.942 -0.3936  0.0819 -0.6269
16145TIP3    H269927   6.115   0.196  16.037  0.0740 -0.1474 -0.3703
16146TIP3   OH269928   1.428   3.265  15.061 -0.2627 -0.0253  0.2084
16146TIP3    H169929   1.359   3.313  15.107  0.1108 -1.1600  2.0559
16146TIP3    H269930   1.381   3.204  15.004 -0.7549  0.5679 -0.0326
16147TIP3   OH269931   2.010   6.181   4.830  0.2139  0.2619 -0.5873
16147TIP3    H169932   2.091   6.169   4.878  0.4911  0.0682 -1.0902
16147TIP3    H269933   1.941   6.175   4.896  0.4363 -2.2794 -0.4991
16148TIP3   OH269934   2.595   1.871  13.217  0.6748 -0.9108  0.1304
16148TIP3    H169935   2.534   1.890  13.288 -0.0123 -1.0725 -0.4106
16148TIP3    H269936   2.563   1.923  13.143  0.7816 -1.5382 -0.3612
16149TIP3   OH269937   4.770   0.827  15.434 -0.0518  0.6579  0.3504
16149TIP3    H169938   4.846   0.817  15.490 -0.5524  0.7766  1.0566
16149TIP3    H269939   4.806   0.860  15.351  0.9251 -1.4633 -0.1197
16150TIP3   OH269940   2.551   2.952   5.897  0.2798 -0.0537 -1.1851
16150TIP3    H169941   2.601   2.904   5.831  2.0361  2.6539 -1.9453
16150TIP3    H269942   2.507   3.022   5.849 -1.1463 -0.0272  0.0703
16151TIP3   OH269943   5.088   3.604   0.900  0.5653  0.2998 -0.0366
16151TIP3    H169944   5.130   3.688   0.918 -1.1052  1.0610  0.5499
16151TIP3    H269945   5.154   3.554   0.852  2.0464  1.4710  0.6842
16152TIP3   OH269946   2.560   0.338   2.448  0.0800  0.2637  0.6881
16152TIP3    H169947   2.518   0.417   2.484  0.7149  0.2112  1.5691
16152TIP3    H269948   2.592   0.365   2.362 -1.8771  0.2590 -0.0882
16153TIP3   OH269949   0.732   0.117  13.623  0.5694 -0.0452  0.3207
16153TIP3    H169950   0.657   0.106  13.682 -1.6197  1.0835 -2.0445
16153TIP3    H269951   0.717   0.203  13.582  3.5600  0.5332  0.2125
16154TIP3   OH269952   0.013   0.163  14.747  0.0291  0.5832  0.5899
16154TIP3    H169953   0.076   0.233  14.765  0.0359  0.5178  0.8142
16154TIP3    H269954   0.050   0.085  14.789 -0.3920  0.6279  1.0575
16155TIP3   OH269955   4.995   1.701   3.936  0.0884 -0.0923  0.4590
16155TIP3    H169956   5.025   1.634   3.998  0.5209 -0.1599  0.1805
16155TIP3    H269957   5.076   1.736   3.899 -0.1636  0.1286  0.1248
16156TIP3   OH269958   6.753   4.600   1.639 -0.6541 -0.6877 -0.3290
16156TIP3    H169959   6.713   4.550   1.568 -0.6935  1.2007 -1.7043
16156TIP3    H269960   6.847   4.589   1.625 -0.5323 -3.5147  1.7473
16157TIP3   OH269961   5.187   3.556   4.918  0.3135 -0.2395 -0.4878
16157TIP3    H169962   5.168   3.591   5.005 -0.6695  0.1344 -0.8424
16157TIP3    H269963   5.277   3.584   4.900  0.8457 -1.0926  0.7719
16158TIP3   OH269964   6.176   3.343  13.736  0.1357 -0.3581 -0.0272
16158TIP3    H169965   6.094   3.386  13.714  0.5485  0.2066 -0.5089
16158TIP3    H269966   6.167   3.254  13.701 -0.1446 -0.2014 -0.3628
16159TIP3   OH269967   5.485   0.895   3.220 -0.1882  0.0690  0.4057
16159TIP3    H169968   5.521   0.984   3.214  0.0876 -0.0869 -0.3443
16159TIP3    H269969   5.500   0.857   3.133 -2.9668  0.3052 -0.2711
16160TIP3   OH269970   1.532   4.976  14.885 -0.1363  0.0699 -0.1513
16160TIP3    H169971   1.550   5.017  14.800 -0.4091 -1.1777 -0.8352
16160TIP3    H269972   1.596   4.905  14.892 -0.2061  0.0781  0.6252
16161TIP3   OH269973   3.249   1.678  14.279 -0.2413  0.1741  1.1461
16161TIP3    H169974   3.175   1.702  14.223 -0.0637 -1.5641  0.0889
16161TIP3    H269975   3.324   1.676  14.221 -0.3538 -3.4955  0.8736
16162TIP3   OH269976   6.545   1.569  17.156  0.1368  0.1912 -0.4941
16162TIP3    H169977   6.639   1.570  17.173  0.0161  0.5841  0.1960
16162TIP3    H269978   6.534   1.508  17.083  1.1980  1.9684 -2.2582
16163TIP3   OH269979   2.557   3.340  15.145 -0.4999 -0.1218  0.0580
16163TIP3    H169980   2.486   3.336  15.209 -1.7270 -0.8855 -1.2858
16163TIP3    H269981   2.518   3.309  15.063  1.7893 -2.1320 -0.3900
16164TIP3   OH269982   2.827   6.127  14.508  0.5450  0.5311 -0.0374
16164TIP3    H169983   2.903   6.182  14.487  0.4378  1.8341  2.5998
16164TIP3    H269984   2.829   6.119  14.603 -0.4346 -2.7228 -0.1627
16165TIP3   OH269985   3.198   1.199  16.773 -0.3441 -0.3842 -0.6084
16165TIP3    H169986   3.133   1.170  16.837  0.5848 -0.3579  0.3667
16165TIP3    H269987   3.216   1.290  16.797 -0.0594 -0.3406 -0.9783
16166TIP3   OH269988   4.785   1.968  15.272 -0.1725  0.0001  0.5200
16166TIP3    H169989   4.701   2.014  15.268 -0.9701 -1.3406  1.0894
16166TIP3    H269990   4.813   1.979  15.363  0.1889  0.2888  0.3764
16167TIP3   OH269991   4.841   0.631  11.421  0.0857 -0.8758 -0.9232
16167TIP3    H169992   4.890   0.552  11.444  0.8587  0.1604  1.2476
16167TIP3    H269993   4.908   0.698  11.406 -0.5942 -0.2865 -1.4049
16168TIP3   OH269994   5.584   3.067  14.922 -0.3782  0.3407  0.4442
16168TIP3    H169995   5.591   2.975  14.895  3.6974  1.3652 -3.0979
16168TIP3    H269996   5.633   3.072  15.004  0.4915 -0.4799 -0.0084
16169TIP3   OH269997   6.652   6.246  16.419 -0.2653  0.0270  0.2608
16169TIP3    H169998   6.691   6.325  16.456 -1.1404  0.6736 -0.1660
16169TIP3    H269999   6.714   6.217  16.352 -0.1755  0.6437  0.0717
16170TIP3   OH270000   6.798   4.412   5.801  0.1987 -0.0315  0.1505
16170TIP3    H170001   6.793   4.500   5.838 -1.5605 -0.0141 -0.0432
16170TIP3    H270002   6.828   4.357   5.874  1.3270  0.7145  0.2611
16171TIP3   OH270003   4.213   2.475  12.001  0.2906 -0.6722 -0.1022
16171TIP3    H170004   4.206   2.488  11.906  0.3667  1.2938  0.1069
16171TIP3    H270005   4.303   2.500  12.022 -0.2680  0.8278  0.6994
16172TIP3   OH270006   0.109   2.203  15.118 -0.8378  0.0648 -0.2276
16172TIP3    H170007   0.088   2.155  15.038  0.5918 -0.8064 -0.1148
16172TIP3    H270008   0.166   2.144  15.167 -1.6028  0.6085  1.4150
16173TIP3   OH270009   1.006   0.477   1.849  0.6440  0.2369 -0.4157
16173TIP3    H170010   1.029   0.504   1.760 -0.7310 -1.8650 -1.5035
16173TIP3    H270011   1.048   0.391   1.860  0.5831  0.3462  0.8635
16174TIP3   OH270012   5.475   4.620   4.977 -0.1911  0.4641 -0.3744
16174TIP3    H170013   5.528   4.544   4.957 -1.9269 -0.7605 -0.5619
16174TIP3    H270014   5.468   4.621   5.072  0.9030  1.1943 -0.2799
16175TIP3   OH270015   1.370   0.598   4.918  0.2872 -0.1962 -0.2612
16175TIP3    H170016   1.297   0.602   4.980  0.8903 -0.2376  0.4781
16175TIP3    H270017   1.388   0.689   4.897  0.9953 -0.0755  0.7624
16176TIP3   OH270018   2.826   4.117  13.365 -0.4025  0.0995  0.3141
16176TIP3    H170019   2.758   4.150  13.307  0.3290  3.0145  0.9596
16176TIP3    H270020   2.903   4.108  13.310 -0.3943  0.2663  0.2984
16177TIP3   OH270021   5.318   3.745  10.430 -0.1435  0.2369  0.0341
16177TIP3    H170022   5.349   3.772  10.343  1.7542 -1.5068  0.1115
16177TIP3    H270023   5.397   3.737  10.482 -0.9877 -1.5142  1.1219
16178TIP3   OH270024   1.538   4.302  10.658  0.3783 -0.3002 -0.0686
16178TIP3    H170025   1.592   4.376  10.633  1.4336 -1.2753 -0.7778
16178TIP3    H270026   1.449   4.337  10.659  0.6457  0.6034 -2.0288
16179TIP3   OH270027   5.358   5.685   0.125 -0.2599 -0.1125  0.0179
16179TIP3    H170028   5.358   5.591   0.141 -0.7142  0.2372  2.4021
16179TIP3    H270029   5.266   5.708   0.112 -0.1580  0.0267 -0.4914
16180TIP3   OH270030   3.465   4.777  15.750 -0.4237 -0.6906  0.4581
16180TIP3    H170031   3.511   4.703  15.710 -1.0977 -0.7680 -0.1978
16180TIP3    H270032   3.460   4.755  15.843  0.9654 -0.6220  0.5692
16181TIP3   OH270033   3.045   1.968   1.864  0.0065 -0.3397  0.2920
16181TIP3    H170034   2.959   1.929   1.877 -0.5296  1.0962  1.2848
16181TIP3    H270035   3.027   2.060   1.841  1.2669  0.1378  1.1001
16182TIP3   OH270036   4.209   2.943   5.134 -0.2295 -0.1477  0.5637
16182TIP3    H170037   4.126   2.903   5.107 -0.9342  0.2088  2.1385
16182TIP3    H270038   4.186   2.999   5.208  1.2946  0.6040  0.4974
16183TIP3   OH270039   4.283   3.380   3.408  0.0011  0.0203 -0.1593
16183TIP3    H170040   4.342   3.455   3.410  0.8259 -0.6149  0.3320
16183TIP3    H270041   4.281   3.349   3.499 -1.4097  0.2572 -0.0913
16184TIP3   OH270042   3.381   2.963   3.036  0.2896  0.3962  0.3354
16184TIP3    H170043   3.438   3.040   3.035  0.4719  0.2619 -0.5925
16184TIP3    H270044   3.386   2.928   2.947 -0.3742 -0.2621  0.5436
16185TIP3   OH270045   0.122   1.089   4.369 -0.1650 -0.4976 -0.2285
16185TIP3    H170046   0.175   1.044   4.303 -1.4621  0.8072 -2.2749
16185TIP3    H270047   0.178   1.159   4.402  0.5072 -1.1824  0.1339
16186TIP3   OH270048   2.460   3.874   4.176  0.1416  0.2553 -0.1877
16186TIP3    H170049   2.491   3.845   4.090 -0.2314 -0.9974  0.0781
16186TIP3    H270050   2.517   3.947   4.198  0.6552  0.1934 -1.2223
16187TIP3   OH270051   6.575   5.734   0.010  0.3480 -0.5541 -0.0678
16187TIP3    H170052   6.584   5.644   0.042 -0.4374 -1.0874 -1.2746
16187TIP3    H270053   6.613   5.788   0.079 -0.8533 -1.6898  1.5607
16188TIP3   OH270054   0.607   3.746   0.003 -0.4623 -0.6467 -0.0647
16188TIP3    H170055   0.525   3.784   0.036 -1.1734 -0.6591 -1.7158
16188TIP3    H270056   0.646   3.815  -0.050  0.5110 -0.7158  0.5447
16189TIP3   OH270057   5.094   6.453   0.379  0.0160  0.4622  0.1424
16189TIP3    H170058   5.074   6.384   0.316  0.5950 -0.4377  0.9225
16189TIP3    H270059   5.181   6.430   0.412  0.0874  1.4102  0.6267
16190TIP3   OH270060   4.502   5.583   3.836  0.1108  0.0782 -0.0405
16190TIP3    H170061   4.498   5.631   3.919  1.4218  1.9405 -0.9817
16190TIP3    H270062   4.581   5.616   3.793  0.5151 -2.2220 -1.2354
16191TIP3   OH270063   0.051   0.854   3.309 -0.0216  0.4301  0.2087
16191TIP3    H170064   0.100   0.896   3.238 -1.2821  0.7872 -0.4744
16191TIP3    H270065   0.033   0.766   3.276 -0.7720  0.6578  0.0035
16192TIP3   OH270066   0.158   4.824   1.423 -1.1907 -0.2719  0.5707
16192TIP3    H170067   0.112   4.741   1.435 -0.5150 -0.9555 -1.2470
16192TIP3    H270068   0.240   4.812   1.471 -0.7581 -0.9735 -0.3140
16193TIP3   OH270069   1.369   3.284  14.182  0.2247  0.4998  0.1252
16193TIP3    H170070   1.372   3.330  14.265 -0.7075 -1.2367  1.1770
16193TIP3    H270071   1.454   3.302  14.141  0.8505  1.0654  1.6109
16194TIP3   OH270072   0.727   2.489   5.112 -0.9000 -0.5238 -0.2481
16194TIP3    H170073   0.795   2.456   5.054 -0.5482  0.0020 -0.1466
16194TIP3    H270074   0.731   2.584   5.101 -1.0093 -0.4359  0.4433
16195TIP3   OH270075   0.089   1.085  13.733  0.3739  0.0060 -0.3124
16195TIP3    H170076   0.104   1.081  13.639  1.5119  0.4790 -0.1650
16195TIP3    H270077   0.062   0.996  13.757 -0.1929 -0.0435 -1.1224
16196TIP3   OH270078   3.008   5.993   2.837 -0.3755 -0.2091  0.0890
16196TIP3    H170079   3.055   6.024   2.914 -1.1270  1.8953 -0.2228
16196TIP3    H270080   3.057   5.917   2.807  1.1914  0.2537  1.3759
16197TIP3   OH270081   0.090   6.399  12.406 -0.2230 -0.4477 -0.1656
16197TIP3    H170082   0.158   6.390  12.473  0.7902 -0.2051 -1.1350
16197TIP3    H270083   0.022   6.337  12.433  0.5550 -0.9921  0.6171
16198TIP3   OH270084   4.784   2.534  14.606  0.1646  0.2303  0.1946
16198TIP3    H170085   4.727   2.605  14.579  1.0014  0.6790 -0.4279
16198TIP3    H270086   4.812   2.557  14.695 -1.4606 -0.5380  0.9440
16199TIP3   OH270087   4.035   3.647   1.574 -0.1854 -0.2413  0.3115
16199TIP3    H170088   3.949   3.651   1.533  0.3915  0.0033 -0.9181
16199TIP3    H270089   4.017   3.636   1.667 -1.5350 -0.7560  0.0083
16200TIP3   OH270090   3.320   5.451  11.962 -0.1108  0.2822 -0.2871
16200TIP3    H170091   3.401   5.401  11.973 -0.5893 -0.5947 -0.6831
16200TIP3    H270092   3.348   5.533  11.921  0.5642 -0.0673 -0.5468
16201TIP3   OH270093   1.924   3.829  12.984 -0.0227 -0.1523 -0.1705
16201TIP3    H170094   1.949   3.894  13.049 -0.7387 -0.5842  0.5505
16201TIP3    H270095   1.833   3.850  12.962  0.2839  0.1440 -1.2347
16202TIP3   OH270096   1.557   0.302  14.266 -0.5122  0.1077  0.7485
16202TIP3    H170097   1.522   0.280  14.179 -2.1872  0.2475  1.3410
16202TIP3    H270098   1.576   0.395  14.261  0.4095 -0.0999  0.2170
16203TIP3   OH270099   1.437   1.483  17.095  0.8575  0.2803  0.2977
16203TIP3    H170100   1.495   1.499  17.021  0.2593  0.7885 -0.0592
16203TIP3    H270101   1.414   1.390  17.087 -0.4046  0.6813 -1.0257
16204TIP3   OH270102   5.313   5.328  14.847 -0.0487 -0.0661  0.0306
16204TIP3    H170103   5.272   5.388  14.785 -0.4541  1.1856  1.4340
16204TIP3    H270104   5.380   5.380  14.890  0.2096 -0.8930  0.6596
16205TIP3   OH270105   4.111   4.939   2.072  0.1810  0.6313  0.0022
16205TIP3    H170106   4.121   4.885   2.150  0.0759  0.9964  0.2723
16205TIP3    H270107   4.043   4.895   2.021  1.3552 -0.4811 -0.6565
16206TIP3   OH270108   1.397   3.098  13.993 -0.7071 -0.8014 -0.6612
16206TIP3    H170109   1.387   3.009  14.024 -1.1623  0.0719  1.9627
16206TIP3    H270110   1.374   3.153  14.068  2.3671  1.5379 -1.2003
16207TIP3   OH270111   0.975   6.339   2.718  0.2282 -0.8240  0.1407
16207TIP3    H170112   1.022   6.256   2.727  0.3815 -0.6355  1.3472
16207TIP3    H270113   1.032   6.403   2.763 -0.4854 -0.3202  0.3428
16208TIP3   OH270114   6.188   2.729  11.383 -0.1545 -0.2027  0.1536
16208TIP3    H170115   6.199   2.781  11.304 -0.8799 -0.5267 -0.1757
16208TIP3    H270116   6.194   2.791  11.455 -1.4815  0.4391 -0.2481
16209TIP3   OH270117   0.976   1.751   4.565 -0.3131 -0.0481 -0.2211
16209TIP3    H170118   1.011   1.675   4.611  0.2311  0.4996  0.3096
16209TIP3    H270119   1.044   1.774   4.502  2.0941  3.0568  3.0532
16210TIP3   OH270120   1.823   5.400  12.948 -0.0573  0.0709  0.9757
16210TIP3    H170121   1.751   5.454  12.915 -0.7316 -0.8884  0.8401
16210TIP3    H270122   1.900   5.431  12.900 -0.8753 -0.8147 -1.0198
16211TIP3   OH270123   4.403   5.695  15.703  0.0588 -0.0155 -0.8180
16211TIP3    H170124   4.383   5.716  15.611 -0.1122 -0.4051 -0.8742
16211TIP3    H270125   4.325   5.648  15.733 -0.5663  1.4640  0.0017
16212TIP3   OH270126   5.855   2.832   3.545 -0.1632  0.2934  0.1807
16212TIP3    H170127   5.942   2.799   3.568 -0.3808  0.6583  1.6524
16212TIP3    H270128   5.849   2.917   3.589 -1.7800 -0.3542  1.3164
16213TIP3   OH270129   2.612   3.167   2.957 -0.5113  0.2851 -0.5487
16213TIP3    H170130   2.653   3.196   2.875 -1.2301 -0.8506 -1.3370
16213TIP3    H270131   2.585   3.247   3.001 -0.4319  0.8981 -1.6006
16214TIP3   OH270132   4.510   1.469  16.773 -0.2614  0.2817 -0.5027
16214TIP3    H170133   4.564   1.472  16.852  1.1365  0.3128 -1.4160
16214TIP3    H270134   4.519   1.378  16.742  0.5045  0.6657 -1.4624
16215TIP3   OH270135   4.158   3.399  15.926  0.3855  0.0363  0.2691
16215TIP3    H170136   4.091   3.338  15.958 -0.1915  0.5766  0.0997
16215TIP3    H270137   4.240   3.366  15.963  0.4659 -2.2174 -1.6087
16216TIP3   OH270138   2.871   0.308  15.234 -0.0930 -0.0182 -0.7523
16216TIP3    H170139   2.782   0.343  15.240 -0.0489 -0.1663  1.4435
16216TIP3    H270140   2.864   0.235  15.172 -1.4099  0.2266 -0.9140
16217TIP3   OH270141   2.087   4.454   4.600 -0.5340 -0.0503  0.3167
16217TIP3    H170142   2.147   4.448   4.674  0.4552 -0.7302 -0.5140
16217TIP3    H270143   2.036   4.533   4.617  2.7174  2.4152 -0.4709
16218TIP3   OH270144   2.157   1.084  13.793  0.0363  0.0713 -0.8445
16218TIP3    H170145   2.175   1.176  13.773 -2.1432  0.6343 -0.4017
16218TIP3    H270146   2.070   1.068  13.756  0.3538 -1.8099 -0.8404
16219TIP3   OH270147   3.706   4.957   0.246  0.0407  0.4138 -0.1752
16219TIP3    H170148   3.661   4.902   0.311  0.6530  1.4079  1.1324
16219TIP3    H270149   3.676   5.046   0.264  0.7683  0.8009 -0.7897
16220TIP3   OH270150   0.219   0.077   4.447  0.4867 -0.0312  0.0953
16220TIP3    H170151   0.192   0.045   4.361  2.5976  0.3903 -0.7776
16220TIP3    H270152   0.179   0.163   4.454  1.8562  0.7596 -1.3415
16221TIP3   OH270153   6.399   2.068  15.727 -0.1521 -0.5539  0.6687
16221TIP3    H170154   6.478   2.120  15.711 -0.3881 -0.5502 -0.6608
16221TIP3    H270155   6.400   2.002  15.658 -0.8849 -1.0728  1.1429
16222TIP3   OH270156   1.061   5.996   5.537  0.1883  0.8562 -0.0870
16222TIP3    H170157   1.074   6.091   5.536 -0.4698  0.9487 -0.4323
16222TIP3    H270158   1.057   5.973   5.630  1.3084  1.0240  0.0096
16223TIP3   OH270159   5.202   5.499   5.175  0.0352  0.6942 -0.7152
16223TIP3    H170160   5.136   5.454   5.122 -1.1287  0.5030  0.8166
16223TIP3    H270161   5.154   5.569   5.219  0.9867  0.9296 -0.0158
16224TIP3   OH270162   5.091   3.513  11.461  0.2710  0.0375  0.4073
16224TIP3    H170163   5.122   3.571  11.391 -1.0643 -0.2034 -0.4036
16224TIP3    H270164   5.150   3.437  11.457  1.2993  0.7818  0.7237
16225TIP3   OH270165   1.140   2.933  15.298 -0.1202  0.0061 -0.7258
16225TIP3    H170166   1.230   2.902  15.291  0.3842  1.5678 -1.6126
16225TIP3    H270167   1.109   2.937  15.207 -0.4786  1.1330 -0.5704
16226TIP3   OH270168   6.380   1.776   5.370  0.4543  0.0558 -0.1010
16226TIP3    H170169   6.428   1.694   5.359  1.1076  0.4893 -0.5664
16226TIP3    H270170   6.401   1.827   5.291 -0.8200  0.2420 -0.3421
16227TIP3   OH270171   1.290   4.935   4.782 -0.6017 -0.0905 -0.2305
16227TIP3    H170172   1.303   4.918   4.689 -2.6020 -0.3397 -0.5079
16227TIP3    H270173   1.344   4.869   4.826 -0.0521 -0.3156 -1.1976
16228TIP3   OH270174   0.250   6.339   2.647 -0.4928 -0.0877  0.2288
16228TIP3    H170175   0.199   6.335   2.566  0.8771  0.6837 -0.7120
16228TIP3    H270176   0.190   6.379   2.710 -1.8008 -1.2955 -0.1963
16229TIP3   OH270177   3.170   2.884   4.079 -0.4267 -0.1091 -0.5096
16229TIP3    H170178   3.120   2.901   3.999 -1.4264 -0.4262  0.0284
16229TIP3    H270179   3.111   2.833   4.134 -0.1275  0.9226  0.8260
16230TIP3   OH270180   3.477   3.713   4.445 -0.1839  0.4003 -0.2500
16230TIP3    H170181   3.501   3.642   4.386 -0.1711  1.0457 -1.0385
16230TIP3    H270182   3.402   3.756   4.403  0.7772  1.8137 -0.6045
16231TIP3   OH270183   1.449   0.775  16.302 -0.6188 -0.0581  0.1927
16231TIP3    H170184   1.358   0.783  16.333 -0.4115 -0.7998  1.0288
16231TIP3    H270185   1.486   0.705  16.356  1.2734  2.0630  1.8361
16232TIP3   OH270186   1.028   2.677  12.959 -0.4209 -0.6156  0.0594
16232TIP3    H170187   1.092   2.606  12.964 -0.6407 -0.7850  0.5993
16232TIP3    H270188   1.017   2.694  12.865  0.5533 -0.4551 -0.0313
16233TIP3   OH270189   0.619   1.385  10.781  0.4679 -0.0920 -0.4871
16233TIP3    H170190   0.568   1.330  10.722  1.0551 -1.3337  0.1095
16233TIP3    H270191   0.555   1.415  10.847  0.5779 -2.3210  0.7437
16234TIP3   OH270192   1.841   2.433   4.923  0.1038  0.1860 -0.5614
16234TIP3    H170193   1.908   2.373   4.891  1.0612 -0.2184  1.9993
16234TIP3    H270194   1.781   2.378   4.972 -0.9702  0.8609 -1.0805
16235TIP3   OH270195   5.527   5.799   5.301 -0.0903 -0.2358 -0.0797
16235TIP3    H170196   5.462   5.814   5.369  0.7925  0.0061  0.7334
16235TIP3    H270197   5.476   5.775   5.224 -1.0878 -1.2292  0.8515
16236TIP3   OH270198   5.656   2.529  11.789  0.4797 -0.3702 -0.0640
16236TIP3    H170199   5.720   2.460  11.806  0.1904 -0.7473 -0.4817
16236TIP3    H270200   5.571   2.485  11.793  0.1976  0.2397  1.0761
16237TIP3   OH270201   1.463   2.064   6.682  0.0024  0.2323 -0.2204
16237TIP3    H170202   1.522   2.091   6.753  0.4767  0.4223 -0.6837
16237TIP3    H270203   1.512   2.083   6.602 -0.0574 -1.0560 -0.5854
16238TIP3   OH270204   5.018   4.871  14.759 -0.2267  0.1988 -0.1655
16238TIP3    H170205   5.011   4.964  14.780  0.0530  0.2491 -0.2879
16238TIP3    H270206   5.061   4.832  14.835 -0.8381  0.0710  0.1271
16239TIP3   OH270207   4.358   1.435  11.551 -0.3482 -0.0809  0.0800
16239TIP3    H170208   4.277   1.384  11.546 -0.6542  0.4803 -1.0312
16239TIP3    H270209   4.344   1.496  11.623  0.2306 -1.8784  1.7917
16240TIP3   OH270210   2.032   6.416   5.028  0.1946  0.1822 -0.4684
16240TIP3    H170211   2.018   6.334   5.076  1.5488  0.3361  0.2281
16240TIP3    H270212   2.017   6.484   5.094  2.1249  0.3949 -0.1804
16241TIP3   OH270213   2.670   0.058   4.161  0.0347 -0.0902 -0.2001
16241TIP3    H170214   2.635   0.002   4.092  1.5428 -0.2686 -0.8708
16241TIP3    H270215   2.616   0.040   4.238 -1.9950  0.4461 -1.4320
16242TIP3   OH270216   1.196   3.928  13.231 -0.4622  0.2721  0.2633
16242TIP3    H170217   1.161   4.014  13.255 -0.4579  1.2031 -2.6426
16242TIP3    H270218   1.224   3.890  13.314  1.1141  3.7658  1.5585
16243TIP3   OH270219   1.771   1.034  16.877 -0.2705 -0.3386 -0.1693
16243TIP3    H170220   1.709   0.976  16.833 -1.1716  0.1362  0.4474
16243TIP3    H270221   1.855   0.987  16.872 -0.6558 -0.9641 -1.0599
16244TIP3   OH270222   2.863   5.271   2.460 -0.2801 -0.0427  0.2375
16244TIP3    H170223   2.786   5.315   2.424 -1.2280 -1.0922  0.9125
16244TIP3    H270224   2.927   5.272   2.389 -0.6987  1.3568 -0.1427
16245TIP3   OH270225   1.272   3.918   1.863  0.3910  0.3007  0.5292
16245TIP3    H170226   1.249   3.993   1.917  0.3449 -0.4195  1.5339
16245TIP3    H270227   1.309   3.854   1.924  0.6836 -0.3912 -0.3426
16246TIP3   OH270228   6.585   1.949   4.704  0.5863 -0.0546  0.5099
16246TIP3    H170229   6.623   1.982   4.785  2.7388 -0.2022 -0.3694
16246TIP3    H270230   6.660   1.919   4.653 -0.7906 -0.8486 -1.1540
16247TIP3   OH270231   5.250   6.758  11.415 -0.5588  0.1661  1.0627
16247TIP3    H170232   5.229   6.735  11.505  0.4377  1.7779  1.7436
16247TIP3    H270233   5.342   6.786  11.418 -0.6344  0.6735 -0.3765
16248TIP3   OH270234   3.823   0.200  16.318 -0.2023  0.1665 -0.6680
16248TIP3    H170235   3.833   0.188  16.413 -0.2973  1.9894 -0.3811
16248TIP3    H270236   3.893   0.147  16.280  1.7855  1.6878  0.6113
16249TIP3   OH270237   2.514   6.192  17.131 -0.0225 -0.3961 -0.1405
16249TIP3    H170238   2.601   6.210  17.096  0.2363 -1.5258 -0.1081
16249TIP3    H270239   2.525   6.114  17.185 -1.0565 -0.5487 -0.1288
16250TIP3   OH270240   4.872   4.422   0.116 -0.2601 -0.5732 -0.4023
16250TIP3    H170241   4.938   4.429   0.185 -0.7110 -2.1970  0.2419
16250TIP3    H270242   4.915   4.373   0.046 -0.5252 -0.9682 -0.2941
16251TIP3   OH270243   4.504   2.087  15.750  0.2153 -0.1300 -0.0875
16251TIP3    H170244   4.581   2.119  15.796 -1.2146  0.0675  2.3470
16251TIP3    H270245   4.458   2.034  15.815 -1.4946 -0.6021 -1.6033
16252TIP3   OH270246   0.107   0.542  16.506  0.0318  0.0025  0.1211
16252TIP3    H170247   0.019   0.576  16.522  0.3889  0.7676  0.5187
16252TIP3    H270248   0.124   0.484  16.580  0.2333  0.6096  0.5531
16253TIP3   OH270249   5.368   2.243   0.257 -0.0072  0.4251 -0.2912
16253TIP3    H170250   5.452   2.262   0.215  1.2343 -0.8211  1.4648
16253TIP3    H270251   5.310   2.218   0.185  1.1335  1.2560 -1.5494
16254TIP3   OH270252   4.310   3.183   0.332 -0.5883 -0.9280  0.1812
16254TIP3    H170253   4.379   3.205   0.395 -0.8166  0.3698  0.0032
16254TIP3    H270254   4.324   3.090   0.312  0.5262 -0.9176  0.8513
16255TIP3   OH270255   5.424   5.088  14.422 -0.1731 -0.1062 -0.1512
16255TIP3    H170256   5.494   5.110  14.483  0.9252 -1.9872 -0.6722
16255TIP3    H270257   5.344   5.093  14.474  0.5345  0.2380  0.9328
16256TIP3   OH270258   5.070   1.200  12.515 -0.1214 -0.0737 -0.0383
16256TIP3    H170259   5.086   1.262  12.444  1.5694  0.5910  0.8690
16256TIP3    H270260   5.068   1.253  12.594  3.3287 -1.2380  1.0165
16257TIP3   OH270261   2.914   4.345   3.795  0.2055  0.2155 -0.1279
16257TIP3    H170262   2.893   4.365   3.703  1.3878 -0.6032 -0.6054
16257TIP3    H270263   2.921   4.430   3.837  0.7101  0.6567 -1.0607
16258TIP3   OH270264   1.900   4.618   1.438  0.7728 -0.2247  0.4337
16258TIP3    H170265   1.874   4.596   1.348  1.4079  0.4070  0.0872
16258TIP3    H270266   1.818   4.614   1.488 -0.0509  1.7050 -0.6336
16259TIP3   OH270267   0.783   3.889  11.176  0.2296  0.2441  0.2808
16259TIP3    H170268   0.820   3.976  11.190 -0.0811  0.4195  0.0350
16259TIP3    H270269   0.859   3.833  11.160  0.3523  0.9044 -1.8516
16260TIP3   OH270270   3.690   1.635   4.886  0.0491 -0.4181 -0.5765
16260TIP3    H170271   3.712   1.559   4.940 -1.1147 -0.5645 -0.2642
16260TIP3    H270272   3.603   1.615   4.852 -0.1856  0.6891 -0.6586
16261TIP3   OH270273   2.961   3.749   2.662 -0.4662 -0.1987  0.2138
16261TIP3    H170274   2.872   3.781   2.648  0.5481  2.7718 -0.1290
16261TIP3    H270275   2.977   3.760   2.756  0.7248  3.0238 -0.2512
16262TIP3   OH270276   1.499   6.582   1.253  1.0581  0.1879 -0.3961
16262TIP3    H170277   1.520   6.642   1.181 -0.8810  1.4040 -0.0075
16262TIP3    H270278   1.413   6.546   1.230  1.0150 -0.4350  0.6745
16263TIP3   OH270279   0.161   4.464  16.721  0.0323  0.1021  0.3071
16263TIP3    H170280   0.240   4.499  16.679  0.4895 -3.0181 -1.7959
16263TIP3    H270281   0.188   4.447  16.812  0.9831  1.2851  0.2785
16264TIP3   OH270282   1.885   4.830   5.423 -0.7227 -0.3399  0.7507
16264TIP3    H170283   1.975   4.824   5.391 -0.1426  2.3618  1.5444
16264TIP3    H270284   1.831   4.806   5.348  0.6633  1.1429 -0.8175
16265TIP3   OH270285   4.801   3.892   4.053  0.2303 -0.1038  0.3643
16265TIP3    H170286   4.736   3.904   4.122 -0.5350  1.3954 -0.5518
16265TIP3    H270287   4.845   3.976   4.046  1.8926 -0.9235  0.5500
16266TIP3   OH270288   4.364   1.875   5.722  0.2152 -0.0622  0.8969
16266TIP3    H170289   4.447   1.848   5.762 -0.3711  0.4543  2.5471
16266TIP3    H270290   4.320   1.926   5.790  0.7635  4.2130 -1.5946
16267TIP3   OH270291   3.057   6.167   3.672 -0.1249 -0.8340 -0.7444
16267TIP3    H170292   3.020   6.084   3.644 -2.3164 -0.3088  0.3524
16267TIP3    H270293   3.000   6.195   3.744  2.0984  0.3701  0.6424
16268TIP3   OH270294   2.424   3.607  11.726 -0.4146  0.3694  0.5264
16268TIP3    H170295   2.368   3.648  11.791 -1.1566  0.5900 -0.2252
16268TIP3    H270296   2.423   3.513  11.748 -0.7538  0.4277  0.7521
16269TIP3   OH270297   5.899   2.148   4.141  0.0230  0.1746  0.7578
16269TIP3    H170298   5.972   2.107   4.189  0.9843  0.4274 -0.4385
16269TIP3    H270299   5.934   2.163   4.053 -1.1774  1.1643  0.4256
16270TIP3   OH270300   4.179   5.141   3.745 -0.8381  0.0473  0.0711
16270TIP3    H170301   4.103   5.082   3.746 -1.8111  1.1335 -1.9402
16270TIP3    H270302   4.254   5.084   3.756 -1.8833 -1.2155  0.9752
16271TIP3   OH270303   4.214   3.256  13.668 -0.0643  0.2404 -0.3010
16271TIP3    H170304   4.171   3.234  13.586 -1.3548  1.0828  0.1160
16271TIP3    H270305   4.291   3.199  13.671 -0.0535  0.1126 -2.0182
16272TIP3   OH270306   2.646   3.628   2.809  0.6199 -0.6943 -0.3134
16272TIP3    H170307   2.590   3.631   2.886  0.1441  0.5638 -0.6909
16272TIP3    H270308   2.735   3.640   2.842  0.2893  1.4663 -0.0671
16273TIP3   OH270309   6.716   4.768  14.389  0.5483 -0.7464  0.5038
16273TIP3    H170310   6.697   4.803  14.302  0.7702  0.7420  1.0177
16273TIP3    H270311   6.633   4.773  14.436  0.8461  0.3273  0.9615
16274TIP3   OH270312   4.525   5.617  12.052  0.1538  0.1596 -1.0548
16274TIP3    H170313   4.432   5.613  12.075  0.5737 -2.6427  0.6255
16274TIP3    H270314   4.563   5.677  12.115 -0.3263  0.4770 -1.0600
16275TIP3   OH270315   2.229   0.671  12.531 -0.2208 -0.1685  0.4555
16275TIP3    H170316   2.310   0.620  12.521 -0.6838 -0.9436  0.5713
16275TIP3    H270317   2.173   0.616  12.585 -0.7484  0.4602  0.5571
16276TIP3   OH270318   4.963   2.448  16.874 -0.1680 -0.2868 -0.1124
16276TIP3    H170319   4.879   2.494  16.872  0.0679  0.1129 -0.9588
16276TIP3    H270320   4.938   2.355  16.880 -0.7974 -0.4420 -3.3230
16277TIP3   OH270321   3.044   5.194   1.914  0.2492  0.5688  0.4023
16277TIP3    H170322   3.101   5.158   1.846 -1.1875  0.4921 -0.8074
16277TIP3    H270323   2.961   5.149   1.902 -1.2080  3.2490 -0.2797
16278TIP3   OH270324   3.333   2.007  13.005 -0.2024  0.0135  0.0348
16278TIP3    H170325   3.315   2.087  12.956 -1.8124  0.4457  1.2719
16278TIP3    H270326   3.265   1.946  12.978 -0.1423 -0.2803  0.5288
16279TIP3   OH270327   5.670   6.700  12.004  0.2280 -0.1014  0.2660
16279TIP3    H170328   5.661   6.638  12.076  2.4086 -0.9901 -0.1434
16279TIP3    H270329   5.655   6.647  11.925  1.8308 -0.0788 -0.0764
16280TIP3   OH270330   3.205   1.879   1.151 -0.1191 -0.8410  0.0321
16280TIP3    H170331   3.179   1.959   1.195 -0.6851 -0.5230 -0.8405
16280TIP3    H270332   3.133   1.861   1.090 -0.4490 -2.5246  0.8633
16281TIP3   OH270333   0.155   6.662  13.907  0.1103 -0.4700  0.3713
16281TIP3    H170334   0.140   6.754  13.881  0.1929 -0.7657 -0.7901
16281TIP3    H270335   0.079   6.640  13.960 -0.4073 -0.0085 -0.1573
16282TIP3   OH270336   6.503   3.085   4.431  0.7253  0.3689 -0.4586
16282TIP3    H170337   6.467   3.133   4.355  0.2517 -0.7667 -0.9720
16282TIP3    H270338   6.595   3.073   4.410  1.1285  2.0516  0.2096
16283TIP3   OH270339   0.770   0.116  15.312  0.1387 -0.6790  0.5162
16283TIP3    H170340   0.778   0.205  15.348 -1.7398 -0.3821  0.3089
16283TIP3    H270341   0.818   0.061  15.374  1.5687  0.4812  0.5144
16284TIP3   OH270342   3.469   4.895   3.098  0.2865  0.5772 -0.3322
16284TIP3    H170343   3.417   4.961   3.052 -1.8130 -0.1991  0.8263
16284TIP3    H270344   3.421   4.813   3.086  1.3621 -0.2254  0.6115
16285TIP3   OH270345   1.117   1.232   3.281 -0.4651  0.3600 -0.6765
16285TIP3    H170346   1.095   1.320   3.312 -1.1623 -0.5097  1.4887
16285TIP3    H270347   1.134   1.182   3.361 -0.2459 -1.5226 -1.8451
16286TIP3   OH270348   0.503   0.631  10.763 -0.1012 -0.9626  0.1093
16286TIP3    H170349   0.418   0.587  10.777 -0.0423 -0.9688  0.4590
16286TIP3    H270350   0.533   0.598  10.678 -1.9411  1.4505 -1.6005
16287TIP3   OH270351   2.844   4.970   3.647  0.2296 -0.1506  0.4804
16287TIP3    H170352   2.812   5.060   3.650  0.6256  0.0174 -0.2008
16287TIP3    H270353   2.820   4.933   3.732  1.1674  0.9794  1.2703
16288TIP3   OH270354   2.587   5.578  16.941  0.0530 -0.2915 -0.2575
16288TIP3    H170355   2.503   5.555  16.981  0.5237  0.8906  1.5426
16288TIP3    H270356   2.601   5.669  16.967  1.3341 -0.0833 -1.5669
16289TIP3   OH270357   1.445   4.917   4.318  0.3136  0.1274 -0.1168
16289TIP3    H170358   1.470   4.837   4.272  1.7332  1.3269 -1.5671
16289TIP3    H270359   1.380   4.958   4.260  1.9302  1.5268 -1.0458
16290TIP3   OH270360   0.480   1.074   1.140  0.6057  0.1078 -0.2538
16290TIP3    H170361   0.400   1.121   1.162  0.3719  0.3891 -1.5781
16290TIP3    H270362   0.518   1.125   1.067  2.1195  0.1187  0.5009
16291TIP3   OH270363   0.459   5.578  15.559  0.1217 -0.2311 -0.1333
16291TIP3    H170364   0.501   5.493  15.543  2.6490  0.6524  1.2071
16291TIP3    H270365   0.463   5.623  15.474  3.0392  0.2007  0.1148
16292TIP3   OH270366   1.827   4.787  12.807 -0.0297 -0.1659  0.1204
16292TIP3    H170367   1.855   4.861  12.754  1.3188 -0.2384  0.6655
16292TIP3    H270368   1.814   4.716  12.745 -0.7945  0.3767 -0.3449
16293TIP3   OH270369   0.931   3.426  12.972  0.6252 -0.1136 -0.3618
16293TIP3    H170370   0.843   3.456  12.952  0.2749 -0.9874 -0.1401
16293TIP3    H270371   0.986   3.503  12.955 -0.0997  0.2767 -1.0308
16294TIP3   OH270372   3.215   3.587   2.114 -0.3751  0.5477  0.6492
16294TIP3    H170373   3.270   3.575   2.191 -1.6095 -2.4054  1.1926
16294TIP3    H270374   3.170   3.504   2.103 -1.4202  1.3722 -2.3879
16295TIP3   OH270375   3.071   5.223  14.253 -0.2784 -0.0995 -0.0045
16295TIP3    H170376   3.134   5.265  14.194  0.1302 -0.9854 -0.2188
16295TIP3    H270377   3.113   5.141  14.277  0.1080  0.7279  2.4784
16296TIP3   OH270378   1.680   2.159   2.160  0.3222 -0.5192 -0.0962
16296TIP3    H170379   1.714   2.237   2.204 -0.0528  0.3438 -1.2848
16296TIP3    H270380   1.724   2.086   2.204 -1.7391  0.0514  3.3695
16297TIP3   OH270381   2.300   4.238  11.202  0.0585 -0.1117 -1.0917
16297TIP3    H170382   2.276   4.154  11.163  2.1477 -1.6342  0.6568
16297TIP3    H270383   2.281   4.226  11.295  1.9464  0.7105 -0.5689
16298TIP3   OH270384   2.295   3.568   5.200 -0.8126  0.5958 -0.0022
16298TIP3    H170385   2.363   3.560   5.133  0.5422 -1.4311  1.5181
16298TIP3    H270386   2.222   3.516   5.166 -0.6260  0.6129 -0.4411
16299TIP3   OH270387   6.285   0.243   4.265 -0.2447 -0.3452  0.1745
16299TIP3    H170388   6.298   0.269   4.356 -1.0589  1.4479 -0.1789
16299TIP3    H270389   6.246   0.156   4.270  1.7243 -1.2236  1.4568
16300TIP3   OH270390   5.807   2.547  14.495  0.0291  0.5122 -0.6962
16300TIP3    H170391   5.747   2.512  14.429  1.2139 -1.1769 -0.9463
16300TIP3    H270392   5.753   2.561  14.572 -0.8162 -0.3410 -1.1132
16301TIP3   OH270393   2.582   5.057  14.783  0.0349 -0.5495 -0.1549
16301TIP3    H170394   2.506   5.048  14.726 -0.3054  0.0206  0.2009
16301TIP3    H270395   2.654   5.079  14.723 -0.3640  0.2551 -0.3478
16302TIP3   OH270396   3.920   5.646  14.793  0.2212 -0.1467  0.0929
16302TIP3    H170397   3.859   5.719  14.787  1.1537  0.6546  0.2328
16302TIP3    H270398   3.888   5.582  14.729 -0.9485  0.1132  0.4093
16303TIP3   OH270399   1.693   3.469  14.326 -0.5893 -0.0479 -0.4265
16303TIP3    H170400   1.743   3.418  14.390 -0.2496  0.5810 -0.1796
16303TIP3    H270401   1.603   3.465  14.356 -0.3684  0.6261  0.3692
16304TIP3   OH270402   2.974   3.290   1.110  0.0582 -0.2743  0.1707
16304TIP3    H170403   3.009   3.304   1.198 -0.4802 -0.7182  0.4593
16304TIP3    H270404   2.996   3.371   1.063  0.7826 -0.2336  0.5622
16305TIP3   OH270405   0.318   3.984  17.286 -0.3978  0.3144  0.2807
16305TIP3    H170406   0.268   4.055  17.245 -0.6517  1.5499  2.5565
16305TIP3    H270407   0.371   4.028  17.352  0.0841 -1.5428  1.1738
16306TIP3   OH270408   1.771   3.780  16.369  0.3333 -0.3331 -0.1827
16306TIP3    H170409   1.798   3.863  16.331 -0.3959 -0.8840 -1.9690
16306TIP3    H270410   1.827   3.771  16.447  0.4439  1.7779  0.0444
16307TIP3   OH270411   5.702   1.897  10.468  0.2858 -0.4459 -0.3185
16307TIP3    H170412   5.683   1.960  10.538  0.9616  0.6772 -1.1083
16307TIP3    H270413   5.730   1.818  10.513  1.2074  0.4222  0.6930
16308TIP3   OH270414   2.733   5.220   6.391 -0.6332 -0.1091  0.0205
16308TIP3    H170415   2.729   5.168   6.471 -0.6011  0.9080  0.6883
16308TIP3    H270416   2.822   5.206   6.358 -0.9749 -1.3868 -0.4460
16309TIP3   OH270417   2.480   3.760  10.090  0.0227 -0.2165  0.2162
16309TIP3    H170418   2.437   3.679  10.063  0.5107 -1.0115  1.6877
16309TIP3    H270419   2.412   3.827  10.088 -0.3203 -0.5835 -1.2984
16310TIP3   OH270420   2.611   0.797  15.461 -0.1330 -0.5245 -0.4713
16310TIP3    H170421   2.675   0.800  15.390  0.1263 -1.5377 -0.2987
16310TIP3    H270422   2.658   0.825  15.539 -0.3028  0.1757 -0.6192
16311TIP3   OH270423   5.025   4.225  15.023  0.1503  0.0536  0.3746
16311TIP3    H170424   5.092   4.284  15.058 -1.1975  1.7245  0.2952
16311TIP3    H270425   4.993   4.177  15.099 -0.5602  1.3765  0.9441
16312TIP3   OH270426   3.169   3.891  17.283  0.0834  0.4349 -0.1644
16312TIP3    H170427   3.113   3.938  17.345  0.5366 -0.4763  0.9800
16312TIP3    H270428   3.206   3.820  17.335 -0.0830 -0.7952 -1.6760
16313TIP3   OH270429   0.877   5.720  11.407  0.0859 -0.6390  0.0255
16313TIP3    H170430   0.823   5.748  11.334  0.5063 -0.0528 -0.0602
16313TIP3    H270431   0.843   5.633  11.429 -0.4190 -0.5779 -0.4865
16314TIP3   OH270432   5.511   3.761   4.409 -0.0130 -0.3478 -0.0150
16314TIP3    H170433   5.572   3.695   4.376 -0.4444 -0.1591 -1.2614
16314TIP3    H270434   5.449   3.711   4.463  0.0421 -0.8654 -0.4176
16315TIP3   OH270435   1.491   1.510   4.234 -0.4765  0.4279 -0.0684
16315TIP3    H170436   1.548   1.433   4.234 -1.2079 -0.1460  1.4611
16315TIP3    H270437   1.440   1.502   4.153  0.5499  0.1571 -0.7026
16316TIP3   OH270438   3.235   1.436   1.294 -0.1875 -0.5240 -0.2060
16316TIP3    H170439   3.221   1.458   1.386 -0.1495 -1.6416  0.0877
16316TIP3    H270440   3.291   1.506   1.260 -1.0630  0.4638  0.3256
16317TIP3   OH270441   3.532   5.584  13.969 -0.6079  0.9902 -0.0757
16317TIP3    H170442   3.475   5.508  13.979 -0.0704  0.5989  0.0563
16317TIP3    H270443   3.575   5.593  14.055  0.9491  0.1123 -0.7093
16318TIP3   OH270444   3.619   3.805   1.127  0.2949 -0.0980 -0.1926
16318TIP3    H170445   3.592   3.896   1.138  2.3521  0.5041  0.3656
16318TIP3    H270446   3.687   3.809   1.060  1.2725 -1.0145  0.7083
16319TIP3   OH270447   0.115   0.857  11.542  0.0230 -0.3555  0.1361
16319TIP3    H170448   0.176   0.930  11.541  1.3412 -1.4237 -0.8077
16319TIP3    H270449   0.037   0.889  11.497 -0.2818  1.1131  1.5882
16320TIP3   OH270450   3.577   6.258   5.073  0.5170  0.0726  0.4141
16320TIP3    H170451   3.649   6.321   5.073 -0.4106  1.2340 -1.5193
16320TIP3    H270452   3.502   6.307   5.106 -0.1297 -0.1029 -0.7495
16321TIP3   OH270453   0.505   6.698   5.319 -0.1598 -1.0069  0.5428
16321TIP3    H170454   0.453   6.778   5.332  0.3580 -0.9358  2.4787
16321TIP3    H270455   0.495   6.678   5.226 -0.0510  1.4934 -0.0878
16322TIP3   OH270456   0.254   0.714  16.162 -0.4433 -0.2373 -0.0957
16322TIP3    H170457   0.280   0.709  16.253  0.3575  2.3061 -0.0991
16322TIP3    H270458   0.328   0.757  16.118 -2.3679  2.2955 -1.1205
16323TIP3   OH270459   4.747   2.306  14.270 -0.0982  0.1932  0.2484
16323TIP3    H170460   4.796   2.309  14.353  2.1040  1.2641 -0.9956
16323TIP3    H270461   4.768   2.220  14.233  0.5063  0.4862 -0.0920
16324TIP3   OH270462   5.463   3.745  16.260  0.3993  0.6037 -0.5158
16324TIP3    H170463   5.533   3.808  16.278  1.3316 -0.2781 -0.9303
16324TIP3    H270464   5.382   3.793  16.276  1.1058  1.3784  0.8587
16325TIP3   OH270465   2.248   6.463  17.095 -0.2338  0.0449 -0.0733
16325TIP3    H170466   2.257   6.368  17.101  1.9789  0.1756 -0.5110
16325TIP3    H270467   2.162   6.477  17.054  0.1155 -1.8251 -1.5464
16326TIP3   OH270468   4.840   0.307  15.763 -0.1667 -0.0616 -0.5053
16326TIP3    H170469   4.813   0.360  15.688 -0.3811  0.6423  0.0596
16326TIP3    H270470   4.888   0.367  15.819  3.6975 -1.4651 -1.9495
16327TIP3   OH270471   1.451   4.520  12.091  0.1135  0.0479 -0.3564
16327TIP3    H170472   1.428   4.607  12.059  2.4863  1.7158  2.0123
16327TIP3    H270473   1.390   4.504  12.163  1.4422  1.1762  1.1123
16328TIP3   OH270474   2.618   1.810  17.130  0.5773 -0.2593 -0.1684
16328TIP3    H170475   2.544   1.769  17.086 -0.8987  0.3507  1.5960
16328TIP3    H270476   2.589   1.900  17.147  2.6200  0.7072 -1.4040
16329TIP3   OH270477   2.291   3.734   6.703 -0.0841  0.0413 -0.3889
16329TIP3    H170478   2.355   3.792   6.661 -1.5132  1.1057 -1.1785
16329TIP3    H270479   2.328   3.717   6.790  0.1039  2.7246  0.1481
16330TIP3   OH270480   2.238   1.171   2.947  0.7764 -0.1838  0.3728
16330TIP3    H170481   2.323   1.210   2.927 -0.1286  1.2369 -0.9731
16330TIP3    H270482   2.254   1.114   3.022  2.7408  0.6481  0.6393
16331TIP3   OH270483   0.461   3.125  11.907  0.3004  0.2230 -0.2460
16331TIP3    H170484   0.379   3.119  11.857  1.5591  0.8595 -2.5377
16331TIP3    H270485   0.507   3.198  11.868  1.3015  0.9372  2.1116
16332TIP3   OH270486   3.249   6.680   5.047 -0.1010  0.4887  0.4165
16332TIP3    H170487   3.302   6.672   5.126 -0.6071  2.2012  0.9711
16332TIP3    H270488   3.185   6.609   5.053  1.0125 -0.5248  0.5992
16333TIP3   OH270489   2.014   6.704  10.527  0.2094 -0.2537 -0.2695
16333TIP3    H170490   1.988   6.619  10.564 -2.2900  2.0318  4.0120
16333TIP3    H270491   1.951   6.718  10.456  0.4808 -1.7952 -0.8669
16334TIP3   OH270492   3.271   2.722   1.861  0.2013  0.5374 -0.3037
16334TIP3    H170493   3.283   2.765   1.776  0.4256 -1.0199 -1.0919
16334TIP3    H270494   3.226   2.641   1.840 -2.7820  1.5698  1.4498
16335TIP3   OH270495   0.216   0.255  13.277  0.0553 -0.3451  0.2966
16335TIP3    H170496   0.304   0.257  13.314  0.1292 -0.2464  0.1158
16335TIP3    H270497   0.170   0.327  13.320  0.8581  1.3746 -1.5946
16336TIP3   OH270498   3.871   2.179  13.833 -0.5263  0.0263  0.3672
16336TIP3    H170499   3.813   2.105  13.819  0.5221 -0.6448 -0.6634
16336TIP3    H270500   3.943   2.165  13.772 -0.1289  1.7249  0.3790
16337TIP3   OH270501   3.050   0.887  16.589 -0.0041  0.2944 -0.1874
16337TIP3    H170502   3.021   0.916  16.675 -1.6222  0.7754 -0.8669
16337TIP3    H270503   3.122   0.946  16.567 -0.9089  1.4955 -0.0135
16338TIP3   OH270504   4.838   0.150   1.957 -0.5216 -0.4771  0.3749
16338TIP3    H170505   4.892   0.171   1.881 -0.8325 -0.9281  0.0210
16338TIP3    H270506   4.901   0.124   2.025 -0.0336  2.4830  1.1915
16339TIP3   OH270507   1.108   6.484  14.198 -0.5040 -0.0326 -0.2415
16339TIP3    H170508   1.184   6.439  14.161 -1.3878  0.7208 -3.3010
16339TIP3    H270509   1.132   6.576  14.198 -0.8776  0.0673  0.1707
16340TIP3   OH270510   6.068   1.186   5.082  0.6513  0.2807  0.0497
16340TIP3    H170511   6.028   1.266   5.116 -0.3635  0.6076 -1.7557
16340TIP3    H270512   6.033   1.178   4.993  0.4573 -2.3421  0.2716
16341TIP3   OH270513   0.446   1.975  10.970 -0.1275 -0.0703  1.0953
16341TIP3    H170514   0.412   2.062  10.989  0.5449  1.0510 -2.2414
16341TIP3    H270515   0.539   1.989  10.951 -0.5761 -0.8860 -2.3494
16342TIP3   OH270516   1.232   5.316  16.574 -0.3172  0.0022  0.2178
16342TIP3    H170517   1.216   5.323  16.668  1.0602 -1.0200  0.5560
16342TIP3    H270518   1.249   5.406  16.546 -0.3305  0.2638  1.0255
16343TIP3   OH270519   4.203   6.370  15.702 -0.4631 -0.4320 -0.3986
16343TIP3    H170520   4.255   6.329  15.772 -1.0224 -2.6170 -1.1778
16343TIP3    H270521   4.121   6.396  15.745 -0.6528 -1.4060 -0.1541
16344TIP3   OH270522   6.055   4.105   6.120 -0.4112 -0.1401 -0.0949
16344TIP3    H170523   6.143   4.106   6.083 -1.1734  0.0117 -1.9742
16344TIP3    H270524   6.020   4.193   6.102 -1.4967 -0.6916 -0.7967
16345TIP3   OH270525   5.633   4.204   5.084  0.4770 -1.1085  0.8150
16345TIP3    H170526   5.723   4.220   5.110  0.1372 -0.4048  1.6146
16345TIP3    H270527   5.633   4.116   5.047  1.3519 -1.3663  1.4172
16346TIP3   OH270528   5.757   5.811   1.351 -0.0150  0.0855  0.1911
16346TIP3    H170529   5.668   5.813   1.315 -0.1052 -1.0369  0.3071
16346TIP3    H270530   5.787   5.722   1.333  0.9897  0.3808  0.3966
16347TIP3   OH270531   5.534   6.058   4.222 -0.1464 -0.3768  0.2420
16347TIP3    H170532   5.445   6.080   4.250  0.3623 -0.6520  2.2496
16347TIP3    H270533   5.532   5.963   4.209 -0.4658 -0.2108 -1.1289
16348TIP3   OH270534   5.478   0.018  13.788  0.0014 -0.2080 -0.0954
16348TIP3    H170535   5.557  -0.000  13.737  1.2494  0.8822  1.3655
16348TIP3    H270536   5.427   0.078  13.734 -0.8051 -2.3134 -1.8657
16349TIP3   OH270537   2.899   6.208  11.156  0.2559 -0.3041 -0.4659
16349TIP3    H170538   2.972   6.263  11.129  0.2350 -0.1215 -0.1607
16349TIP3    H270539   2.826   6.235  11.099  0.3924 -0.3994 -0.6851
16350TIP3   OH270540   1.352   0.035  15.416  0.5027 -0.1042  0.3621
16350TIP3    H170541   1.262   0.031  15.382  1.4190  1.4142 -2.5747
16350TIP3    H270542   1.381  -0.056  15.417 -1.0175 -0.6234  1.3504
16351TIP3   OH270543   6.352   1.039   4.141  0.1676 -0.4223  0.0526
16351TIP3    H170544   6.425   1.101   4.136 -1.5016  1.5735 -1.2571
16351TIP3    H270545   6.337   1.012   4.051 -1.4791  0.2273  0.0875
16352TIP3   OH270546   2.921   0.185   6.059 -0.0037  0.4080  0.0295
16352TIP3    H170547   2.859   0.245   6.100 -1.5802 -0.4551 -1.0037
16352TIP3    H270548   2.867   0.114   6.024  1.6969 -1.0662  0.2433
16353TIP3   OH270549   3.754   3.181  14.681 -0.0032  0.2498  0.1432
16353TIP3    H170550   3.797   3.133  14.753  1.7062 -3.2261 -2.8216
16353TIP3    H270551   3.675   3.131  14.663  0.2943  0.2191 -1.1906
16354TIP3   OH270552   0.366   6.173  10.963  0.2760 -0.5288  0.3539
16354TIP3    H170553   0.369   6.078  10.955  0.6501 -0.4706 -0.2295
16354TIP3    H270554   0.440   6.195  11.019 -0.1434 -0.6252  0.9518
16355TIP3   OH270555   5.786   4.099  11.607  0.3299 -0.0533 -0.5726
16355TIP3    H170556   5.848   4.034  11.642  0.3373  0.3691  0.2265
16355TIP3    H270557   5.731   4.049  11.547 -1.4645 -1.4846  2.0420
16356TIP3   OH270558   6.446   6.298   2.192  0.2962  0.9282 -0.2196
16356TIP3    H170559   6.464   6.375   2.245  0.0396  1.7933 -1.3539
16356TIP3    H270560   6.371   6.256   2.234  1.3644  0.4356  1.2673
16357TIP3   OH270561   1.322   5.034   3.282 -0.7658  0.0006  0.1652
16357TIP3    H170562   1.365   5.073   3.206 -2.3411  2.5667  0.4771
16357TIP3    H270563   1.261   5.101   3.312 -1.8430 -1.8240  2.3356
16358TIP3   OH270564   3.173   4.788  12.344  0.0910 -0.0875 -0.3746
16358TIP3    H170565   3.108   4.745  12.400  1.2206  0.4219  1.4160
16358TIP3    H270566   3.130   4.869  12.317 -0.2930 -0.0888  0.2013
16359TIP3   OH270567   1.266   2.547  15.447 -0.5292 -0.0924  0.8109
16359TIP3    H170568   1.274   2.467  15.499 -0.7013 -1.0110 -0.5249
16359TIP3    H270569   1.356   2.578  15.438 -0.4776 -0.0180  1.4780
16360TIP3   OH270570   3.728   3.590   4.833 -0.4144  0.8279  0.3777
16360TIP3    H170571   3.721   3.674   4.787 -0.7944  1.2066  1.1120
16360TIP3    H270572   3.683   3.604   4.916  1.7124  0.6847  1.6239
16361TIP3   OH270573   0.601   2.541  14.039 -0.2145  0.0291 -0.6262
16361TIP3    H170574   0.599   2.607  13.969  0.2853  0.4128 -0.2846
16361TIP3    H270575   0.622   2.460  13.993  1.3124  0.4794 -0.7947
16362TIP3   OH270576   6.656   0.121   5.776  0.2357 -0.1967  0.3369
16362TIP3    H170577   6.664   0.203   5.726  1.4885  1.3279  2.8087
16362TIP3    H270578   6.564   0.096   5.767  0.0265  0.9765 -1.2185
16363TIP3   OH270579   4.097   6.123  15.116  0.0369 -0.7324 -0.1057
16363TIP3    H170580   4.036   6.053  15.137 -1.3837  0.8674  1.4675
16363TIP3    H270581   4.183   6.088  15.141 -0.7848 -1.5110  1.8649
16364TIP3   OH270582   3.387   2.178  13.198 -0.1252 -0.2917 -0.0698
16364TIP3    H170583   3.428   2.229  13.128 -0.6089 -0.3786 -0.4301
16364TIP3    H270584   3.353   2.100  13.153 -2.3939  0.6866 -0.1568
16365TIP3   OH270585   1.287   3.572  14.798 -0.2196  0.2669 -0.1580
16365TIP3    H170586   1.303   3.623  14.878 -0.7402 -0.2260  0.2667
16365TIP3    H270587   1.369   3.579  14.749 -0.3712  1.7505 -0.2475
16366TIP3   OH270588   1.458   1.498  14.586  0.3331  0.3540 -0.3462
16366TIP3    H170589   1.548   1.466  14.595  0.0281 -0.4012  0.2265
16366TIP3    H270590   1.415   1.431  14.533  0.0030  0.4890 -0.2462
16367TIP3   OH270591   1.622   0.248  13.686  0.1912 -0.5312 -0.5062
16367TIP3    H170592   1.596   0.319  13.626  1.8020 -1.7017 -2.7112
16367TIP3    H270593   1.691   0.286  13.740  1.2654 -0.4542 -1.8868
16368TIP3   OH270594   1.211   2.598   4.166 -0.0331  0.5657  0.3946
16368TIP3    H170595   1.211   2.532   4.235  1.0059 -0.3696 -0.4676
16368TIP3    H270596   1.200   2.548   4.085 -0.1983  1.5489 -0.2033
16369TIP3   OH270597   1.479   0.487  13.586 -0.2219 -0.0257  0.0101
16369TIP3    H170598   1.434   0.416  13.539  1.3362 -2.0242  1.3880
16369TIP3    H270599   1.439   0.487  13.673  1.4601 -0.9538  0.8288
16370TIP3   OH270600   3.880   2.346  16.534  0.5768  0.0034  0.2607
16370TIP3    H170601   3.898   2.430  16.493  1.4403  0.2350  1.0794
16370TIP3    H270602   3.963   2.321  16.575  0.0152 -0.6933  1.0060
16371TIP3   OH270603   4.544   3.720   5.633 -0.2447  0.5808 -0.0972
16371TIP3    H170604   4.519   3.635   5.595 -0.9382  1.2989 -1.3018
16371TIP3    H270605   4.530   3.709   5.727 -0.0847 -0.7194 -0.2023
16372TIP3   OH270606   3.105   3.179  17.311  0.3668 -0.0978  0.5712
16372TIP3    H170607   3.049   3.162  17.387  1.0225  1.5231  1.4746
16372TIP3    H270608   3.050   3.229  17.251  0.0048 -0.9391  0.1875
16373TIP3   OH270609   1.203   3.617   6.406 -0.8606  0.5143  0.2269
16373TIP3    H170610   1.141   3.578   6.467 -1.4708  0.9393 -0.1165
16373TIP3    H270611   1.281   3.634   6.459  0.0656 -2.6289  0.0831
16374TIP3   OH270612   4.646   6.068   5.246 -0.2462  0.4504 -0.2406
16374TIP3    H170613   4.571   6.110   5.288 -1.5318 -0.7522 -1.2117
16374TIP3    H270614   4.693   6.026   5.317 -2.4623 -1.6745  0.0973
16375TIP3   OH270615   4.402   3.228  11.228  0.0861  0.7159  0.1308
16375TIP3    H170616   4.371   3.302  11.176 -0.8256  0.6435  0.5496
16375TIP3    H270617   4.423   3.265  11.313 -1.3043  0.3590  0.6559
16376TIP3   OH270618   5.664   1.138   4.592  0.1345  0.3415  0.4010
16376TIP3    H170619   5.606   1.204   4.554 -0.7549 -0.6527 -0.0083
16376TIP3    H270620   5.612   1.097   4.660  1.0477  0.7516  1.3734
16377TIP3   OH270621   0.411   5.697   6.445 -0.9278 -0.3164  0.2643
16377TIP3    H170622   0.365   5.782   6.441 -2.2237 -0.9815  0.4057
16377TIP3    H270623   0.353   5.642   6.497  0.3952 -1.0128  1.0359
16378TIP3   OH270624   3.792   0.603   4.308  0.7835 -0.2359  0.8121
16378TIP3    H170625   3.714   0.631   4.355  0.0053  2.1606 -1.6309
16378TIP3    H270626   3.795   0.659   4.230  2.7470 -2.8991 -1.2631
16379TIP3   OH270627   5.296   1.182   4.509 -0.3251  0.3467 -0.1769
16379TIP3    H170628   5.276   1.192   4.602 -0.2370  0.9531 -0.2162
16379TIP3    H270629   5.211   1.174   4.466 -0.3549 -0.1987 -0.0154
16380TIP3   OH270630   3.466   6.146   3.255  0.1813 -0.2229  0.2222
16380TIP3    H170631   3.519   6.207   3.205 -0.4403 -0.0450 -0.2296
16380TIP3    H270632   3.505   6.147   3.343  1.1518 -0.3841 -0.1904
16381TIP3   OH270633   5.107   6.628   3.038  0.0647 -0.2844  0.3250
16381TIP3    H170634   5.093   6.635   3.133 -0.8659 -1.6244  0.3135
16381TIP3    H270635   5.072   6.709   3.003 -2.3428 -0.9894  0.8941
16382TIP3   OH270636   0.512   1.013   2.056 -0.2998  0.0665 -0.7029
16382TIP3    H170637   0.497   1.076   1.986 -0.3227 -0.4178 -1.1389
16382TIP3    H270638   0.512   1.065   2.136 -1.1761  0.5085 -0.9793
16383TIP3   OH270639   0.219   6.037  11.780 -0.8882  0.8325  0.1985
16383TIP3    H170640   0.172   5.968  11.826 -0.5157  0.3184 -0.1876
16383TIP3    H270641   0.172   6.117  11.803 -1.6194  0.3928  0.2583
16384TIP3   OH270642   3.706   6.364  14.526  0.0316 -0.2899  0.5071
16384TIP3    H170643   3.762   6.322  14.592  1.1500 -1.1607 -0.9560
16384TIP3    H270644   3.718   6.312  14.447  0.1910  1.8449 -0.9454
16385TIP3   OH270645   4.856   0.376  16.829  0.2442  0.2110 -0.0672
16385TIP3    H170646   4.829   0.419  16.910  0.8670  1.5760 -0.5425
16385TIP3    H270647   4.949   0.357  16.842  0.1381 -0.3600 -0.1333
16386TIP3   OH270648   3.648   2.565  15.198  0.3726 -0.1799  0.7627
16386TIP3    H170649   3.620   2.511  15.125  1.8390  0.7051 -0.5038
16386TIP3    H270650   3.738   2.590  15.177  0.5648  0.7596  2.4885
16387TIP3   OH270651   1.722   3.349  13.067  0.4183  0.3165 -0.0436
16387TIP3    H170652   1.634   3.312  13.058  1.1027 -1.2046 -0.8466
16387TIP3    H270653   1.770   3.284  13.118  1.2434  0.8342 -0.1505
16388TIP3   OH270654   5.932   4.901   5.380  0.3791 -0.5295  0.0983
16388TIP3    H170655   5.963   4.912   5.471  1.5792  1.0733 -0.4400
16388TIP3    H270656   5.837   4.911   5.386  0.5831  1.6176  0.9860
16389TIP3   OH270657   5.186   3.090  11.063 -0.1853 -0.2687  0.3348
16389TIP3    H170658   5.174   3.109  10.970  1.1694 -0.8824  0.0116
16389TIP3    H270659   5.106   3.124  11.105 -1.5392 -1.3401 -1.2199
16390TIP3   OH270660   6.691   4.030  15.880  0.2799  0.1064 -1.3201
16390TIP3    H170661   6.617   4.017  15.822  0.1705 -0.6130 -1.0287
16390TIP3    H270662   6.768   4.023  15.823  0.1268  1.6938 -1.7770
16391TIP3   OH270663   2.958   6.794  14.653 -0.3481 -0.5470 -0.4543
16391TIP3    H170664   2.975   6.888  14.643 -0.8108 -0.4838 -0.6354
16391TIP3    H270665   3.014   6.768  14.726  1.7203 -0.6504 -1.9746
16392TIP3   OH270666   5.473   1.953  11.087 -0.4791  0.2590  0.3196
16392TIP3    H170667   5.454   1.884  11.024 -0.0947  1.2350 -0.9226
16392TIP3    H270668   5.525   1.911  11.155 -0.6953 -0.7715 -0.1330
16393TIP3   OH270669   3.760   2.916   4.309  0.5396 -0.4355  1.0212
16393TIP3    H170670   3.823   2.939   4.242 -0.7475  1.1707  0.2953
16393TIP3    H270671   3.771   2.982   4.377 -0.2061 -0.2429  0.9722
16394TIP3   OH270672   3.370   3.580  12.623 -0.0790  0.4785  0.8579
16394TIP3    H170673   3.381   3.511  12.557  0.6006  1.3436  0.0437
16394TIP3    H270674   3.301   3.547  12.681 -0.6988 -0.2888 -0.2921
16395TIP3   OH270675   0.140   0.040  16.123  0.0531 -0.1106  0.0906
16395TIP3    H170676   0.131   0.001  16.211 -0.0785 -0.0470  0.1058
16395TIP3    H270677   0.202  -0.018  16.078 -1.2824 -1.2243 -0.3833
16396TIP3   OH270678   2.173   6.721   0.161 -0.0167 -0.4417 -0.2222
16396TIP3    H170679   2.172   6.653   0.094  2.2424  0.8501 -1.6813
16396TIP3    H270680   2.178   6.673   0.244  0.5864 -2.0635 -1.1544
16397TIP3   OH270681   2.856   6.574   2.568  0.3699  0.2565 -0.3258
16397TIP3    H170682   2.888   6.577   2.658 -0.2515  2.9896 -0.1124
16397TIP3    H270683   2.930   6.605   2.516  0.4064 -0.3910 -0.6723
16398TIP3   OH270684   2.473   6.584  12.700 -0.2199  0.1262  0.2759
16398TIP3    H170685   2.497   6.524  12.631  0.3792  2.2858 -1.5089
16398TIP3    H270686   2.555   6.605  12.744 -0.0806  1.1976 -0.4674
16399TIP3   OH270687   2.150   1.117  17.125  0.1482  0.2522  0.1350
16399TIP3    H170688   2.151   1.045  17.062  1.3896  0.5096 -0.1738
16399TIP3    H270689   2.236   1.112  17.168  0.5965  2.0050 -0.4579
16400TIP3   OH270690   5.994   1.900   1.239 -0.3856  0.3173 -0.7084
16400TIP3    H170691   6.023   1.945   1.160 -1.9846  0.1914 -1.3980
16400TIP3    H270692   5.927   1.956   1.276  0.4819  0.4749  0.7062
16401TIP3   OH270693   0.346   2.741   1.485  0.2822  0.2205 -0.1529
16401TIP3    H170694   0.411   2.802   1.449 -1.1548  1.0513 -1.4958
16401TIP3    H270695   0.272   2.797   1.509 -0.0289 -0.7179  1.1638
16402TIP3   OH270696   0.052   1.464  11.266 -0.6395  0.0674  0.1310
16402TIP3    H170697   0.117   1.429  11.206  0.1236  0.7957  0.5132
16402TIP3    H270698  -0.023   1.486  11.210  0.3129  1.3909 -0.6843
16403TIP3   OH270699   5.661   1.970  12.907  0.1938  0.5338 -0.3858
16403TIP3    H170700   5.739   1.915  12.899 -0.6098 -0.3845 -2.4832
16403TIP3    H270701   5.608   1.927  12.974  1.2536  0.9458  0.7742
16404TIP3   OH270702   2.250   1.327  15.319 -0.3568  0.6053 -0.1461
16404TIP3    H170703   2.201   1.409  15.318  0.8117  1.3331 -0.2163
16404TIP3    H270704   2.342   1.354  15.323  0.0348 -0.7107  0.3672
16405TIP3   OH270705   6.728   4.070   4.858  0.7913  0.1917  0.3540
16405TIP3    H170706   6.805   4.019   4.831  0.7171  0.4389 -0.3423
16405TIP3    H270707   6.672   4.007   4.903 -0.3454 -0.9416 -2.4069
16406TIP3   OH270708   1.256   3.860   1.606 -1.0501  0.1887 -0.3006
16406TIP3    H170709   1.322   3.791   1.601 -0.7416  0.4199  0.4692
16406TIP3    H270710   1.251   3.882   1.699  1.0847  3.3313 -0.7875
16407TIP3   OH270711   3.728   2.703  17.089  0.3608  0.2208 -0.3263
16407TIP3    H170712   3.641   2.672  17.114  1.0832 -1.3539  0.3825
16407TIP3    H270713   3.746   2.658  17.007  0.6746  0.1915 -0.2420
16408TIP3   OH270714   5.888   5.154  13.193  0.3735  0.0206  0.5954
16408TIP3    H170715   5.846   5.105  13.123 -0.3965  2.0282 -0.4537
16408TIP3    H270716   5.838   5.236  13.198  1.6838  0.7854  2.0994
16409TIP3   OH270717   1.555   4.029  13.623  0.4501 -0.1313  0.0638
16409TIP3    H170718   1.641   3.997  13.595 -0.0317  0.1048 -1.8580
16409TIP3    H270719   1.530   4.091  13.554 -0.9260  0.3819  0.9942
16410TIP3   OH270720   5.767   5.982  15.896  0.2825 -0.6203 -0.5295
16410TIP3    H170721   5.809   5.901  15.867 -0.0351 -0.0504 -2.7062
16410TIP3    H270722   5.731   6.020  15.817 -2.2198  0.1695  0.8859
16411TIP3   OH270723   1.644   4.562   5.489  0.0315  0.7258 -0.1190
16411TIP3    H170724   1.740   4.554   5.487  0.1000  0.5225  1.7529
16411TIP3    H270725   1.615   4.486   5.540 -1.2243  0.2722 -1.4583
16412TIP3   OH270726   2.295   3.873   2.641  0.8454 -0.5043 -0.0600
16412TIP3    H170727   2.272   3.957   2.681  2.1474 -0.4691  0.6740
16412TIP3    H270728   2.225   3.857   2.578  0.2466  0.8314  0.2188
16413TIP3   OH270729   5.151   2.003  12.096 -0.0478  0.6785 -0.5026
16413TIP3    H170730   5.240   2.014  12.129 -0.9140  1.4226  1.7693
16413TIP3    H270731   5.107   1.949  12.162 -1.2447  0.0933 -1.7041
16414TIP3   OH270732   1.712   1.446  12.045 -0.2886 -0.2127  0.2222
16414TIP3    H170733   1.791   1.418  12.000  0.4049  1.0021  0.6225
16414TIP3    H270734   1.740   1.461  12.135 -0.6486  1.4666  0.0899
16415TIP3   OH270735   4.517   4.294  17.254  0.2629 -0.1002  0.5609
16415TIP3    H170736   4.424   4.292  17.230 -0.0255 -1.3396  1.6165
16415TIP3    H270737   4.563   4.271  17.173 -0.4384 -0.7341  0.3264
16416TIP3   OH270738   0.290   0.225  10.962 -0.3966  0.0012 -0.3136
16416TIP3    H170739   0.217   0.184  11.008 -0.7801  1.8980  0.9055
16416TIP3    H270740   0.291   0.183  10.876 -1.4856 -1.6361  0.4217
16417TIP3   OH270741   3.008   3.771   2.931 -0.1391  0.2891  0.8702
16417TIP3    H170742   3.007   3.676   2.944 -0.9005  0.4029  1.7839
16417TIP3    H270743   2.957   3.805   3.005 -0.7737  1.3327 -0.0346
16418TIP3   OH270744   2.664   6.678   1.635 -0.0477 -0.1576  0.2076
16418TIP3    H170745   2.713   6.626   1.571 -0.9365 -1.1206  0.2942
16418TIP3    H270746   2.697   6.767   1.623  2.5143 -0.9092  0.9857
16419TIP3   OH270747   5.004   2.043  16.330  0.7939 -0.8278 -0.7260
16419TIP3    H170748   4.963   2.114  16.280  2.2688 -0.4483 -1.4571
16419TIP3    H270749   5.042   1.986  16.264 -1.0366 -2.7804 -0.1837
16420TIP3   OH270750   5.136   3.243   3.603  0.2976 -0.0466  0.2298
16420TIP3    H170751   5.170   3.289   3.527 -0.8823 -0.5366 -0.6317
16420TIP3    H270752   5.169   3.292   3.678  1.3846  0.5095 -0.5961
16421TIP3   OH270753   5.017   4.483   1.966 -0.3191 -0.2684  0.5486
16421TIP3    H170754   5.034   4.576   1.975 -1.7117  0.0708 -0.0277
16421TIP3    H270755   4.950   4.464   2.032 -0.0567 -0.8644  0.6531
16422TIP3   OH270756   6.219   1.952  13.614 -0.0521 -0.0546 -0.6363
16422TIP3    H170757   6.282   1.898  13.662 -0.8654 -0.8778 -0.4695
16422TIP3    H270758   6.175   2.004  13.682  1.1133  1.2702 -0.8467
16423TIP3   OH270759   0.228   2.643   1.959  0.2866  0.1811 -0.3890
16423TIP3    H170760   0.246   2.718   1.902  0.1137 -0.3066 -1.0922
16423TIP3    H270761   0.312   2.626   2.003  0.3214  0.7891 -0.2057
16424TIP3   OH270762   2.533   1.654   3.403  0.2294 -0.1327 -0.2923
16424TIP3    H170763   2.564   1.732   3.358  0.9830 -0.8191 -1.0041
16424TIP3    H270764   2.610   1.597   3.407 -0.6090 -1.3643 -0.9612
16425TIP3   OH270765   0.275   0.164   2.112  0.3034  0.2024  0.1326
16425TIP3    H170766   0.343   0.106   2.147  0.5853  1.8092  2.5303
16425TIP3    H270767   0.266   0.233   2.178 -2.7794  0.7694 -0.7049
16426TIP3   OH270768   4.435   2.186   0.318 -0.0864  0.2659 -0.9809
16426TIP3    H170769   4.343   2.205   0.297 -0.4582 -1.2846 -0.8593
16426TIP3    H270770   4.430   2.116   0.384  1.1384  1.8859  0.9377
16427TIP3   OH270771   3.079   4.276   3.404 -0.1592  0.7437 -0.2565
16427TIP3    H170772   3.164   4.306   3.437 -0.2738 -0.3040  1.0571
16427TIP3    H270773   3.087   4.181   3.401 -1.1870  0.6594 -0.3971
16428TIP3   OH270774   4.416   1.877   4.120  0.2805  0.1161  0.5058
16428TIP3    H170775   4.465   1.952   4.086  1.6107 -0.9301  0.0211
16428TIP3    H270776   4.434   1.807   4.058 -0.2217 -0.8504  1.4235
16429TIP3   OH270777   3.529   5.057  16.678 -0.5630  0.1362 -0.8365
16429TIP3    H170778   3.516   4.997  16.751 -0.1471  0.6718 -0.3122
16429TIP3    H270779   3.558   5.002  16.606 -0.0153 -0.2803 -0.3116
16430TIP3   OH270780   3.682   0.600  14.103  0.2671  0.0458 -0.2801
16430TIP3    H170781   3.694   0.613  14.008  1.7660 -0.1168 -0.1388
16430TIP3    H270782   3.632   0.677  14.131 -0.6434 -0.1628 -1.2847
16431TIP3   OH270783   0.107   4.295   5.516 -0.6429  0.3038  0.0292
16431TIP3    H170784   0.022   4.284   5.559 -1.2012 -1.1727 -1.3564
16431TIP3    H270785   0.119   4.214   5.467  2.3924 -0.2655  1.5156
16432TIP3   OH270786   0.298   1.535   0.211  0.2602 -0.2141  0.9136
16432TIP3    H170787   0.264   1.558   0.298  0.5955 -0.0382  1.0021
16432TIP3    H270788   0.283   1.614   0.158  0.7535 -0.0433  1.0217
16433TIP3   OH270789   4.964   3.453   4.068  0.3998 -0.3897  0.2471
16433TIP3    H170790   5.022   3.453   3.992  1.2351  2.3100  0.7667
16433TIP3    H270791   5.012   3.402   4.134  1.7983  0.9493  0.3374
16434TIP3   OH270792   3.263   5.846   0.747 -0.2752  0.1757 -0.1033
16434TIP3    H170793   3.250   5.759   0.709  0.4261 -0.6860  1.5319
16434TIP3    H270794   3.175   5.882   0.757 -0.6549 -0.8213  0.2261
16435TIP3   OH270795   5.455   1.508   5.244 -0.5721 -0.0093 -0.0398
16435TIP3    H170796   5.520   1.578   5.233 -0.1869 -0.0286  1.8239
16435TIP3    H270797   5.379   1.538   5.193 -0.2972  1.6144  0.4479
16436TIP3   OH270798   5.347   1.914   2.057  0.0023 -0.0622  0.0746
16436TIP3    H170799   5.338   1.829   2.100 -0.0860 -0.6648 -1.0897
16436TIP3    H270800   5.400   1.896   1.980 -0.4746  0.8356 -0.4790
16437TIP3   OH270801   5.833   4.433  16.937 -0.7623  0.0803  0.5222
16437TIP3    H170802   5.822   4.528  16.938 -0.8593  0.0699  0.4505
16437TIP3    H270803   5.827   4.409  16.845 -0.3789  0.0447  0.5044
16438TIP3   OH270804   1.277   5.828   1.998  0.3728 -0.0146 -0.0728
16438TIP3    H170805   1.183   5.845   1.995  0.2834 -0.2841  0.8706
16438TIP3    H270806   1.312   5.877   1.923 -0.6418 -0.7863 -1.0937
16439TIP3   OH270807   4.880   6.225   3.504  0.0562  0.1337 -0.5464
16439TIP3    H170808   4.910   6.225   3.413  0.5851  1.9504 -0.4145
16439TIP3    H270809   4.932   6.293   3.546 -1.5367  0.6659  0.6584
16440TIP3   OH270810   5.834   3.074   5.142  0.2394 -0.2222 -0.4960
16440TIP3    H170811   5.811   3.154   5.189  2.0585  0.1591 -0.1787
16440TIP3    H270812   5.762   3.061   5.080 -0.8967  0.7288  0.5698
16441TIP3   OH270813   4.556   3.747   2.757  0.0614  0.1217  0.5284
16441TIP3    H170814   4.525   3.834   2.730 -0.8780 -0.2817  0.2725
16441TIP3    H270815   4.499   3.723   2.831 -0.9173 -1.0265 -0.5411
16442TIP3   OH270816   0.274   1.672   4.221  0.3203  0.2977 -0.5324
16442TIP3    H170817   0.273   1.577   4.218 -0.8467  0.3005 -0.7064
16442TIP3    H270818   0.331   1.694   4.295  1.4237 -0.5004 -1.1139
16443TIP3   OH270819   3.021   3.570  16.484  0.2863 -0.1975  0.6184
16443TIP3    H170820   3.099   3.619  16.508 -0.3637  1.3697 -0.3070
16443TIP3    H270821   2.957   3.637  16.460 -0.7485 -1.4916 -0.4129
16444TIP3   OH270822   2.843   4.852  12.158 -0.4879 -0.3632 -0.2257
16444TIP3    H170823   2.896   4.776  12.138  0.9967  0.2150  1.2619
16444TIP3    H270824   2.906   4.921  12.181 -1.6796  1.7922 -2.8394
16445TIP3   OH270825   5.008   0.806  15.565  0.4532  0.0901 -0.6154
16445TIP3    H170826   5.101   0.804  15.542  0.9630  0.2324  1.2494
16445TIP3    H270827   5.006   0.782  15.658 -1.0649  2.8786  0.1900
16446TIP3   OH270828   4.294   3.825  17.194 -0.3381 -0.3047 -0.4920
16446TIP3    H170829   4.295   3.913  17.231 -0.8429 -0.6580  0.3929
16446TIP3    H270830   4.259   3.836  17.106 -1.5716  0.2254  0.0463
16447TIP3   OH270831   6.270   5.477   1.596 -0.4844 -0.1304 -0.1895
16447TIP3    H170832   6.324   5.446   1.523 -0.5379  0.6476 -0.5650
16447TIP3    H270833   6.184   5.493   1.557 -0.3949  0.7157 -0.0599
16448TIP3   OH270834   5.990   4.204  10.719  0.1784 -0.2723 -0.1497
16448TIP3    H170835   5.922   4.167  10.663  1.8238  0.6554 -2.9265
16448TIP3    H270836   6.000   4.294  10.688  3.3018 -0.6559 -0.5204
16449TIP3   OH270837   5.110   5.592  16.225  0.0776  0.4918  0.8245
16449TIP3    H170838   5.103   5.670  16.170  0.7395  0.5761  0.8582
16449TIP3    H270839   5.071   5.618  16.309  0.4057  0.8239  0.8757
16450TIP3   OH270840   1.300   5.029   0.532 -0.0830 -0.3056 -0.4235
16450TIP3    H170841   1.302   4.953   0.474 -2.7631 -1.1620  0.4845
16450TIP3    H270842   1.340   4.998   0.613  0.9719  0.0081 -0.8050
16451TIP3   OH270843   1.818   5.963  14.271 -0.2558 -0.5910  0.2277
16451TIP3    H170844   1.809   6.056  14.293  0.3543 -0.6221  0.6405
16451TIP3    H270845   1.910   5.952  14.250 -0.6822 -0.7070 -1.8020
16452TIP3   OH270846   6.102   0.080   0.936  0.2860 -0.6127  0.2467
16452TIP3    H170847   6.009   0.088   0.914  0.1896 -0.2534  0.7595
16452TIP3    H270848   6.105   0.093   1.031  1.0592  1.3334  0.0020
16453TIP3   OH270849   0.371   1.182   2.228 -0.3515 -0.0277 -0.6239
16453TIP3    H170850   0.406   1.271   2.218  1.6667 -0.7428 -0.3616
16453TIP3    H270851   0.400   1.155   2.315  0.2196 -1.4261 -1.2275
16454TIP3   OH270852   3.066   0.992  15.430  0.1661  0.3143  1.0842
16454TIP3    H170853   3.005   1.052  15.473 -0.4575 -0.7827  1.7796
16454TIP3    H270854   3.149   1.005  15.476  0.5115  1.8622  0.0878
16455TIP3   OH270855   3.461   0.601   5.801 -0.5542  0.1376 -0.0422
16455TIP3    H170856   3.542   0.647   5.779 -1.1784  0.9256 -0.7634
16455TIP3    H270857   3.401   0.624   5.730 -0.9290 -1.7152 -0.3890
16456TIP3   OH270858   6.405   2.201   2.869 -0.1762 -0.1830  0.3081
16456TIP3    H170859   6.328   2.245   2.832 -0.2867 -0.2724  0.4310
16456TIP3    H270860   6.469   2.270   2.879  0.0339 -0.2437 -0.5273
16457TIP3   OH270861   5.525   3.390   4.230 -0.3165 -0.1811 -0.1483
16457TIP3    H170862   5.483   3.473   4.210 -0.0811 -0.1215 -0.4113
16457TIP3    H270863   5.461   3.342   4.283 -1.0362 -0.3974 -1.1776
16458TIP3   OH270864   2.658   1.191   3.178 -0.3080 -0.4582 -0.1009
16458TIP3    H170865   2.739   1.242   3.173 -0.7247  0.1328 -1.7066
16458TIP3    H270866   2.596   1.249   3.222 -0.0186 -0.6848  0.6079
16459TIP3   OH270867   0.469   2.719  13.882 -0.8348  0.6831  0.0980
16459TIP3    H170868   0.375   2.723  13.865 -0.6138  0.1455 -1.3435
16459TIP3    H270869   0.509   2.754  13.803  0.2295 -1.4480 -0.3785
16460TIP3   OH270870   2.250   2.492   5.198  0.6361 -0.1577  0.2853
16460TIP3    H170871   2.317   2.441   5.245 -1.1458 -0.5373  2.6077
16460TIP3    H270872   2.179   2.430   5.183 -0.5353  0.9996  0.8689
16461TIP3   OH270873   2.602   2.354  15.182 -0.4095 -0.5980 -0.9415
16461TIP3    H170874   2.677   2.402  15.217 -1.2722  0.5988 -0.6796
16461TIP3    H270875   2.639   2.272  15.149  0.9403 -0.2146 -0.4320
16462TIP3   OH270876   4.170   4.682   5.228  0.1889  0.0180 -0.3839
16462TIP3    H170877   4.108   4.735   5.178 -0.7929  0.5003  1.2661
16462TIP3    H270878   4.129   4.672   5.315  0.0268 -3.8972 -0.7009
16463TIP3   OH270879   1.813   6.730  12.789  0.3430 -0.8032  0.2975
16463TIP3    H170880   1.815   6.700  12.698  1.6948 -0.2717  0.1184
16463TIP3    H270881   1.895   6.698  12.827 -0.0849 -0.7995  1.2578
16464TIP3   OH270882   4.561   2.927  15.315  0.2269 -0.0512  0.1328
16464TIP3    H170883   4.585   2.843  15.275 -1.2455 -0.0288 -0.9268
16464TIP3    H270884   4.492   2.905  15.377 -0.5317  0.4024 -0.5213
16465TIP3   OH270885   4.343   2.394  10.730  0.2789 -0.2403 -0.3218
16465TIP3    H170886   4.323   2.457  10.660 -2.2766 -1.7903 -1.1384
16465TIP3    H270887   4.336   2.309  10.687  2.1636 -1.1513  1.0875
16466TIP3   OH270888   1.339   4.182  16.663  0.7208 -0.4332  0.2310
16466TIP3    H170889   1.370   4.189  16.573  0.1908 -0.1087  0.0677
16466TIP3    H270890   1.246   4.159  16.655  0.7264 -0.6289  0.6969
16467TIP3   OH270891   2.253   5.740   1.423 -0.0757 -0.1717 -0.2752
16467TIP3    H170892   2.219   5.817   1.467  2.2007  0.2300  0.9551
16467TIP3    H270893   2.176   5.691   1.395 -1.5690  1.8031  0.2032
16468TIP3   OH270894   4.955   3.693   4.385 -0.3736 -0.0840  0.1654
16468TIP3    H170895   5.023   3.627   4.372  0.6361  0.9519  0.0041
16468TIP3    H270896   4.950   3.739   4.302  1.6729  2.4808  1.2855
16469TIP3   OH270897   6.418   5.588  15.479  0.3795 -0.3064 -0.2548
16469TIP3    H170898   6.429   5.671  15.525 -1.0701 -0.1325 -0.1664
16469TIP3    H270899   6.323   5.572  15.481  0.4778 -1.2005 -1.5904
16470TIP3   OH270900   0.475   2.580  12.145 -0.0554  0.1315 -0.2392
16470TIP3    H170901   0.443   2.662  12.109  0.5793  2.2076  3.3968
16470TIP3    H270902   0.397   2.533  12.173 -0.3463  0.5840 -0.2883
16471TIP3   OH270903   4.894   0.516  17.135  0.3083  0.4127  0.5049
16471TIP3    H170904   4.971   0.511  17.191  0.8949  1.4582 -0.1918
16471TIP3    H270905   4.820   0.508  17.196  0.9466 -0.6586  1.1709
16472TIP3   OH270906   4.178   1.516  12.898 -0.2419 -0.5134 -0.3603
16472TIP3    H170907   4.244   1.532  12.965 -1.4290  0.6578  0.5907
16472TIP3    H270908   4.228   1.496  12.819  1.2186 -0.6093  0.5540
16473TIP3   OH270909   0.148   4.647   5.201  0.1934 -0.1660  0.0950
16473TIP3    H170910   0.069   4.593   5.203  0.3092 -0.3181  0.8838
16473TIP3    H270911   0.116   4.737   5.199  0.0027 -0.2404 -0.3888
16474TIP3   OH270912   3.650   5.776  15.288  0.6152  0.0902  0.4981
16474TIP3    H170913   3.632   5.869  15.303  1.2005  0.2958 -0.0859
16474TIP3    H270914   3.660   5.740  15.376 -1.2805  0.2245  0.8287
16475TIP3   OH270915   4.008   5.782  13.018 -0.5262 -0.3970 -0.6032
16475TIP3    H170916   4.074   5.729  13.061 -1.1287 -0.2908  0.4750
16475TIP3    H270917   4.050   5.811  12.937  0.6082 -0.6415 -0.1225
16476TIP3   OH270918   2.450   2.003   4.254  0.0968 -0.1153  0.5705
16476TIP3    H170919   2.366   2.049   4.258 -0.2392 -0.6422 -0.1798
16476TIP3    H270920   2.508   2.053   4.312 -0.6511  0.4210  0.8673
16477TIP3   OH270921   0.281   4.522   2.084  0.6501 -0.9304 -0.1483
16477TIP3    H170922   0.325   4.450   2.041 -1.1479 -1.4623 -1.1838
16477TIP3    H270923   0.212   4.481   2.136  0.5183 -0.0477  0.3977
16478TIP3   OH270924   3.892   4.924  12.195  0.3678 -0.1039 -0.0682
16478TIP3    H170925   3.830   4.995  12.181  0.4922 -0.3765 -2.3951
16478TIP3    H270926   3.941   4.918  12.113  0.6125 -2.6233  0.1725
16479TIP3   OH270927   6.021   6.282  15.650  0.3597  0.3658 -0.5246
16479TIP3    H170928   6.102   6.282  15.699 -0.8154 -0.6273  1.5315
16479TIP3    H270929   6.015   6.194  15.612  0.4854  0.6181 -1.1545
16480TIP3   OH270930   2.904   3.090   0.195 -0.2910  0.6270  0.4785
16480TIP3    H170931   2.810   3.108   0.204 -0.1171  2.5443 -0.9582
16480TIP3    H270932   2.936   3.086   0.285 -1.6152  0.7075  0.9797
16481TIP3   OH270933   2.093   1.369   3.130  0.7733 -0.6637  0.0925
16481TIP3    H170934   2.003   1.380   3.100  0.2750 -0.2049  1.6181
16481TIP3    H270935   2.084   1.342   3.222  2.1719  1.5821  0.9689
16482TIP3   OH270936   6.273   0.567   4.707 -0.1491 -0.3824  0.0717
16482TIP3    H170937   6.272   0.514   4.786 -1.1916 -0.7419 -0.1673
16482TIP3    H270938   6.234   0.650   4.733  2.8719  0.9422  0.8414
16483TIP3   OH270939   6.253   3.578   5.581 -0.0141 -0.1244  0.5584
16483TIP3    H170940   6.277   3.574   5.489 -2.5029 -0.7807 -0.1433
16483TIP3    H270941   6.336   3.579   5.628  1.3075 -0.5485 -1.6446
16484TIP3   OH270942   6.261   4.581  12.320 -0.2631  0.0296  0.6589
16484TIP3    H170943   6.297   4.497  12.348  1.8829  1.2124  1.6751
16484TIP3    H270944   6.193   4.602  12.384  2.0190  0.9265  2.9618
16485TIP3   OH270945   3.921   3.653  14.382 -0.3925 -0.3516 -0.3743
16485TIP3    H170946   3.917   3.696  14.297  1.1857 -1.2651 -0.9477
16485TIP3    H270947   3.934   3.724  14.445 -0.4888  0.2328 -1.0105
16486TIP3   OH270948   1.004   4.974  13.510 -0.4478  0.4261 -0.5586
16486TIP3    H170949   0.953   4.974  13.428 -0.0084 -1.1960 -0.8555
16486TIP3    H270950   0.967   5.047  13.560  0.1895  2.3830 -2.7345
16487TIP3   OH270951   1.840   5.411  14.723  0.1218 -0.3298  0.5963
16487TIP3    H170952   1.870   5.502  14.730  1.0457 -0.3491 -1.8720
16487TIP3    H270953   1.912   5.365  14.680 -1.8258 -1.2398 -2.0345
16488TIP3   OH270954   1.053   3.987   3.062 -0.1229 -0.2676  0.5236
16488TIP3    H170955   1.123   4.036   3.105  0.3502 -0.2602 -0.2342
16488TIP3    H270956   1.090   3.900   3.047 -0.3461 -0.3254  0.2989
16489TIP3   OH270957   1.794   6.061   4.302  0.4604  0.3099 -0.2100
16489TIP3    H170958   1.811   6.049   4.208  0.4765 -0.7909 -0.0806
16489TIP3    H270959   1.707   6.102   4.305  0.2012 -0.1834 -0.6999
16490TIP3   OH270960   4.946   6.395   3.903 -0.1051 -0.0511  0.2468
16490TIP3    H170961   5.004   6.451   3.954  0.7775 -0.5485 -0.1758
16490TIP3    H270962   4.899   6.454   3.844  1.3769  0.1963 -0.7409
16491TIP3   OH270963   4.252   1.227   0.705 -0.1400  0.0216 -0.0377
16491TIP3    H170964   4.266   1.157   0.641  0.1882 -1.3106  1.4297
16491TIP3    H270965   4.171   1.269   0.677 -0.9298 -1.6500 -0.3742
16492TIP3   OH270966   0.751   0.461   3.460 -0.2870  0.7502  0.1294
16492TIP3    H170967   0.700   0.380   3.456 -1.6293  1.5592  0.2432
16492TIP3    H270968   0.826   0.445   3.403 -0.6828 -0.4588 -0.0813
16493TIP3   OH270969   4.358   4.614  15.122 -0.4280 -0.7756  0.3721
16493TIP3    H170970   4.438   4.611  15.173  0.4320  0.0077 -0.8806
16493TIP3    H270971   4.329   4.705  15.128 -0.4736 -0.7433 -0.2827
16494TIP3   OH270972   3.972   4.165   4.195 -0.1754  0.5812 -0.3002
16494TIP3    H170973   4.002   4.222   4.265 -0.0298 -0.5167  0.5509
16494TIP3    H270974   4.047   4.108   4.175  0.0414  1.3532 -1.8740
16495TIP3   OH270975   1.440   4.106  13.100 -1.0542  0.6584  1.0984
16495TIP3    H170976   1.359   4.073  13.139 -0.4789 -2.9353 -0.3397
16495TIP3    H270977   1.414   4.134  13.012 -0.5386 -2.4277 -0.1292
16496TIP3   OH270978   3.863   4.862   5.558  0.1639  0.0274  0.3644
16496TIP3    H170979   3.891   4.870   5.649 -0.1842  0.2145  0.4600
16496TIP3    H270980   3.883   4.948   5.519 -1.8691  0.8109  0.9001
16497TIP3   OH270981   0.088   6.230  11.896 -0.3212 -0.0144  0.0286
16497TIP3    H170982   0.063   6.317  11.863  0.3185  0.1250 -0.0907
16497TIP3    H270983   0.093   6.242  11.991  0.4709  0.2655 -0.0436
16498TIP3   OH270984   5.923   4.415  13.236 -0.1527  0.0770  0.7615
16498TIP3    H170985   5.948   4.506  13.256  1.0727 -0.2844  1.0082
16498TIP3    H270986   5.844   4.400  13.288 -0.0854  0.8543  1.1084
16499TIP3   OH270987   0.194   6.651   2.222  0.3234  0.0905 -0.0366
16499TIP3    H170988   0.108   6.674   2.258 -0.2330 -2.9452  0.8301
16499TIP3    H270989   0.174   6.606   2.140  1.0096 -1.1776  0.4652
16500TIP3   OH270990   3.975   6.436  15.842 -0.1667  0.2819  0.1802
16500TIP3    H170991   3.933   6.500  15.785 -2.0513 -1.0501 -0.0184
16500TIP3    H270992   3.946   6.459  15.930  0.2818  0.5183  0.2695
16501TIP3   OH270993   2.338   6.035   4.740 -0.2420 -0.5631  0.1195
16501TIP3    H170994   2.344   6.095   4.814 -0.5246 -3.1134  2.3988
16501TIP3    H270995   2.273   5.970   4.768  1.3872 -2.9494 -1.3316
16502TIP3   OH270996   6.133   1.187  11.743 -0.2882 -0.2320 -0.2566
16502TIP3    H170997   6.215   1.161  11.785 -0.8787  0.3100  1.3109
16502TIP3    H270998   6.142   1.282  11.730 -0.6170 -0.1919 -0.1997
16503TIP3   OH270999   0.596   6.799  14.394 -0.3494 -0.0929 -0.4712
16503TIP3    H171000   0.617   6.725  14.452 -0.7523  0.9082  0.9960
16503TIP3    H271001   0.589   6.759  14.307 -1.1469 -1.8968  0.3549
16504TIP3   OH271002   4.817   3.528  11.436 -0.1267  0.1116 -0.4216
16504TIP3    H171003   4.803   3.566  11.523 -0.8716 -1.6779  0.2875
16504TIP3    H271004   4.911   3.536  11.421  0.0120  0.4459  0.5474
16505TIP3   OH271005   0.438   6.200   3.381  0.2142  0.4646  0.0001
16505TIP3    H171006   0.345   6.223   3.383  0.3813  1.2976 -0.7449
16505TIP3    H271007   0.446   6.139   3.308  0.1580 -0.0920  0.4557
16506TIP3   OH271008   0.687   5.000  11.501  0.1636  0.1891  0.0803
16506TIP3    H171009   0.657   5.078  11.548 -0.4279  0.4693 -0.7316
16506TIP3    H271010   0.759   5.031  11.446 -0.2451  0.2325 -0.4410
16507TIP3   OH271011   5.528   2.669  15.927 -1.0318 -0.4938  0.5146
16507TIP3    H171012   5.489   2.716  15.854  1.0778  0.5722  0.0045
16507TIP3    H271013   5.516   2.728  16.002 -0.0558  0.0346  0.2665
16508TIP3   OH271014   6.225   1.551  15.170  0.1786 -0.1977  0.0953
16508TIP3    H171015   6.240   1.461  15.141  1.0351 -0.3064  0.8499
16508TIP3    H271016   6.144   1.547  15.220  0.3732 -0.6120  0.3846
16509TIP3   OH271017   6.210   5.184  14.565 -0.2910  0.1450  0.5483
16509TIP3    H171018   6.249   5.151  14.645 -2.2072 -3.0132  0.3412
16509TIP3    H271019   6.281   5.181  14.500  0.1727 -1.6123  1.0972
16510TIP3   OH271020   1.258   6.152   3.262  0.7430  0.0038  0.2378
16510TIP3    H171021   1.256   6.239   3.303  0.8941 -0.5221  1.3986
16510TIP3    H271022   1.350   6.128   3.262  0.7633  0.0654 -0.5844
16511TIP3   OH271023   3.731   4.949  10.850 -0.5078 -0.5094 -0.0320
16511TIP3    H171024   3.734   5.017  10.782  3.0296  0.2740  0.7025
16511TIP3    H271025   3.643   4.912  10.843 -1.1765  1.3048 -3.2597
16512TIP3   OH271026   0.415   4.251  17.072  0.3917 -0.0647  0.3410
16512TIP3    H171027   0.424   4.177  17.012 -2.0806  0.2579 -0.5615
16512TIP3    H271028   0.486   4.310  17.049 -0.1076 -0.2469 -1.8652
16513TIP3   OH271029   3.029   2.365  14.291 -0.2080 -0.0164 -0.3411
16513TIP3    H171030   3.037   2.270  14.283  1.9872  0.1834 -1.1512
16513TIP3    H271031   2.981   2.391  14.212 -0.3434 -0.4054 -0.3914
16514TIP3   OH271032   4.288   0.967   2.221 -0.3126 -0.0542 -0.5352
16514TIP3    H171033   4.194   0.969   2.202 -0.5989 -1.0806  0.6214
16514TIP3    H271034   4.296   0.905   2.294  1.3263 -0.3998 -0.9689
16515TIP3   OH271035   4.531   2.050  15.270 -0.7581  1.4810  0.0009
16515TIP3    H171036   4.492   1.974  15.228 -0.3004  1.8018 -1.0195
16515TIP3    H271037   4.488   2.054  15.356 -1.0585  0.3101 -0.0829
16516TIP3   OH271038   4.981   4.906   5.539  0.4904  0.3052  0.3077
16516TIP3    H171039   4.943   4.993   5.527 -1.8275 -0.1451  3.1397
16516TIP3    H271040   5.052   4.919   5.602  1.4157  0.3532 -0.7131
16517TIP3   OH271041   3.340   3.664  10.711  0.6496 -0.5287  0.5070
16517TIP3    H171042   3.426   3.623  10.723  1.3116  0.5155 -0.4739
16517TIP3    H271043   3.358   3.758  10.707 -0.1977 -0.4012 -2.2142
16518TIP3   OH271044   1.333   4.710  14.476  0.3125 -0.0420 -0.0915
16518TIP3    H171045   1.307   4.662  14.397  0.3014  0.0027 -0.1154
16518TIP3    H271046   1.401   4.770  14.445  2.0357 -1.6561  0.3526
16519TIP3   OH271047   3.158   2.982   2.665 -0.0226 -0.6739  0.2500
16519TIP3    H171048   3.132   2.972   2.756 -0.7356 -2.1609 -0.0792
16519TIP3    H271049   3.214   3.060   2.664 -1.7395  0.6579  1.5701
16520TIP3   OH271050   4.359   1.407   4.517  0.3780  0.0538 -0.4708
16520TIP3    H171051   4.371   1.447   4.431  0.0669 -1.2072 -1.1197
16520TIP3    H271052   4.423   1.451   4.573  0.1583  1.3286 -1.1831
16521TIP3   OH271053   2.498   3.994  16.797 -0.6820 -0.3063  0.4071
16521TIP3    H171054   2.547   3.950  16.727  1.0357  0.4475  1.0681
16521TIP3    H271055   2.532   3.954  16.878 -0.7990  0.5946  0.9118
16522TIP3   OH271056   2.900   4.414   1.715 -0.2136  0.4239 -0.2358
16522TIP3    H171057   2.933   4.334   1.676 -0.5744 -0.4714  1.2048
16522TIP3    H271058   2.978   4.467   1.731  0.2841 -0.5460  0.7020
16523TIP3   OH271059   0.018   5.047  15.718 -0.2939 -0.2671  0.5358
16523TIP3    H171060  -0.068   5.079  15.745  0.3915  1.8184  0.3830
16523TIP3    H271061   0.080   5.094  15.774  0.8884  0.4823 -1.3219
16524TIP3   OH271062   4.783   0.602  16.640 -0.1725  0.3088  0.3023
16524TIP3    H171063   4.691   0.627  16.647 -0.7373 -0.7857 -2.0517
16524TIP3    H271064   4.789   0.518  16.686 -0.6035 -0.1223 -0.4191
16525TIP3   OH271065   5.700   5.213   1.608  0.3378  0.3444 -0.1049
16525TIP3    H171066   5.658   5.151   1.668  0.4547 -0.0565 -0.4348
16525TIP3    H271067   5.634   5.229   1.540  0.2858  0.6283  0.0116
16526TIP3   OH271068   2.515   6.526  14.101  0.4960 -0.0534 -0.3724
16526TIP3    H171069   2.599   6.543  14.059  1.4567  1.1229  1.8364
16526TIP3    H271070   2.456   6.591  14.063  1.8442  2.3673  1.3674
16527TIP3   OH271071   0.845   1.241  12.893  0.0316  0.3412 -0.3275
16527TIP3    H171072   0.866   1.273  12.981 -1.2871 -1.0756  0.5543
16527TIP3    H271073   0.767   1.290  12.868  1.0303  1.5286 -1.1990
16528TIP3   OH271074   2.484   5.965  11.285  0.1569  0.0186  0.3820
16528TIP3    H171075   2.426   5.994  11.214  0.4836 -0.1238  0.0563
16528TIP3    H271076   2.451   6.011  11.362 -0.3334  0.0123  0.1806
16529TIP3   OH271077   3.295   0.853  17.101 -0.0020 -0.3806 -0.2670
16529TIP3    H171078   3.213   0.862  17.053  1.0622  0.3712 -2.0478
16529TIP3    H271079   3.295   0.763  17.133 -1.1303 -0.6519 -0.9794
16530TIP3   OH271080   5.779   3.125  14.232  0.3392  0.3820  0.5171
16530TIP3    H171081   5.723   3.098  14.305 -0.4681  0.1281 -0.1795
16530TIP3    H271082   5.857   3.069  14.240  0.7901  1.1469  1.8431
16531TIP3   OH271083   0.074   1.908  16.010  0.0157 -0.0167 -0.0097
16531TIP3    H171084   0.148   1.950  15.966  1.0555 -2.4069 -0.7230
16531TIP3    H271085   0.012   1.889  15.940  1.0758 -2.6029 -0.3744
16532TIP3   OH271086   1.697   5.367   2.804 -0.2303 -0.1167 -0.3675
16532TIP3    H171087   1.757   5.302   2.841  0.1733 -0.8357 -2.1656
16532TIP3    H271088   1.671   5.420   2.878  4.8668  2.1021  0.2462
16533TIP3   OH271089   2.922   2.601   0.223 -0.1956  0.4668 -0.3189
16533TIP3    H171090   2.991   2.652   0.181  1.0866 -1.1035 -0.2124
16533TIP3    H271091   2.961   2.573   0.306 -0.6295 -1.1665 -0.6433
16534TIP3   OH271092   0.039   6.010  14.814  0.6583 -0.5288  0.4142
16534TIP3    H171093   0.050   5.973  14.726  0.4123  0.2572  0.0423
16534TIP3    H271094   0.059   6.103  14.804  3.8594 -0.9318  1.8580
16535TIP3   OH271095   3.290   3.039   5.599  0.4357  0.1960 -0.1717
16535TIP3    H171096   3.267   3.071   5.511  2.7430 -0.6909 -1.2067
16535TIP3    H271097   3.377   3.076   5.614  1.4204 -2.2086  0.3432
16536TIP3   OH271098   4.199   5.153  16.994  0.3029  0.0599 -0.0167
16536TIP3    H171099   4.285   5.111  16.984  0.3779 -0.0039  0.8801
16536TIP3    H271100   4.179   5.186  16.906 -0.1176 -2.4921 -0.9586
16537TIP3   OH271101   3.040   3.656   5.138 -0.2654  0.0088 -0.2017
16537TIP3    H171102   3.119   3.663   5.192  0.5960 -1.5122 -1.2064
16537TIP3    H271103   2.992   3.737   5.155  0.5067  0.0548  1.9895
16538TIP3   OH271104   4.782   0.002   1.679  0.1885 -0.4577 -0.8079
16538TIP3    H171105   4.842  -0.072   1.680  1.4191  0.5194 -0.6511
16538TIP3    H271106   4.836   0.078   1.660 -0.7509  0.6477  0.6739
16539TIP3   OH271107   4.725   2.018   5.059 -0.0969 -0.2270 -0.1818
16539TIP3    H171108   4.683   2.049   4.979  1.3216  1.3115 -0.3983
16539TIP3    H271109   4.742   2.097   5.109  0.5935 -1.0018  0.8555
16540TIP3   OH271110   6.381   0.069  12.082 -0.6305 -0.0150  0.5326
16540TIP3    H171111   6.394  -0.008  12.025  1.9426  0.8358 -0.1786
16540TIP3    H271112   6.290   0.094  12.067 -1.0611 -1.9211 -0.4866
16541TIP3   OH271113   4.450   3.654  10.900  0.7665 -0.9639  0.4542
16541TIP3    H171114   4.502   3.629  10.824  0.5772  0.3607 -0.1322
16541TIP3    H271115   4.361   3.662  10.866  0.8894  0.9824  0.4664
16542TIP3   OH271116   4.969   2.809   0.574  0.0683 -0.3028 -0.5354
16542TIP3    H171117   4.935   2.729   0.534 -2.9842  1.0104 -0.8241
16542TIP3    H271118   4.942   2.803   0.666  0.2276  0.1966 -0.4522
16543TIP3   OH271119   5.352   3.112  14.239  0.3592  0.5927 -0.2237
16543TIP3    H171120   5.414   3.168  14.285  1.1791 -0.5775  0.1393
16543TIP3    H271121   5.293   3.080  14.307 -0.3997  1.3537 -0.5018
16544TIP3   OH271122   4.144   6.573   4.654 -0.1687  0.6766 -0.3628
16544TIP3    H171123   4.183   6.644   4.705  0.1597  0.7683 -0.7310
16544TIP3    H271124   4.122   6.506   4.718 -0.2830  1.0240 -0.0358
16545TIP3   OH271125   0.055   4.456  15.145  0.4756 -0.6831 -0.1684
16545TIP3    H171126   0.085   4.457  15.054  2.1413  0.2165  0.3349
16545TIP3    H271127   0.008   4.538  15.156 -0.6539 -1.2744 -0.4790
16546TIP3   OH271128   2.247   2.882   5.171 -0.7785  0.2227 -0.5663
16546TIP3    H171129   2.293   2.899   5.089 -0.3645 -1.5760 -0.7541
16546TIP3    H271130   2.157   2.906   5.154 -0.3572  1.5805 -0.9482
16547TIP3   OH271131   1.837   5.398  12.170 -0.3518 -0.9494  0.0087
16547TIP3    H171132   1.882   5.314  12.182  4.1555  1.4037  2.3996
16547TIP3    H271133   1.828   5.407  12.075  3.8190 -2.1713 -0.7358
16548TIP3   OH271134   1.557   1.176  15.577 -0.1225 -0.7948  0.4956
16548TIP3    H171135   1.499   1.111  15.538  0.1570  0.2970 -1.9136
16548TIP3    H271136   1.622   1.125  15.625  0.3557 -2.3833 -1.6872
16549TIP3   OH271137   2.582   0.991  12.919  0.1823 -0.1262 -0.1363
16549TIP3    H171138   2.638   0.917  12.940 -0.6262 -0.5208  0.6812
16549TIP3    H271139   2.496   0.953  12.903 -0.1680  0.5966 -0.0535
16550TIP3   OH271140   2.412   0.834   0.614  0.2437 -0.4519 -0.0955
16550TIP3    H171141   2.482   0.883   0.657 -0.3873  0.5605 -0.1834
16550TIP3    H271142   2.332   0.873   0.649 -0.2749 -1.0252 -0.6319
16551TIP3   OH271143   6.636   5.798  17.034  0.0357  0.3585  0.0448
16551TIP3    H171144   6.578   5.741  16.982 -0.4605  0.5770  0.3564
16551TIP3    H271145   6.637   5.758  17.121  1.7050 -0.6107 -0.3818
16552TIP3   OH271146   1.003   3.894   5.181 -0.0408 -0.2250  0.0551
16552TIP3    H171147   0.935   3.920   5.243  0.3010  2.5197 -0.5955
16552TIP3    H271148   0.971   3.811   5.144 -1.7950 -0.2730  1.5480
16553TIP3   OH271149   4.232   1.956  13.429 -0.3005  0.4993  0.0156
16553TIP3    H171150   4.190   1.881  13.388 -0.9088  0.1434  1.2163
16553TIP3    H271151   4.187   1.964  13.514 -0.4882  2.4211 -0.2282
16554TIP3   OH271152   2.994   1.629  16.638 -0.1157 -0.3197 -0.1090
16554TIP3    H171153   2.900   1.616  16.653 -0.3207  0.3257 -0.7808
16554TIP3    H271154   3.006   1.607  16.545 -0.5079  4.0976 -1.4156
16555TIP3   OH271155   4.911   5.278  15.207 -0.1776 -0.2516 -0.2110
16555TIP3    H171156   4.848   5.351  15.206 -1.0495 -0.9946 -0.6166
16555TIP3    H271157   4.969   5.295  15.132 -1.0284 -0.5148 -0.9474
16556TIP3   OH271158   6.511   4.504   0.402  0.1022  0.3420  0.3755
16556TIP3    H171159   6.579   4.571   0.388 -0.7566  1.0201 -0.7324
16556TIP3    H271160   6.458   4.539   0.473  0.2349  0.3663  0.4639
16557TIP3   OH271161   0.140   2.785   4.257 -0.2552  0.1994  0.3807
16557TIP3    H171162   0.114   2.756   4.169 -1.1577  0.0746  0.6718
16557TIP3    H271163   0.066   2.761   4.312  0.3287  0.2312  1.1890
16558TIP3   OH271164   1.322   4.012  12.036 -0.5219  0.4954  0.0145
16558TIP3    H171165   1.228   3.996  12.030 -0.3720 -0.5295  0.1696
16558TIP3    H271166   1.331   4.107  12.034 -1.2587  0.6662 -4.4574
16559TIP3   OH271167   4.710   2.291  13.898  0.4020  0.5533  0.8111
16559TIP3    H171168   4.710   2.231  13.823 -1.7990 -0.6639  1.6664
16559TIP3    H271169   4.789   2.268  13.946  1.6630  1.1111 -0.9188
16560TIP3   OH271170   6.024   1.637  17.144 -0.3807  0.2088  0.0353
16560TIP3    H171171   5.974   1.717  17.129 -1.9224 -0.7824 -0.2837
16560TIP3    H271172   5.963   1.566  17.124  1.0758 -1.0558 -0.0768
16561TIP3   OH271173   2.113   0.856  15.463  0.2374 -0.0749  0.2224
16561TIP3    H171174   2.165   0.794  15.412  0.0019 -0.3071  0.2627
16561TIP3    H271175   2.167   0.875  15.539 -0.3329 -1.4299  0.9952
16562TIP3   OH271176   0.898   4.796  11.770  0.8184 -0.3598  0.5868
16562TIP3    H171177   0.913   4.887  11.744  0.5231 -0.8891 -1.6035
16562TIP3    H271178   0.985   4.765  11.797  1.4809 -0.1478 -1.1553
16563TIP3   OH271179   6.411   4.614  11.128 -0.2688 -0.1501 -0.4088
16563TIP3    H171180   6.353   4.560  11.183 -0.5736  0.9662  0.4122
16563TIP3    H271181   6.488   4.559  11.113  0.3395 -0.1276  2.1170
16564TIP3   OH271182   5.830   2.411   4.725 -0.0995 -0.2192  0.0639
16564TIP3    H171183   5.781   2.469   4.783  1.4226  2.7303 -1.3548
16564TIP3    H271184   5.910   2.460   4.704  2.1687 -3.5754  0.0184
16565TIP3   OH271185   2.449   1.351  11.086 -0.1593  0.5793 -0.3016
16565TIP3    H171186   2.424   1.443  11.100 -0.8993  0.2784  0.4776
16565TIP3    H271187   2.416   1.330  10.998 -0.5398  0.8885 -0.2386
16566TIP3   OH271188   2.735   2.200   3.504  0.4743 -0.4103  0.4482
16566TIP3    H171189   2.667   2.256   3.542  0.3986 -0.8026  0.9123
16566TIP3    H271190   2.784   2.257   3.446  1.8583  0.7708  2.6477
16567TIP3   OH271191   3.106   4.577   5.494  0.2153 -0.5153  0.0798
16567TIP3    H171192   3.077   4.595   5.583 -0.8463  0.7580 -0.4985
16567TIP3    H271193   3.199   4.600   5.494 -0.3067  1.7906  0.2713
16568TIP3   OH271194   3.196   2.307   6.277  0.0536 -0.2084  0.2009
16568TIP3    H171195   3.191   2.216   6.248 -0.0709  0.1165 -0.8383
16568TIP3    H271196   3.269   2.309   6.338 -1.5407 -1.5223  2.2730
16569TIP3   OH271197   3.000   4.005  13.887  0.5434  0.9954  0.1794
16569TIP3    H171198   2.917   3.966  13.858  1.3307  0.4951 -1.5645
16569TIP3    H271199   2.984   4.031  13.977 -1.4658  0.7780 -0.0631
16570TIP3   OH271200   0.754   3.285   1.065 -0.6580  0.1427  0.0580
16570TIP3    H171201   0.822   3.327   1.012  0.4849  0.5256  1.7714
16570TIP3    H271202   0.730   3.207   1.014  1.0688  0.0006 -0.6176
16571TIP3   OH271203   5.508   0.487   6.785  0.3196  0.3798  0.2677
16571TIP3    H171204   5.452   0.525   6.718 -0.9453  2.0717  2.1496
16571TIP3    H271205   5.449   0.432   6.837  0.6124  1.2129  1.5452
16572TIP3   OH271206   6.092   5.954   4.556 -0.0142  0.1149 -0.4581
16572TIP3    H171207   6.166   6.014   4.565  0.8570 -0.8057 -1.1256
16572TIP3    H271208   6.016   6.010   4.548  0.7356  1.1257 -0.7666
16573TIP3   OH271209   1.159   0.231  11.281  0.3752 -0.4249 -0.0637
16573TIP3    H171210   1.190   0.185  11.203 -0.2092  1.0923 -1.2596
16573TIP3    H271211   1.215   0.309  11.286 -0.5686  0.2579  0.1500
16574TIP3   OH271212   3.677   3.633  12.052 -0.2243  0.2884 -0.5556
16574TIP3    H171213   3.772   3.648  12.045  0.3963 -2.0924  1.3573
16574TIP3    H271214   3.661   3.630  12.146 -1.8225 -1.3552 -0.8453
16575TIP3   OH271215   1.403   1.870  13.362  0.6047  0.7182  0.4059
16575TIP3    H171216   1.386   1.933  13.432  0.9808  0.0955  1.0742
16575TIP3    H271217   1.371   1.787  13.397 -1.1234  0.7354 -0.9755
16576TIP3   OH271218   4.516   5.306   3.792  1.0557  0.4974 -0.0830
16576TIP3    H171219   4.504   5.398   3.815 -0.5224  0.1291  0.7135
16576TIP3    H271220   4.468   5.295   3.710 -1.1405 -0.1503  1.1900
16577TIP3   OH271221   6.155   5.467  16.297  0.6759  0.4207 -0.1578
16577TIP3    H171222   6.205   5.469  16.216  1.2317  3.8301  0.1034
16577TIP3    H271223   6.214   5.426  16.360  1.5526  0.7214 -0.7641
16578TIP3   OH271224   3.536   5.404  16.057 -0.0915  0.2321 -0.3221
16578TIP3    H171225   3.546   5.381  15.965  0.0996  3.1879 -1.1215
16578TIP3    H271226   3.488   5.330  16.095  1.3178 -1.8729 -2.3430
16579TIP3   OH271227   4.908   0.174  14.640  0.2828  0.4118 -0.2206
16579TIP3    H171228   4.977   0.121  14.678 -0.6468 -0.4638  0.2665
16579TIP3    H271229   4.904   0.252  14.696 -1.2422 -0.9645  1.6999
16580TIP3   OH271230   1.592   4.893  17.065  0.4003 -0.1427  0.3711
16580TIP3    H171231   1.617   4.981  17.035  0.2083  1.0218  3.2713
16580TIP3    H271232   1.496   4.896  17.070  0.4019 -0.4860  0.5963
16581TIP3   OH271233   5.986   2.119   2.453  0.0290  0.3480  0.1904
16581TIP3    H171234   5.999   2.040   2.504  0.0358 -0.1316 -0.5293
16581TIP3    H271235   5.976   2.087   2.363 -1.2843  1.0494  0.0610
16582TIP3   OH271236   3.358   4.732  10.590  0.2956 -0.1459  0.5355
16582TIP3    H171237   3.270   4.759  10.616  0.8305  0.5957  1.6731
16582TIP3    H271238   3.353   4.636  10.584 -0.2341 -0.2516  2.0826
16583TIP3   OH271239   3.625   1.638   3.707  0.0877 -0.2193 -0.3071
16583TIP3    H171240   3.605   1.731   3.719 -1.9560 -0.7612  1.0997
16583TIP3    H271241   3.542   1.600   3.679  0.1699 -2.0079  1.6600
16584TIP3   OH271242   2.972   2.476   3.554 -0.0824 -0.0684 -0.2914
16584TIP3    H171243   2.935   2.418   3.621  0.1862 -0.0144 -0.0947
16584TIP3    H271244   2.899   2.492   3.493 -0.2931 -0.2193 -0.0814
16585TIP3   OH271245   6.151   5.277   2.364 -0.2735  0.0184  0.4825
16585TIP3    H171246   6.242   5.254   2.380 -0.6144 -0.0450  2.5846
16585TIP3    H271247   6.115   5.200   2.320  0.6406 -0.0008 -0.2596
16586TIP3   OH271248   3.535   3.856   2.283 -0.0813 -0.2631 -0.3880
16586TIP3    H171249   3.447   3.894   2.282  0.0991  0.1855 -1.7220
16586TIP3    H271250   3.542   3.810   2.199  0.4554 -1.5177  0.3177
16587TIP3   OH271251   3.685   5.263   2.486  1.2429  0.6717 -0.3492
16587TIP3    H171252   3.597   5.298   2.502  0.4317 -0.4423 -2.0745
16587TIP3    H271253   3.712   5.226   2.570  0.2264  1.3632  0.3060
16588TIP3   OH271254   4.693   4.252   5.503 -0.0068  0.4179 -0.3449
16588TIP3    H171255   4.655   4.322   5.450 -1.1239 -0.8847 -1.3244
16588TIP3    H271256   4.654   4.172   5.468  2.5851 -0.8938 -0.4722
16589TIP3   OH271257   6.184   3.454  16.283  0.0780 -0.1341  0.1196
16589TIP3    H171258   6.280   3.452  16.289  0.1472 -1.5035 -0.8679
16589TIP3    H271259   6.156   3.501  16.362  1.5895  1.2252 -0.1075
16590TIP3   OH271260   4.849   5.251   0.690  0.0317  0.0763 -0.5477
16590TIP3    H171261   4.916   5.192   0.654 -0.0383 -1.8712  2.2337
16590TIP3    H271262   4.788   5.265   0.617  1.7759 -0.6381 -2.2431
16591TIP3   OH271263   1.930   3.441   0.157 -0.1205 -0.3422  0.2124
16591TIP3    H171264   1.846   3.418   0.198 -1.4312  0.9951 -1.5684
16591TIP3    H271265   1.938   3.535   0.170  0.2249 -0.1637 -1.1175
16592TIP3   OH271266   1.781   6.427  14.932 -0.4297 -0.2979  0.0280
16592TIP3    H171267   1.705   6.409  14.877 -1.5762 -1.1750  1.7733
16592TIP3    H271268   1.770   6.519  14.958 -1.6524 -0.7485  1.2641
16593TIP3   OH271269   4.174   5.861  17.270  0.1744  0.7464  0.0063
16593TIP3    H171270   4.154   5.782  17.220 -0.2679  1.1043 -0.3976
16593TIP3    H271271   4.095   5.877  17.322  1.2949 -0.6677  2.2705
16594TIP3   OH271272   2.808   3.601  16.106 -0.0874 -0.3102  0.3100
16594TIP3    H171273   2.833   3.531  16.046  0.2630 -1.0449  1.2780
16594TIP3    H271274   2.723   3.631  16.075  0.4469 -0.1168 -1.0231
16595TIP3   OH271275   1.135   1.643   5.542 -0.0172 -0.1329 -0.2982
16595TIP3    H171276   1.162   1.557   5.510 -0.1219  0.0325 -0.8320
16595TIP3    H271277   1.047   1.629   5.576  1.0462 -0.9119  2.3997
16596TIP3   OH271278   1.761   3.272   5.272 -0.3257  0.6378  0.4976
16596TIP3    H171279   1.848   3.235   5.253 -0.7741 -0.1996 -0.0214
16596TIP3    H271280   1.731   3.306   5.188 -0.5652  0.7854  0.6434
16597TIP3   OH271281   3.564   1.011  14.603 -0.5115  0.8211  0.1717
16597TIP3    H171282   3.535   0.920  14.591 -2.3618  1.4409 -0.4367
16597TIP3    H271283   3.484   1.059  14.623  0.3525  2.4168 -0.0434
16598TIP3   OH271284   0.361   5.901  10.939  0.2401 -0.0775 -0.0807
16598TIP3    H171285   0.354   5.896  10.843 -1.5881  1.8534 -0.1285
16598TIP3    H271286   0.451   5.874  10.958  1.2687  1.3146 -2.5086
16599TIP3   OH271287   0.949   3.334   6.153 -0.4609  0.5936  0.2703
16599TIP3    H171288   0.876   3.276   6.129  1.2141 -1.5654  0.0052
16599TIP3    H271289   0.955   3.328   6.248 -0.5971  0.7089  0.2854
16600TIP3   OH271290   6.586   2.880   2.741 -0.3855 -0.4358 -0.5455
16600TIP3    H171291   6.642   2.873   2.664  0.3123 -1.5101  0.0313
16600TIP3    H271292   6.563   2.972   2.746  1.7375  0.1367 -0.5244
16601TIP3   OH271293   3.226   4.046  15.638  0.3485  0.5810  0.3271
16601TIP3    H171294   3.252   4.078  15.725 -2.1711  0.4808  1.1953
16601TIP3    H271295   3.268   3.960  15.631  0.0207  0.2666  1.7786
16602TIP3   OH271296   3.932   6.500   1.992 -0.5657 -0.2739 -0.3457
16602TIP3    H171297   3.980   6.576   1.960  0.1605 -0.0437  1.2088
16602TIP3    H271298   3.869   6.536   2.054 -1.0903 -0.8339 -0.5378
16603TIP3   OH271299   4.092   5.201   2.917  0.2281 -0.3376  0.0615
16603TIP3    H171300   4.029   5.270   2.894  1.2215  0.2478 -1.0560
16603TIP3    H271301   4.041   5.121   2.919 -0.3767 -0.0591 -2.0315
16604TIP3   OH271302   2.026   4.342   4.175  0.2747 -0.2872 -0.3896
16604TIP3    H171303   2.031   4.358   4.081  1.6034 -2.6212 -0.7861
16604TIP3    H271304   2.032   4.247   4.185 -2.4166 -0.3648  1.9594
16605TIP3   OH271305   3.724   2.197  10.887 -0.1718  0.0692 -0.3508
16605TIP3    H171306   3.650   2.252  10.861  0.5636  0.7123 -1.1575
16605TIP3    H271307   3.740   2.142  10.811  0.0432 -0.2142 -0.1020
16606TIP3   OH271308   0.703   5.388  12.697 -0.4132 -0.4548 -0.1478
16606TIP3    H171309   0.669   5.477  12.696  0.3677 -0.1216  0.8601
16606TIP3    H271310   0.735   5.373  12.608 -0.2890  0.3827 -0.2514
16607TIP3   OH271311   5.001   0.163  11.669  0.3684  0.1846 -0.2373
16607TIP3    H171312   4.980   0.103  11.598  1.5946  1.9057 -2.1567
16607TIP3    H271313   5.051   0.109  11.731  0.1300 -1.1234 -1.1409
16608TIP3   OH271314   2.912   2.369  11.527 -0.0946  0.0633  0.6568
16608TIP3    H171315   2.917   2.464  11.537 -3.5004  0.4734 -0.5185
16608TIP3    H271316   2.871   2.339  11.608  2.1692 -0.6927  1.6219
16609TIP3   OH271317   2.281   2.381   5.821  0.2964 -0.0991  0.1109
16609TIP3    H171318   2.213   2.315   5.838 -0.0233  0.1660 -0.1227
16609TIP3    H271319   2.264   2.411   5.732  0.5972  0.1188  0.1258
16610TIP3   OH271320   2.023   1.311  12.553  0.0735 -0.2775 -0.3094
16610TIP3    H171321   1.952   1.349  12.604  0.5695  0.9487 -0.4920
16610TIP3    H271322   2.103   1.338  12.599  0.4700 -0.4059 -0.9019
16611TIP3   OH271323   0.271   4.223  16.619 -0.3449  0.0321 -0.2531
16611TIP3    H171324   0.241   4.172  16.544 -0.6779  0.2497 -0.2733
16611TIP3    H271325   0.195   4.227  16.677 -0.0024 -0.3884  0.2397
16612TIP3   OH271326   3.164   0.499  15.853 -0.2462 -0.5426  0.0985
16612TIP3    H171327   3.078   0.476  15.817  0.3162 -1.3300 -0.7920
16612TIP3    H271328   3.166   0.594  15.852 -0.9402 -0.5257 -0.2951
16613TIP3   OH271329   3.022   0.281   1.584 -0.0549  0.1452  0.0539
16613TIP3    H171330   3.037   0.298   1.491  5.0363  0.2561  0.6034
16613TIP3    H271331   3.015   0.368   1.623 -3.2369  0.0964 -0.1848
16614TIP3   OH271332   0.529   5.552   1.103 -0.3288  0.0849  0.0733
16614TIP3    H171333   0.524   5.583   1.012  0.0808 -0.3880 -0.1162
16614TIP3    H271334   0.611   5.502   1.106 -0.7432 -0.5762  0.4936
16615TIP3   OH271335   2.040   2.287   5.111 -0.2659  0.1714  0.6914
16615TIP3    H171336   1.978   2.298   5.184 -1.0157 -1.3587  0.3317
16615TIP3    H271337   1.989   2.241   5.044  0.6515  0.8312 -0.4932
16616TIP3   OH271338   2.001   5.447   2.028  0.3642 -0.4965  0.1436
16616TIP3    H171339   1.998   5.352   2.040  0.1863 -0.3761  1.1629
16616TIP3    H271340   1.920   5.479   2.069  0.2772  0.0728 -0.4571
16617TIP3   OH271341   4.288   0.194  16.335 -0.0829 -0.5863  0.3408
16617TIP3    H171342   4.302   0.115  16.283  0.9221  0.3493 -0.8548
16617TIP3    H271343   4.368   0.203  16.387  0.1636  0.0811 -0.1406
16618TIP3   OH271344   2.402   4.131  10.909 -0.2505 -0.3908  0.0323
16618TIP3    H171345   2.432   4.052  10.953 -1.0017 -1.1596 -0.8140
16618TIP3    H271346   2.478   4.159  10.857 -0.2347 -1.0053 -0.2834
16619TIP3   OH271347   5.519   4.981   0.715  0.0700 -0.0292  0.1381
16619TIP3    H171348   5.607   4.948   0.731  0.6982  0.7019 -1.5891
16619TIP3    H271349   5.465   4.902   0.711  0.6578 -0.4969  1.0566
16620TIP3   OH271350   0.956   0.733   0.287  0.2487 -0.0409  0.5056
16620TIP3    H171351   1.038   0.719   0.239 -0.5867  1.5314 -1.5480
16620TIP3    H271352   0.953   0.661   0.350  2.8509 -0.5433  0.1865
16621TIP3   OH271353   1.321   4.121  11.711  0.6278  0.3963 -0.1651
16621TIP3    H171354   1.307   4.026  11.708  0.5582  0.4020 -0.0102
16621TIP3    H271355   1.291   4.152  11.626 -0.6272  0.4504  0.2864
16622TIP3   OH271356   1.464   0.696  11.264 -0.6374  0.0342 -0.0428
16622TIP3    H171357   1.544   0.658  11.227  0.5315 -0.5851  2.8312
16622TIP3    H271358   1.487   0.787  11.283 -0.6582 -0.0833  0.5826
16623TIP3   OH271359   4.798   6.662   2.849 -0.2559 -0.0150  0.1978
16623TIP3    H171360   4.828   6.748   2.820 -3.8732  2.4321  2.8583
16623TIP3    H271361   4.709   6.654   2.815 -0.8132 -1.6654  1.8413
16624TIP3   OH271362   1.638   5.908   3.857  0.8485 -0.5942 -0.6381
16624TIP3    H171363   1.600   5.860   3.930 -0.1105  0.5547 -0.3521
16624TIP3    H271364   1.677   5.840   3.801 -3.0168 -2.1293 -1.8148
16625TIP3   OH271365   4.194   6.278   4.077 -0.4621 -0.4710  0.3709
16625TIP3    H171366   4.161   6.188   4.071 -0.0288 -0.8464  2.6466
16625TIP3    H271367   4.200   6.294   4.171 -1.2776  2.2393  0.0233
16626TIP3   OH271368   5.068   3.754  15.147 -0.3887 -0.6164  0.2814
16626TIP3    H171369   4.983   3.712  15.134  0.1493 -1.7885  0.4310
16626TIP3    H271370   5.068   3.829  15.086 -2.3476  0.6933  1.8014
16627TIP3   OH271371   1.666   2.912   1.020  0.0602  0.2974  0.0094
16627TIP3    H171372   1.597   2.925   1.085 -0.5945 -0.3829 -0.5291
16627TIP3    H271373   1.625   2.937   0.936  0.2859 -0.6141 -0.3849
16628TIP3   OH271374   6.167   5.835  15.811 -0.0533 -0.5847 -0.0211
16628TIP3    H171375   6.203   5.751  15.837  0.0948 -0.2807  0.8146
16628TIP3    H271376   6.207   5.898  15.871 -0.6441 -0.0082 -0.2117
16629TIP3   OH271377   6.277   0.956   1.119  0.3428 -0.0219 -0.0943
16629TIP3    H171378   6.259   0.899   1.044 -0.3721  1.1874 -0.8784
16629TIP3    H271379   6.190   0.979   1.152  0.6416 -1.3168  1.7631
16630TIP3   OH271380   0.218   5.908   1.556 -0.3201  0.5691  0.0700
16630TIP3    H171381   0.132   5.947   1.574  0.4872  2.4561  0.0693
16630TIP3    H271382   0.254   5.962   1.486  1.1740  0.3086  0.6022
16631TIP3   OH271383   6.622   1.737  14.424 -0.8637  0.3480 -0.5235
16631TIP3    H171384   6.687   1.759  14.490 -1.1580 -1.4485  0.4425
16631TIP3    H271385   6.583   1.821  14.399 -1.0134  1.0586  1.8737
16632TIP3   OH271386   0.757   6.568   4.007 -0.2496  0.9282 -0.5527
16632TIP3    H171387   0.724   6.646   3.964 -0.6444  0.9070 -0.2983
16632TIP3    H271388   0.683   6.507   4.007 -0.4273  1.1233  0.6171
16633TIP3   OH271389   5.847   6.625  17.294  0.5224 -0.1581 -0.0221
16633TIP3    H171390   5.860   6.531  17.305 -0.5495 -0.1863  1.2027
16633TIP3    H271391   5.798   6.652  17.372  1.1802  1.4955 -0.1420
16634TIP3   OH271392   0.569   3.777   2.539 -0.0517  0.3629  0.2327
16634TIP3    H171393   0.538   3.798   2.451  2.6057  3.2639 -0.1722
16634TIP3    H271394   0.504   3.817   2.597 -1.3057 -0.7345 -0.3611
16635TIP3   OH271395   3.091   3.744   3.601 -0.0116 -0.3619  0.5093
16635TIP3    H171396   3.046   3.809   3.654  0.2355  0.3958 -0.1852
16635TIP3    H271397   3.179   3.780   3.589  0.0487 -0.6970 -0.0892
16636TIP3   OH271398   4.638   5.361   2.845  0.3408  0.2738  0.2289
16636TIP3    H171399   4.622   5.369   2.939 -0.2607 -0.1684  0.1706
16636TIP3    H271400   4.638   5.267   2.829 -2.3654  0.3602 -0.6647
16637TIP3   OH271401   0.824   6.105   3.946 -0.1531  0.0316  0.0225
16637TIP3    H171402   0.885   6.049   3.898 -0.7428 -0.8622  0.2976
16637TIP3    H271403   0.838   6.083   4.038 -0.8322 -0.1208  0.0897
16638TIP3   OH271404   5.892   1.561  11.223 -0.0617 -0.1480  0.0681
16638TIP3    H171405   5.840   1.641  11.226  1.6945  1.0792 -0.7658
16638TIP3    H271406   5.981   1.590  11.207  0.6774 -2.2693 -0.0397
16639TIP3   OH271407   1.059   0.789   6.678  0.2868 -0.1320 -0.9947
16639TIP3    H171408   1.032   0.779   6.769 -2.1335  1.6359 -1.4335
16639TIP3    H271409   1.097   0.704   6.655  0.9472 -0.6302  1.6157
16640TIP3   OH271410   2.848   1.414  17.091  0.2523 -0.2693 -0.2024
16640TIP3    H171411   2.814   1.502  17.107 -0.9811 -0.5855 -0.9170
16640TIP3    H271412   2.921   1.426  17.030 -0.3123  0.2127 -0.7945
16641TIP3   OH271413   1.170   0.695  15.769 -0.2463  0.0743 -0.3577
16641TIP3    H171414   1.206   0.624  15.715  0.9136  1.0780 -0.9455
16641TIP3    H271415   1.085   0.714  15.729 -0.7277 -1.1759  0.0057
16642TIP3   OH271416   4.161   3.971  13.244  0.1433 -0.1892 -0.3037
16642TIP3    H171417   4.195   3.972  13.154  0.7131 -2.5553 -0.1666
16642TIP3    H271418   4.233   3.937  13.297 -0.7668 -0.4656  0.7811
16643TIP3   OH271419   4.568   1.431  15.269  0.1510  0.1416  0.2968
16643TIP3    H171420   4.534   1.508  15.313 -0.1882  1.5285 -2.1718
16643TIP3    H271421   4.624   1.388  15.334  1.2229  3.0503  1.4489
16644TIP3   OH271422   4.782   1.978  11.518  0.0136 -0.4369  0.4516
16644TIP3    H171423   4.728   2.053  11.540  1.9380  1.3042 -0.4028
16644TIP3    H271424   4.740   1.904  11.561 -1.5038  1.2476  2.0301
16645TIP3   OH271425   5.152   2.897  11.891 -0.0036  0.1555 -0.1945
16645TIP3    H171426   5.205   2.890  11.970 -1.1774 -1.2329  0.5202
16645TIP3    H271427   5.210   2.937  11.827  0.8977  1.5678  1.4181
16646TIP3   OH271428   6.102   5.160   1.156  0.2908 -0.1181  0.4002
16646TIP3    H171429   6.064   5.129   1.238  2.3653 -0.1415  1.4043
16646TIP3    H271430   6.181   5.207   1.182  0.1113  1.3329 -1.4847
16647TIP3   OH271431   4.549   1.103   2.828  0.0715  0.1600 -0.6128
16647TIP3    H171432   4.486   1.034   2.848  1.2620 -1.6736 -2.7672
16647TIP3    H271433   4.500   1.167   2.777 -0.8823  0.6508  0.8581
16648TIP3   OH271434   4.355   1.969  12.854  0.4242 -1.1837  0.4967
16648TIP3    H171435   4.425   1.904  12.855  1.0607 -0.5423 -0.7828
16648TIP3    H271436   4.323   1.970  12.944  2.3529 -1.1720  1.2343
16649TIP3   OH271437   0.051   4.879   2.351  0.1760  0.0515 -0.2350
16649TIP3    H171438   0.107   4.814   2.309 -0.0652 -0.7040  0.5786
16649TIP3    H271439  -0.002   4.915   2.280 -0.4166 -1.3876 -0.5571
16650TIP3   OH271440   6.666   2.362  11.314  0.2999 -0.2433  0.6620
16650TIP3    H171441   6.674   2.432  11.379  3.7731  0.1668  0.0089
16650TIP3    H271442   6.693   2.402  11.232  1.7162 -2.1409  0.1367
16651TIP3   OH271443   1.398   3.533   0.281 -0.1688  0.2918 -0.5930
16651TIP3    H171444   1.411   3.569   0.369  0.9086  1.4762 -1.1973
16651TIP3    H271445   1.315   3.486   0.286 -0.4775  0.9386  0.8666
16652TIP3   OH271446   2.253   5.259   0.405 -0.3201  0.7100  0.0832
16652TIP3    H171447   2.338   5.242   0.364 -0.7595  0.2775 -0.6597
16652TIP3    H271448   2.220   5.337   0.361  0.0164  1.3124  0.8861
16653TIP3   OH271449   3.898   6.267  17.077 -0.5482  0.2320 -0.2563
16653TIP3    H171450   3.989   6.286  17.052  0.1195  1.3027  2.5691
16653TIP3    H271451   3.852   6.259  16.994  2.1678 -0.6893 -1.8226
16654TIP3   OH271452   0.698   3.573  11.563  0.9663 -0.2928  0.1796
16654TIP3    H171453   0.694   3.541  11.473 -1.6257 -1.1321  0.5024
16654TIP3    H271454   0.702   3.668  11.554  1.9818 -0.4053 -0.7997
16655TIP3   OH271455   3.179   0.413  16.370 -0.7403 -0.0947  0.0724
16655TIP3    H171456   3.228   0.495  16.369  2.3653 -1.7595 -2.4517
16655TIP3    H271457   3.118   0.420  16.297  0.7229 -0.5729 -1.2480
16656TIP3   OH271458   6.018   1.275  16.117 -0.2301 -0.4557  0.2037
16656TIP3    H171459   6.030   1.257  16.211 -1.2313 -1.4265  0.1572
16656TIP3    H271460   5.950   1.342  16.115  1.6878  1.6590  0.2483
16657TIP3   OH271461   1.039   3.390   4.131  0.3593  0.1018 -0.0023
16657TIP3    H171462   0.985   3.468   4.142  0.0493 -0.2939  1.7196
16657TIP3    H271463   1.033   3.368   4.038 -1.5004  0.7501 -0.0714
16658TIP3   OH271464   1.959   1.227   4.422 -0.0039 -1.1449 -0.1381
16658TIP3    H171465   1.930   1.235   4.332  0.1403  0.5767 -0.0645
16658TIP3    H271466   1.898   1.281   4.472  0.1838 -1.7175  0.7436
16659TIP3   OH271467   5.541   3.126   3.391  0.1628  0.5068  0.9671
16659TIP3    H171468   5.541   3.208   3.342  1.0405  0.2280  0.4640
16659TIP3    H271469   5.509   3.061   3.328  0.3909  0.3018  1.0609
16660TIP3   OH271470   5.649   4.671  16.943  0.3883 -0.1294  0.4511
16660TIP3    H171471   5.598   4.740  16.986  1.0886 -0.3855  1.7349
16660TIP3    H271472   5.607   4.660  16.858 -1.7276 -0.3197  1.4487
16661TIP3   OH271473   3.785   3.939   5.761 -0.0847  0.1579  0.6951
16661TIP3    H171474   3.840   3.965   5.686  1.0491 -2.0056  0.6934
16661TIP3    H271475   3.813   3.997   5.832  1.4887 -0.1848  0.4014
16662TIP3   OH271476   4.207   6.751  12.172 -0.5839  0.1110  0.0106
16662TIP3    H171477   4.193   6.714  12.085 -1.8274  1.9023 -0.6253
16662TIP3    H271478   4.275   6.817  12.159 -0.8042  0.4157  0.3947
16663TIP3   OH271479   2.848   1.046  15.912 -0.2019 -0.4361  0.5385
16663TIP3    H171480   2.803   1.128  15.890  0.3676 -0.2894 -0.0895
16663TIP3    H271481   2.788   1.002  15.973 -2.1151 -1.1116 -1.7023
16664TIP3   OH271482   0.947   6.732  12.230  0.6188  0.1921 -0.2383
16664TIP3    H171483   0.870   6.765  12.184 -0.1850  0.0705  0.9576
16664TIP3    H271484   0.993   6.810  12.259 -2.0760  0.5462  3.9058
16665TIP3   OH271485   5.383   5.207  13.436 -0.5701 -0.5746 -0.2696
16665TIP3    H171486   5.378   5.114  13.415 -1.0081 -0.6286  0.0615
16665TIP3    H271487   5.349   5.251  13.358  0.2012 -0.6579 -0.6663
16666TIP3   OH271488   1.780   4.947  15.863 -0.6530 -0.2257  0.5496
16666TIP3    H171489   1.809   5.010  15.797  2.2917 -1.7407  0.2226
16666TIP3    H271490   1.705   4.903  15.824 -1.3104  1.4282 -0.1551
16667TIP3   OH271491   6.585   0.678   1.461 -0.0231 -0.3852 -0.5383
16667TIP3    H171492   6.593   0.688   1.366  1.9434 -2.5537 -0.7031
16667TIP3    H271493   6.587   0.767   1.495  1.2028  0.3652 -2.4339
16668TIP3   OH271494   4.922   2.911  14.936  0.6889 -0.3649  0.5900
16668TIP3    H171495   4.881   2.833  14.901  1.1319  0.3790 -1.7910
16668TIP3    H271496   4.859   2.946  14.999  0.0810 -2.0678  0.9790
16669TIP3   OH271497   0.061   3.603   5.327 -0.0764  0.2314 -0.2212
16669TIP3    H171498   0.044   3.663   5.400  1.3085  0.1186  0.2271
16669TIP3    H271499   0.061   3.516   5.368 -2.1706 -0.1343 -0.8822
16670TIP3   OH271500   3.439   2.046  10.921 -0.5488  0.3555 -0.4868
16670TIP3    H171501   3.468   1.988  10.850 -0.3855  0.2547 -0.3385
16670TIP3    H271502   3.443   2.134  10.883 -0.4716  0.3009 -0.6060
16671TIP3   OH271503   1.534   0.090  12.625  0.1458 -0.3082  0.2797
16671TIP3    H171504   1.535   0.090  12.721  0.6218  1.0878  0.2893
16671TIP3    H271505   1.627   0.090  12.600  0.0235 -0.5623 -0.1871
16672TIP3   OH271506   4.642   0.090  12.632 -0.1860  0.4934  0.6156
16672TIP3    H171507   4.698   0.150  12.582  3.8532 -4.0345 -1.1585
16672TIP3    H271508   4.677   0.091  12.720  1.7377 -1.0020 -0.0632
16673TIP3   OH271509   1.109   3.168  12.041 -0.3046  0.7234  0.4234
16673TIP3    H171510   1.121   3.248  12.092  0.0968 -0.1355  1.7390
16673TIP3    H271511   1.015   3.159  12.032 -0.3617  1.1574  0.5683
16674TIP3   OH271512   4.637   3.978   1.928 -0.1738  0.0835 -0.0433
16674TIP3    H171513   4.597   3.895   1.900 -1.6199  0.5306  0.5650
16674TIP3    H271514   4.580   4.008   1.999  1.0714  0.9721  0.6110
16675TIP3   OH271515   4.527   3.994  15.456  0.7764  0.0187  0.0512
16675TIP3    H171516   4.484   3.947  15.528 -1.4554 -0.4335 -1.4583
16675TIP3    H271517   4.577   3.927  15.410 -1.4438 -0.7313 -1.3989
16676TIP3   OH271518   2.308   4.328  12.464 -0.0846  0.5391  0.1179
16676TIP3    H171519   2.269   4.411  12.490 -2.1867 -0.1853 -0.5249
16676TIP3    H271520   2.237   4.265  12.471  1.3697 -1.1582  0.2534
16677TIP3   OH271521   4.151   5.853  14.040  0.1380 -0.2685 -0.2420
16677TIP3    H171522   4.131   5.943  14.012 -0.5330  0.4624  2.3226
16677TIP3    H271523   4.083   5.800  13.999  0.6806  0.3066 -1.9952
16678TIP3   OH271524   4.439   1.844  11.208  0.1622  0.0800 -0.1931
16678TIP3    H171525   4.383   1.808  11.278  1.5317  0.6622  1.2609
16678TIP3    H271526   4.499   1.903  11.254  0.5183  1.2023 -2.0102
16679TIP3   OH271527   2.469   4.068  13.262  0.5482 -0.1691  0.5005
16679TIP3    H171528   2.545   4.088  13.206  0.7717 -2.3164 -0.0602
16679TIP3    H271529   2.430   4.153  13.281  1.0723  0.7475 -2.1134
16680TIP3   OH271530   2.109   3.445  15.368  0.6004 -0.0672  0.5524
16680TIP3    H171531   2.043   3.494  15.320  0.9084 -1.2414 -1.1375
16680TIP3    H271532   2.059   3.395  15.433 -0.2362 -1.1112 -0.8509
16681TIP3   OH271533   6.472   1.636   4.191  0.2775 -0.8126  0.3378
16681TIP3    H171534   6.521   1.639   4.274  0.5106  1.3115  0.1877
16681TIP3    H271535   6.532   1.593   4.130  0.0568 -2.5168  1.2595
16682TIP3   OH271536   3.202   3.527  14.593  0.1484  0.0811 -0.3892
16682TIP3    H171537   3.204   3.477  14.511 -1.1841  0.4020 -0.6389
16682TIP3    H271538   3.126   3.492  14.640  0.6225  0.2301  0.5053
16683TIP3   OH271539   6.732   3.204   1.760  0.4721  0.1238  0.0809
16683TIP3    H171540   6.641   3.175   1.757 -0.1065  1.8300  0.2499
16683TIP3    H271541   6.763   3.194   1.670 -0.3298  0.8478 -0.2933
16684TIP3   OH271542   4.521   5.214  14.431 -0.1383 -0.2017  0.4443
16684TIP3    H171543   4.505   5.303  14.400  2.1711 -0.2548 -1.2063
16684TIP3    H271544   4.580   5.224  14.505  0.5049 -0.3364 -0.0366
16685TIP3   OH271545   2.749   3.357   3.577 -0.6156  0.0713  0.0582
16685TIP3    H171546   2.753   3.299   3.653 -0.0744 -0.0509 -0.0606
16685TIP3    H271547   2.789   3.307   3.507 -0.3617  0.5014 -0.1043
16686TIP3   OH271548   0.353   1.760   3.781 -0.5221 -0.0865 -0.1197
16686TIP3    H171549   0.367   1.672   3.746  1.6613  0.2740 -0.3042
16686TIP3    H271550   0.431   1.777   3.835 -2.5062  0.3972  2.8532
16687TIP3   OH271551   5.321   2.324  15.347  0.3842 -0.0948 -0.3698
16687TIP3    H171552   5.279   2.281  15.272 -0.5953  0.8545 -0.4025
16687TIP3    H271553   5.414   2.328  15.324  0.2683 -0.8602 -1.0056
16688TIP3   OH271554   0.826   4.031   5.777  0.5554 -0.4359 -0.0484
16688TIP3    H171555   0.819   4.122   5.803 -0.0929 -0.1923 -0.9990
16688TIP3    H271556   0.850   4.034   5.684  1.6771 -1.2431  0.1954
16689TIP3   OH271557   4.970   3.030   0.086  0.1300 -0.2226 -0.0195
16689TIP3    H171558   5.050   3.063   0.044  1.2431  0.0603  2.2002
16689TIP3    H271559   4.980   2.935   0.087 -0.8768 -0.4121 -2.1481
16690TIP3   OH271560   1.183   6.008   0.390  0.0207 -0.2601  0.2784
16690TIP3    H171561   1.119   5.967   0.332  0.7632 -0.0674 -0.6894
16690TIP3    H271562   1.153   5.984   0.478 -0.2302 -1.8956 -0.2103
16691TIP3   OH271563   4.767   0.170  16.397 -0.4351 -0.0311 -0.0673
16691TIP3    H171564   4.746   0.192  16.487  1.9971 -2.6966  1.2865
16691TIP3    H271565   4.858   0.199  16.385 -0.8058  0.5594 -1.8128
16692TIP3   OH271566   4.706   3.352  16.843 -0.4602  0.0281  0.2481
16692TIP3    H171567   4.752   3.358  16.759  0.2747  1.0239  0.7007
16692TIP3    H271568   4.776   3.334  16.906 -0.9745 -0.4682  0.6843
16693TIP3   OH271569   0.764   3.379   1.750  0.0517  0.8039 -0.3924
16693TIP3    H171570   0.719   3.443   1.696  0.3305  1.5401  0.2345
16693TIP3    H271571   0.722   3.295   1.727  0.5755  0.9882 -2.1707
16694TIP3   OH271572   1.729   1.744   2.144 -0.0025  0.4402  0.5907
16694TIP3    H171573   1.818   1.711   2.137 -0.0046  0.1190  1.8503
16694TIP3    H271574   1.718   1.799   2.066  1.1264  0.1242  0.1839
16695TIP3   OH271575   5.668   1.054   1.593  0.2986 -0.2087 -0.2278
16695TIP3    H171576   5.674   0.973   1.544 -0.4634 -1.5034  1.6913
16695TIP3    H271577   5.600   1.038   1.659  1.5861  1.2205  1.5690
16696TIP3   OH271578   4.474   6.631  15.863 -0.3863  0.9673 -0.0320
16696TIP3    H171579   4.568   6.644  15.863 -0.2997  0.9077 -2.4708
16696TIP3    H271580   4.454   6.597  15.775 -2.3649 -1.6653  1.2701
16697TIP3   OH271581   2.919   6.342   3.842 -0.0392  0.7877 -0.1434
16697TIP3    H171582   2.857   6.416   3.840  0.2261  1.0055 -0.6132
16697TIP3    H271583   2.989   6.371   3.901 -0.2516  0.6475  0.1811
16698TIP3   OH271584   4.166   1.044  12.565  0.5261 -0.1066  0.2155
16698TIP3    H171585   4.112   1.007  12.495 -0.0305  2.0716 -0.6029
16698TIP3    H271586   4.255   1.044  12.529  0.3479  0.3931 -0.2412
16699TIP3   OH271587   1.642   5.823   0.732 -0.1176  0.1130 -0.0374
16699TIP3    H171588   1.682   5.864   0.809  1.1372 -1.2801  0.0965
16699TIP3    H271589   1.668   5.878   0.658  0.6395  0.1684  0.2610
16700TIP3   OH271590   5.137   1.370  14.230  0.3225  0.6293 -0.0643
16700TIP3    H171591   5.075   1.356  14.302  0.8224  0.8864  0.4334
16700TIP3    H271592   5.092   1.338  14.152 -1.1455  2.3689 -0.0110
16701TIP3   OH271593   4.965   6.135   6.256  0.5006  0.2947  0.4538
16701TIP3    H171594   4.920   6.189   6.321 -0.1088 -2.1627  2.2254
16701TIP3    H271595   5.055   6.127   6.289  0.3611 -0.4420  0.6731
16702TIP3   OH271596   6.250   0.942  13.400  0.5988  0.4186  0.0427
16702TIP3    H171597   6.304   0.864  13.410  1.8514  1.0041 -1.6651
16702TIP3    H271598   6.168   0.910  13.363  0.7012 -0.1872  0.3209
16703TIP3   OH271599   2.607   2.555  14.291 -0.3661 -0.0264  0.1832
16703TIP3    H171600   2.613   2.463  14.265 -2.1357 -0.1443  0.1252
16703TIP3    H271601   2.555   2.597  14.222  0.1300  0.9622  0.3825
16704TIP3   OH271602   2.694   3.707   6.855 -0.0546 -0.1345  0.2131
16704TIP3    H171603   2.784   3.677   6.846  0.4916  1.4984 -0.1145
16704TIP3    H271604   2.655   3.691   6.769 -0.0318 -0.6594  0.2955
16705TIP3   OH271605   3.867   3.759   3.640  0.2416 -0.1873 -0.7124
16705TIP3    H171606   3.956   3.730   3.659  0.4237  1.0735  0.5138
16705TIP3    H271607   3.878   3.841   3.592 -0.2731 -0.3249 -1.0807
16706TIP3   OH271608   4.758   4.332  15.583  0.2016  0.2308  0.4888
16706TIP3    H171609   4.807   4.376  15.513 -0.3920 -0.0219 -0.0984
16706TIP3    H271610   4.781   4.381  15.662  0.5935  0.7601  0.0587
16707TIP3   OH271611   0.000   3.438  16.432 -0.1470  0.0820  0.4446
16707TIP3    H171612  -0.004   3.533  16.443 -0.0199  0.1087  0.2702
16707TIP3    H271613  -0.048   3.402  16.507 -1.0700  0.3059 -0.0254
16708TIP3   OH271614   5.603   1.963   5.656 -0.3057 -0.5561 -0.1397
16708TIP3    H171615   5.687   1.966   5.610  0.0520  1.1942  0.5489
16708TIP3    H271616   5.627   1.970   5.749 -1.0417 -3.3238  0.3421
16709TIP3   OH271617   1.236   6.047  15.025 -0.1533 -0.0791 -0.2720
16709TIP3    H171618   1.317   6.094  15.044  0.9373 -0.7015 -2.8656
16709TIP3    H271619   1.166   6.111  15.038  0.9111  0.9738  0.3714
16710TIP3   OH271620   5.989   6.282   5.487 -0.0504 -0.2871 -0.6291
16710TIP3    H171621   5.985   6.351   5.553 -1.6307  0.2843 -1.2778
16710TIP3    H271622   5.960   6.203   5.532  2.2963 -0.7192  0.2676
16711TIP3   OH271623   6.069   3.057   4.168  0.0979 -0.4828  0.3590
16711TIP3    H171624   6.101   2.992   4.106  2.8014 -1.0243  2.1351
16711TIP3    H271625   6.035   3.004   4.241 -0.2918  0.1266  0.6242
16712TIP3   OH271626   5.414   3.160  16.296 -0.3009 -0.6383 -0.3445
16712TIP3    H171627   5.432   3.068  16.315  0.7556 -0.4664 -0.4729
16712TIP3    H271628   5.414   3.204  16.381  0.1694 -0.5898 -0.3699
16713TIP3   OH271629   0.124   0.626   6.053 -0.4422  0.8507 -0.2161
16713TIP3    H171630   0.205   0.576   6.064 -1.3986 -0.7996 -0.2927
16713TIP3    H271631   0.102   0.656   6.142 -0.7356 -0.3605  0.1439
16714TIP3   OH271632   3.354   0.178  16.221 -0.3795  0.4617 -0.0596
16714TIP3    H171633   3.403   0.100  16.194 -1.5642  0.5688 -2.8191
16714TIP3    H271634   3.264   0.161  16.194 -1.7958  0.7863  3.7895
16715TIP3   OH271635   2.845   2.800  10.505 -0.3528 -0.0169  0.2150
16715TIP3    H171636   2.914   2.846  10.553 -0.5168  0.4486  0.0145
16715TIP3    H271637   2.842   2.713  10.544 -0.1918  0.2180  0.7538
16716TIP3   OH271638   5.771   3.821  15.364 -0.0507 -0.6067  0.4498
16716TIP3    H171639   5.818   3.896  15.327  0.4299 -1.6987 -1.3004
16716TIP3    H271640   5.683   3.829  15.327 -0.0374 -0.8123  0.3733
16717TIP3   OH271641   2.518   2.262  15.977 -0.2257 -0.0184 -0.2443
16717TIP3    H171642   2.546   2.334  15.921 -0.9333 -0.4584 -1.1947
16717TIP3    H271643   2.502   2.189  15.916  1.7556 -1.4116  0.7970
16718TIP3   OH271644   6.190   4.237  14.239 -0.3469 -0.0074  0.0529
16718TIP3    H171645   6.098   4.211  14.230  0.0807 -2.3248  1.6089
16718TIP3    H271646   6.192   4.328  14.209 -3.1962  0.2105  0.2574
16719TIP3   OH271647   3.149   1.926   0.547 -0.3432  0.6257 -0.3180
16719TIP3    H171648   3.173   2.000   0.602  1.4952 -0.4908  0.4603
16719TIP3    H271649   3.136   1.853   0.607  2.1529 -0.7400 -1.2887
16720TIP3   OH271650   4.044   0.784  15.145  0.3301 -0.6520 -0.0871
16720TIP3    H171651   4.009   0.710  15.097  1.7953 -1.3220 -0.1754
16720TIP3    H271652   4.137   0.764  15.156  1.0616  1.7658 -1.2458
16721TIP3   OH271653   4.768   4.325  15.888 -0.1521  0.1596  0.1260
16721TIP3    H171654   4.781   4.238  15.925 -0.0080  0.4048  0.6686
16721TIP3    H271655   4.674   4.342  15.898 -0.7154 -0.9903 -2.3971
16722TIP3   OH271656   2.207   4.764   5.080  0.7553  0.0130  0.4712
16722TIP3    H171657   2.138   4.825   5.056  1.6036  2.0951  2.7844
16722TIP3    H271658   2.201   4.757   5.175  3.7618  0.4209  0.7967
16723TIP3   OH271659   1.709   2.386   1.260 -0.2644 -0.4669  0.4390
16723TIP3    H171660   1.729   2.474   1.230  1.0695 -0.9866 -0.2913
16723TIP3    H271661   1.651   2.350   1.194  0.6750 -0.7520 -0.2529
16724TIP3   OH271662   1.946   5.642  12.546 -0.3012 -1.0328 -0.7003
16724TIP3    H171663   1.983   5.611  12.629  0.6479  3.0761  0.6523
16724TIP3    H271664   2.022   5.654  12.489 -0.2219  1.2724 -0.1880
16725TIP3   OH271665   3.064   5.275   2.178  0.1575 -0.1029 -0.1845
16725TIP3    H171666   3.011   5.355   2.181 -1.0862 -0.7966 -1.7789
16725TIP3    H271667   3.061   5.248   2.086  2.2070 -0.9303 -0.0672
16726TIP3   OH271668   6.194   5.847   6.217  0.5502  0.0743  0.2243
16726TIP3    H171669   6.210   5.820   6.307  0.9693  1.1316  0.4853
16726TIP3    H271670   6.261   5.913   6.200  0.5326 -0.1755 -0.8964
16727TIP3   OH271671   4.923   4.848   4.459 -0.1635 -0.6979 -0.2710
16727TIP3    H171672   4.901   4.941   4.457  0.3306 -0.5181  1.2869
16727TIP3    H271673   5.012   4.845   4.495 -0.6034 -1.8206  0.7963
16728TIP3   OH271674   4.333   4.013   1.795  0.9596  0.2817 -0.4394
16728TIP3    H171675   4.277   3.977   1.863 -0.8555  1.1871 -1.3592
16728TIP3    H271676   4.382   3.938   1.760 -1.0969 -0.9372 -0.8579
16729TIP3   OH271677   4.085   2.429   5.180 -0.3072 -0.2531  0.1710
16729TIP3    H171678   4.081   2.456   5.272  2.8117 -1.1298  0.6888
16729TIP3    H271679   3.995   2.436   5.149 -1.2139  1.5419  2.8484
16730TIP3   OH271680   0.566   0.763  17.241 -0.0254  0.3108  0.2519
16730TIP3    H171681   0.649   0.776  17.286 -0.0794  2.7617 -0.2080
16730TIP3    H271682   0.574   0.814  17.160 -1.7441  0.0705 -0.1079
16731TIP3   OH271683   3.583   0.401  11.391 -0.4242 -0.1246 -0.1577
16731TIP3    H171684   3.531   0.462  11.338 -2.6690 -1.0357  0.8386
16731TIP3    H271685   3.620   0.339  11.329 -0.8747  0.3238 -0.8843
16732TIP3   OH271686   2.515   4.544  17.172  0.3559 -0.1593  0.0183
16732TIP3    H171687   2.580   4.515  17.236 -0.1718  0.8003  1.0098
16732TIP3    H271688   2.477   4.622  17.210 -3.1429 -1.9959  0.7006
16733TIP3   OH271689   0.184   0.154   2.514  0.2646 -0.3440 -0.0642
16733TIP3    H171690   0.112   0.133   2.454  0.2653  0.0052 -0.1911
16733TIP3    H271691   0.262   0.118   2.471  0.4839  1.1973 -1.0126
16734TIP3   OH271692   1.176   3.036   2.110  0.0589 -0.3916  0.4376
16734TIP3    H171693   1.161   2.955   2.159 -2.0100 -1.7197 -2.1281
16734TIP3    H271694   1.218   3.008   2.029  0.2849  1.2649 -0.0611
16735TIP3   OH271695   3.812   0.031   2.191  0.0815 -0.2360 -0.3168
16735TIP3    H171696   3.882   0.035   2.126  0.6989  0.0999  0.3544
16735TIP3    H271697   3.796  -0.063   2.203  0.9794 -0.3531  0.1032
16736TIP3   OH271698   2.123   4.973   1.666  0.0474 -0.0654  0.4187
16736TIP3    H171699   2.175   5.051   1.646  0.1055  0.0495  1.0089
16736TIP3    H271700   2.163   4.937   1.745  1.3174 -1.8541 -0.9405
16737TIP3   OH271701   4.332   5.441   4.279  0.0993  0.8917 -0.1782
16737TIP3    H171702   4.289   5.527   4.280  1.8283  1.8653 -1.9632
16737TIP3    H271703   4.260   5.378   4.273 -1.1741  2.4261 -2.9592
16738TIP3   OH271704   4.387   6.133  15.162  0.0521 -0.5516  0.6156
16738TIP3    H171705   4.451   6.077  15.206 -0.4302 -0.4667  1.4569
16738TIP3    H271706   4.407   6.124  15.069  0.9985 -0.8680  0.8362
16739TIP3   OH271707   1.957   0.731  12.931  0.0586  0.4305 -0.0544
16739TIP3    H171708   1.930   0.680  13.007  0.5809 -2.0358 -1.4047
16739TIP3    H271709   2.048   0.707  12.916  1.4568  4.2847  1.0527
16740TIP3   OH271710   5.841   2.272   5.412 -0.3046 -0.1330 -0.1463
16740TIP3    H171711   5.925   2.233   5.438  0.1587  0.9692  0.0281
16740TIP3    H271712   5.808   2.312   5.492 -0.2629  0.7553 -0.5646
16741TIP3   OH271713   4.083   4.916   5.752  0.5271 -0.2155  0.4132
16741TIP3    H171714   4.067   4.988   5.813  0.0837 -0.1147  0.1823
16741TIP3    H271715   4.122   4.958   5.675  1.2485 -0.3649  0.6850
16742TIP3   OH271716   4.995   0.425  14.729 -0.0415 -0.6198  0.5249
16742TIP3    H171717   4.948   0.478  14.664  0.4850 -1.8773 -0.9536
16742TIP3    H271718   5.083   0.418  14.694  0.1674 -1.5993  1.2085
16743TIP3   OH271719   1.868   2.388  14.487 -0.0192 -0.3795  0.4617
16743TIP3    H171720   1.897   2.473  14.454 -1.1801  0.8466  2.3889
16743TIP3    H271721   1.873   2.396  14.582  0.0722 -2.5863  0.6977
16744TIP3   OH271722   3.233   5.071  15.851  0.9528 -0.1398  0.6846
16744TIP3    H171723   3.179   5.139  15.810  2.6682  1.5920  1.1580
16744TIP3    H271724   3.173   4.998  15.864 -1.4923  1.8998  1.8244
16745TIP3   OH271725   4.573   6.540  13.432  0.2615 -0.0824  0.7174
16745TIP3    H171726   4.550   6.463  13.381 -0.0449  0.3326  0.2254
16745TIP3    H271727   4.641   6.584  13.380  0.4124 -0.0016  0.9792
16746TIP3   OH271728   2.207   3.943  16.751 -0.3662  0.1262  0.3077
16746TIP3    H171729   2.273   3.935  16.820 -1.4115  2.0522  1.6196
16746TIP3    H271730   2.237   3.883  16.683  0.5251 -2.1482  2.5569
16747TIP3   OH271731   1.082   5.501   0.576 -0.4309 -0.1710 -0.0858
16747TIP3    H171732   1.095   5.547   0.659  0.2521 -0.1377 -0.2077
16747TIP3    H271733   1.132   5.552   0.512 -0.2579 -0.6751 -0.3588
16748TIP3   OH271734   6.667   5.007   0.413 -0.5299 -0.1791 -0.1285
16748TIP3    H171735   6.673   5.064   0.490 -1.9690 -0.6643  0.3939
16748TIP3    H271736   6.704   4.923   0.442 -1.7637 -0.5951  0.3192
16749TIP3   OH271737   6.555   2.385  13.758 -0.2526  0.5711 -0.2335
16749TIP3    H171738   6.547   2.401  13.851 -0.2395 -0.7159  0.0155
16749TIP3    H271739   6.465   2.386  13.725 -0.5054 -1.2917  0.2529
16750TIP3   OH271740   0.258   2.473  13.981  0.1999 -0.0264  0.1987
16750TIP3    H171741   0.282   2.381  13.968 -0.7491 -0.5669  1.9716
16750TIP3    H271742   0.342   2.518  13.988  0.6791 -0.8061 -0.3276
16751TIP3   OH271743   1.453   2.973   2.311  0.0923 -0.0530 -0.4555
16751TIP3    H171744   1.446   2.960   2.217  2.9785 -0.9097 -0.6333
16751TIP3    H271745   1.525   2.916   2.338 -0.9491 -0.1712  2.3628
16752TIP3   OH271746   1.944   1.820  15.389 -0.6377 -0.2582  0.1211
16752TIP3    H171747   1.893   1.794  15.466  0.7553  0.2987  1.2676
16752TIP3    H271748   2.015   1.873  15.423 -0.6756  1.0641 -1.7000
16753TIP3   OH271749   3.550   3.431   2.977  0.3291 -0.3299  0.4199
16753TIP3    H171750   3.593   3.482   3.046 -0.7381 -0.7541  1.4343
16753TIP3    H271751   3.534   3.346   3.017 -0.6684 -0.4582 -0.2228
16754TIP3   OH271752   3.853   4.912  16.843  0.5381 -0.5419 -0.0362
16754TIP3    H171753   3.819   4.884  16.928  0.3434 -2.5919 -0.7187
16754TIP3    H271754   3.795   4.871  16.779  0.5460  1.1417 -1.1846
16755TIP3   OH271755   5.862   6.811  16.413  0.2137  0.4393 -0.0623
16755TIP3    H171756   5.828   6.881  16.469  2.4282  1.6054 -0.0574
16755TIP3    H271757   5.834   6.731  16.456 -0.4572  1.3213  1.2179
16756TIP3   OH271758   6.333   6.609   0.064 -0.1702 -0.1637  0.3086
16756TIP3    H171759   6.340   6.693   0.020 -3.1059  1.4580  2.6427
16756TIP3    H271760   6.378   6.621   0.148 -2.1473 -0.2220  1.4409
16757TIP3   OH271761   0.705   3.890   2.041  0.4191  0.0761  0.3133
16757TIP3    H171762   0.657   3.948   1.982 -0.3503  1.0950  1.8753
16757TIP3    H271763   0.781   3.942   2.068  1.0522 -0.5820 -0.1687
16758TIP3   OH271764   4.634   0.910  11.531  0.3796 -0.2375  0.4125
16758TIP3    H171765   4.542   0.935  11.529  0.5679  0.7761  2.2656
16758TIP3    H271766   4.635   0.818  11.504 -0.9019  0.3309 -1.7834
16759TIP3   OH271767   2.348   5.783  14.573 -0.1143 -0.4671  0.1603
16759TIP3    H171768   2.396   5.762  14.653 -1.8545 -3.5430  0.5454
16759TIP3    H271769   2.388   5.728  14.506  0.2056  0.7978 -0.7054
16760TIP3   OH271770   3.999   2.473   4.560 -0.1419 -0.0383  0.6397
16760TIP3    H171771   4.054   2.435   4.491  2.3198  0.3952  2.2005
16760TIP3    H271772   4.057   2.535   4.605 -2.9568  3.0705  0.3663
16761TIP3   OH271773   5.327   0.569   4.880 -0.0857  0.1074 -0.3411
16761TIP3    H171774   5.383   0.550   4.804 -0.6104  0.9507 -0.9576
16761TIP3    H271775   5.351   0.658   4.905 -2.9732  1.6252 -2.3384
16762TIP3   OH271776   0.862   2.596   2.026 -0.0707  0.4300  0.2719
16762TIP3    H171777   0.953   2.571   2.007  0.1689  1.3481  0.1714
16762TIP3    H271778   0.844   2.669   1.967 -0.2859  1.4045  1.4825
16763TIP3   OH271779   0.092   3.951   1.752  0.0285  0.0471 -0.5770
16763TIP3    H171780   0.118   4.023   1.695  1.0774  0.4724  0.4048
16763TIP3    H271781   0.003   3.930   1.725  0.4119  0.3936 -2.1956
16764TIP3   OH271782   5.144   4.786  11.751 -1.0315 -0.1968  0.0747
16764TIP3    H171783   5.166   4.868  11.796  1.5867 -0.2941 -0.8839
16764TIP3    H271784   5.136   4.722  11.822 -0.6419  0.3846  0.6607
16765TIP3   OH271785   2.664   0.569  13.974 -0.2892  0.1006  0.2898
16765TIP3    H171786   2.759   0.584  13.973 -0.4645  1.3460 -1.7551
16765TIP3    H271787   2.627   0.653  14.000 -0.9165  0.5936 -1.9942
16766TIP3   OH271788   4.465   1.149   0.366  0.0854 -0.0671  0.0505
16766TIP3    H171789   4.514   1.175   0.444 -0.4470 -0.2801  0.4637
16766TIP3    H271790   4.391   1.210   0.362 -0.9731 -1.2432  0.8262
16767TIP3   OH271791   4.154   4.112  11.504  0.4129 -0.0718 -0.0605
16767TIP3    H171792   4.172   4.088  11.595  0.6817  2.2401  0.5600
16767TIP3    H271793   4.064   4.145  11.506 -0.9037 -3.1728 -1.3928
16768TIP3   OH271794   4.089   0.604  11.479 -0.2558 -0.1519  0.1127
16768TIP3    H171795   4.070   0.602  11.385  0.2704  0.2977 -0.0038
16768TIP3    H271796   4.179   0.637  11.485 -0.2517 -0.2673  0.7711
16769TIP3   OH271797   1.707   1.519  10.468 -0.4857 -0.0593  0.2966
16769TIP3    H171798   1.724   1.484  10.381  0.9683 -0.1053  0.5802
16769TIP3    H271799   1.627   1.473  10.497 -1.3018  0.3527 -1.1917
16770TIP3   OH271800   1.202   6.256   1.241  0.0363  0.1215 -0.3177
16770TIP3    H171801   1.128   6.267   1.301  2.7114  1.8805  3.0415
16770TIP3    H271802   1.214   6.161   1.236 -3.6731 -0.4204 -2.9336
16771TIP3   OH271803   0.952   3.591   3.512  0.2122 -0.5294  0.0764
16771TIP3    H171804   0.958   3.683   3.489 -1.0866 -0.5603 -0.5278
16771TIP3    H271805   0.866   3.582   3.554 -0.3778 -1.6907 -1.2439
16772TIP3   OH271806   1.263   2.627   3.008  0.5304  0.4182 -0.0263
16772TIP3    H171807   1.279   2.722   3.003 -0.7489  0.7343  1.1070
16772TIP3    H271808   1.192   2.619   3.072  0.2783 -1.2767 -0.4834
16773TIP3   OH271809   5.463   0.982  10.337  0.0569 -0.1298 -0.4516
16773TIP3    H171810   5.433   0.973  10.246 -1.3011 -3.1800  0.1564
16773TIP3    H271811   5.391   0.947  10.389  2.2939 -2.2213  1.5097
16774TIP3   OH271812   3.717   4.986  11.237 -1.1258  0.0255 -0.1296
16774TIP3    H171813   3.644   4.993  11.175 -2.0006 -0.8645  0.7685
16774TIP3    H271814   3.682   4.935  11.310  0.5490 -0.8544  0.1081
16775TIP3   OH271815   2.126   6.319   2.169 -0.1835 -0.8255 -0.1894
16775TIP3    H171816   2.207   6.321   2.118 -0.6608  0.7498 -0.9687
16775TIP3    H271817   2.152   6.351   2.256  0.3676 -2.1739  0.1606
16776TIP3   OH271818   4.361   5.323  16.085  0.0138 -0.0057 -0.1140
16776TIP3    H171819   4.289   5.268  16.052  0.5055 -0.3819 -0.5717
16776TIP3    H271820   4.439   5.289  16.042  0.0644  2.5196 -2.2237
16777TIP3   OH271821   3.548   2.150  17.003 -0.5603 -0.3638 -0.0783
16777TIP3    H171822   3.553   2.148  17.099 -0.3778 -2.0407 -0.0886
16777TIP3    H271823   3.573   2.239  16.979 -0.8232  0.1453  1.4430
16778TIP3   OH271824   0.122   4.167   6.255 -0.2456  0.2721  0.2853
16778TIP3    H171825   0.211   4.143   6.282 -0.1322 -0.2148 -0.4798
16778TIP3    H271826   0.066   4.099   6.291 -0.1373 -0.1733 -0.3603
16779TIP3   OH271827   1.369   3.567   4.067 -0.1223  0.2434  0.0833
16779TIP3    H171828   1.311   3.517   4.124  0.2621 -1.4905 -0.9626
16779TIP3    H271829   1.453   3.521   4.073  0.6365  1.5816  0.1098
16780TIP3   OH271830   1.104   2.701  11.472  0.3375  0.0737  0.0121
16780TIP3    H171831   1.032   2.645  11.500 -0.4218  0.9982 -0.0756
16780TIP3    H271832   1.164   2.702  11.547 -0.2815  0.2086  0.5130
16781TIP3   OH271833   3.864   0.157   3.408  0.3479  0.0210  0.2725
16781TIP3    H171834   3.906   0.207   3.339 -1.4163 -0.1988 -1.0084
16781TIP3    H271835   3.866   0.066   3.377 -3.2192  0.2582 -1.1045
16782TIP3   OH271836   0.842   1.432   5.049 -0.1352  0.5536 -0.4673
16782TIP3    H171837   0.921   1.485   5.041  0.2729 -0.1998 -1.5034
16782TIP3    H271838   0.813   1.417   4.959 -2.0492  1.6636 -0.0915
16783TIP3   OH271839   1.305   0.220  11.589  0.1085 -0.1936 -0.2223
16783TIP3    H171840   1.233   0.186  11.642  1.4282 -1.1111  1.0836
16783TIP3    H271841   1.324   0.151  11.526 -1.3228  0.8129 -1.8371
16784TIP3   OH271842   5.028   4.243  13.326  0.5390  0.7010 -0.6541
16784TIP3    H171843   5.063   4.331  13.314  1.3544  0.5064  0.2288
16784TIP3    H271844   5.014   4.211  13.237  2.2770  0.9176 -1.0353
16785TIP3   OH271845   0.196   0.884  17.257 -0.5636 -0.0438 -0.5016
16785TIP3    H171846   0.120   0.887  17.316 -0.0300  1.5338  0.1534
16785TIP3    H271847   0.172   0.943  17.185 -0.1089  0.1735 -0.4744
16786TIP3   OH271848   5.115   4.808   3.828 -0.7616  0.8492 -0.1234
16786TIP3    H171849   5.113   4.753   3.907  0.1335 -1.1019 -1.3821
16786TIP3    H271850   5.208   4.819   3.809 -0.9610  1.6324 -0.7221
16787TIP3   OH271851   1.823   6.273   6.067  0.0389  0.4699 -0.2325
16787TIP3    H171852   1.755   6.228   6.118 -1.7021  1.4946 -1.5633
16787TIP3    H271853   1.868   6.328   6.131  1.9711 -2.6749  1.3765
16788TIP3   OH271854   1.668   4.779   4.777 -0.1313  0.0972 -0.1895
16788TIP3    H171855   1.611   4.792   4.853 -1.8388 -4.4169 -0.3478
16788TIP3    H271856   1.638   4.844   4.713 -0.9858  1.7490  1.7708
16789TIP3   OH271857   0.033   5.203  14.850  0.8449  0.9826 -0.7279
16789TIP3    H171858  -0.056   5.188  14.817  1.1317 -0.1365 -1.0246
16789TIP3    H271859   0.089   5.200  14.772  1.2793  0.4240 -0.4034
16790TIP3   OH271860   4.232   4.502   3.214 -0.1663 -0.0322  0.7403
16790TIP3    H171861   4.178   4.580   3.228 -0.7500 -0.4211  0.7106
16790TIP3    H271862   4.229   4.456   3.299  0.4058  0.1153  0.8446
16791TIP3   OH271863   3.689   5.095   4.547  0.3526  0.1172  0.1800
16791TIP3    H171864   3.725   5.023   4.598 -0.7323 -0.7681 -0.2698
16791TIP3    H271865   3.758   5.162   4.548  2.4246 -1.8251 -1.3801
16792TIP3   OH271866   6.489   5.042   2.019  0.3419  0.9467 -0.5445
16792TIP3    H171867   6.474   4.949   1.999 -1.1136  1.3517 -1.4911
16792TIP3    H271868   6.439   5.058   2.098  1.4560  0.7043  0.2362
16793TIP3   OH271869   2.041   1.808   0.007 -0.2312  0.0821 -0.1828
16793TIP3    H171870   2.029   1.815  -0.088  2.2843 -0.7619 -0.6433
16793TIP3    H271871   2.096   1.730   0.019 -0.0041  0.4968  1.9167
16794TIP3   OH271872   6.251   5.787  12.637 -0.0721  0.6104 -0.6290
16794TIP3    H171873   6.272   5.736  12.559 -1.3397 -0.3945 -0.3513
16794TIP3    H271874   6.314   5.758  12.703 -0.3248 -0.0909 -0.6866
16795TIP3   OH271875   2.716   4.128   0.930  0.0262  0.5142  0.1454
16795TIP3    H171876   2.804   4.138   0.967  0.7108 -1.5687 -0.7422
16795TIP3    H271877   2.700   4.033   0.933 -2.8495  0.9454  1.7071
16796TIP3   OH271878   5.925   2.082  10.914  0.2791 -0.2353  0.2470
16796TIP3    H171879   5.940   2.069  10.820  1.7757  0.1810  0.3962
16796TIP3    H271880   5.876   2.164  10.919  0.3120 -0.1859 -0.1754
16797TIP3   OH271881   2.560   6.382   3.818  0.0026 -0.1441 -0.4678
16797TIP3    H171882   2.607   6.313   3.864  0.1897  0.5357  0.4028
16797TIP3    H271883   2.597   6.382   3.730  1.5635  0.2762  0.1447
16798TIP3   OH271884   0.812   2.098  12.948 -0.1876 -0.5046  0.7613
16798TIP3    H171885   0.901   2.063  12.949 -0.3440 -1.0784 -1.5266
16798TIP3    H271886   0.758   2.025  12.978 -0.0286 -0.5613  0.9173
16799TIP3   OH271887   5.073   2.451   2.713 -0.1241 -0.3258 -0.0454
16799TIP3    H171888   5.122   2.369   2.720 -1.3752 -1.0812  0.1945
16799TIP3    H271889   4.985   2.428   2.742 -0.5675  1.0459 -0.2653
16800TIP3   OH271890   1.646   2.675   4.535  0.5885 -0.1145 -0.2801
16800TIP3    H171891   1.647   2.641   4.624 -2.2753  1.3892  0.4428
16800TIP3    H271892   1.636   2.597   4.480 -1.0451 -0.8401  0.9748
16801TIP3   OH271893   0.953   4.491   0.422  0.5669 -0.5331  0.7909
16801TIP3    H171894   0.889   4.485   0.351 -0.2441  0.3284  1.4302
16801TIP3    H271895   1.022   4.430   0.396 -0.9255 -2.2130  0.5284
16802TIP3   OH271896   4.941   4.087   5.521  0.7741 -0.1535  0.6164
16802TIP3    H171897   5.002   4.101   5.593  0.1051  0.1649  1.1403
16802TIP3    H271898   4.858   4.124   5.552 -0.0010 -1.6120  0.4001
16803TIP3   OH271899   2.052   1.919  12.469  0.0416 -0.0240 -0.0059
16803TIP3    H171900   2.140   1.956  12.465  0.0056 -0.0050 -2.8385
16803TIP3    H271901   2.056   1.843  12.410 -1.3231 -1.2666  1.4296
16804TIP3   OH271902   4.968   2.608  10.591  0.1104 -0.2840 -0.4825
16804TIP3    H171903   4.953   2.538  10.654  0.8193 -0.6975 -0.7682
16804TIP3    H271904   4.927   2.577  10.511 -1.4577  0.5660 -0.0567
16805TIP3   OH271905   4.700   3.241  12.424 -0.2328 -0.1232 -0.2731
16805TIP3    H171906   4.763   3.177  12.391 -0.3023  0.2069 -1.0703
16805TIP3    H271907   4.656   3.274  12.346 -0.9493  0.1213  0.2193
16806TIP3   OH271908   1.790   4.787   3.459 -0.1418  0.0046 -0.4441
16806TIP3    H171909   1.749   4.775   3.545 -2.2442  0.3743 -1.3259
16806TIP3    H271910   1.833   4.703   3.441 -1.3521 -0.7716  0.1434
16807TIP3   OH271911   0.829   4.554   2.990  0.6109 -0.0093  0.0935
16807TIP3    H171912   0.822   4.612   3.066  0.3045 -1.0428  0.8816
16807TIP3    H271913   0.743   4.511   2.985  0.9060 -0.5591 -0.3286
16808TIP3   OH271914   0.566   6.585  11.397  0.1708  0.2969  0.6617
16808TIP3    H171915   0.635   6.647  11.419  1.4269 -0.7107 -0.2388
16808TIP3    H271916   0.547   6.601  11.305  1.1337 -1.1520  0.1624
16809TIP3   OH271917   4.611   1.429  12.498 -0.8084 -0.5145  0.0126
16809TIP3    H171918   4.690   1.376  12.503  1.5148  2.2021 -3.2140
16809TIP3    H271919   4.615   1.485  12.576  1.0790  0.2370 -0.5688
16810TIP3   OH271920   1.737   5.506   2.149 -0.0373  0.3806 -0.6386
16810TIP3    H171921   1.697   5.579   2.101 -1.8592  0.5987  1.0567
16810TIP3    H271922   1.760   5.544   2.234 -0.5060 -0.8665  0.0637
16811TIP3   OH271923   4.912   1.888   0.189  0.6770 -0.1225  0.5682
16811TIP3    H171924   4.897   1.794   0.197  0.9561 -0.4508 -1.8997
16811TIP3    H271925   4.996   1.903   0.233  0.4154 -0.9282  1.3655
16812TIP3   OH271926   5.270   1.712  14.644 -0.2972 -0.1791 -0.0227
16812TIP3    H171927   5.194   1.736  14.590 -0.5466  0.0334  0.4215
16812TIP3    H271928   5.335   1.780  14.625  0.2823 -1.0718 -1.4010
16813TIP3   OH271929   3.541   2.018  12.137 -0.2663 -0.1149 -0.2813
16813TIP3    H171930   3.555   2.073  12.213  1.1176  0.5171 -0.9629
16813TIP3    H271931   3.504   2.077  12.071  0.1489 -0.2532 -0.6438
16814TIP3   OH271932   1.487   3.829  16.375 -0.2742  0.0862 -0.7060
16814TIP3    H171933   1.582   3.826  16.370 -0.1820  0.0002  0.6105
16814TIP3    H271934   1.459   3.869  16.293  1.0822  3.1232  0.1653
16815TIP3   OH271935   0.818   6.062   1.593 -0.6407  0.1844 -0.3152
16815TIP3    H171936   0.782   6.131   1.650 -0.6767  2.0819 -2.4959
16815TIP3    H271937   0.900   6.036   1.635  0.3084  2.8914 -0.2916
16816TIP3   OH271938   3.096   4.591   5.976 -0.3167 -0.0381  0.7246
16816TIP3    H171939   3.114   4.583   6.069 -0.1549 -0.8421  0.6356
16816TIP3    H271940   3.057   4.506   5.952 -2.0979  0.8134  0.4418
16817TIP3   OH271941   4.438   5.389   3.515 -0.0231 -0.0464  0.2713
16817TIP3    H171942   4.477   5.476   3.505  0.1961 -0.1040  0.6130
16817TIP3    H271943   4.365   5.388   3.452 -0.7414  0.8104  1.0552
16818TIP3   OH271944   1.549   1.827   0.274 -0.2158  0.3070 -0.3745
16818TIP3    H171945   1.583   1.910   0.242 -0.8327  0.3201 -1.0142
16818TIP3    H271946   1.557   1.833   0.369  0.2669  0.8671 -0.4456
16819TIP3   OH271947   6.503   4.911   5.550  0.1615  0.0476 -0.3706
16819TIP3    H171948   6.580   4.961   5.524  0.9705  0.8937  3.1996
16819TIP3    H271949   6.431   4.974   5.547  0.3739  0.3129  0.0619
16820TIP3   OH271950   1.911   5.198   0.065 -0.6726 -0.0154 -0.1537
16820TIP3    H171951   1.982   5.187   0.129 -0.5681  0.6220 -0.1481
16820TIP3    H271952   1.892   5.110   0.035  1.1131 -0.0785 -1.2279
16821TIP3   OH271953   5.145   6.422  14.141  0.0510 -0.8475  0.7187
16821TIP3    H171954   5.179   6.342  14.102  2.0065  0.9606 -1.6553
16821TIP3    H271955   5.135   6.402  14.234  1.6881 -3.4486  0.4227
16822TIP3   OH271956   2.807   2.037  15.694  0.1250  0.0268 -0.5154
16822TIP3    H171957   2.761   2.116  15.666  1.0054  0.8438  0.2587
16822TIP3    H271958   2.738   1.979  15.727 -0.5235  0.4960 -1.0339
16823TIP3   OH271959   6.080   0.508  13.670 -0.7502  0.1588 -0.6433
16823TIP3    H171960   6.005   0.567  13.661 -1.2628 -0.5802 -1.3243
16823TIP3    H271961   6.043   0.428  13.706  0.2102  0.7707  1.9342
16824TIP3   OH271962   4.376   0.193  13.347 -0.0587 -0.3499 -0.2057
16824TIP3    H171963   4.393   0.252  13.421 -1.4799 -1.2425  0.8932
16824TIP3    H271964   4.282   0.202  13.331  0.4688  1.0214 -3.0253
16825TIP3   OH271965   0.980   2.979   4.309  0.0783  0.0921  0.1982
16825TIP3    H171966   1.015   2.912   4.251  1.0380  0.4103  0.4042
16825TIP3    H271967   1.024   2.964   4.393 -0.9434 -0.0708  0.7235
16826TIP3   OH271968   5.433   6.141  12.879 -0.5610 -0.1261 -0.0943
16826TIP3    H171969   5.506   6.092  12.915 -0.3062 -0.6591 -1.2978
16826TIP3    H271970   5.420   6.214  12.940 -0.2333 -1.0549  1.1202
16827TIP3   OH271971   6.013   5.238  16.164  0.1706  0.2991 -0.4748
16827TIP3    H171972   6.088   5.185  16.136  2.0128  1.9129  1.0710
16827TIP3    H271973   6.052   5.308  16.216 -2.5697  0.3988  1.6411
16828TIP3   OH271974   4.519   1.466   3.809 -0.0227 -0.4672 -0.1972
16828TIP3    H171975   4.539   1.416   3.888 -1.6973 -1.2708 -0.2295
16828TIP3    H271976   4.588   1.443   3.747  1.2718  0.1277  0.9855
16829TIP3   OH271977   0.407   5.171  11.118 -0.0624  0.6183 -0.2865
16829TIP3    H171978   0.314   5.162  11.098  0.3097  0.3545 -2.0434
16829TIP3    H271979   0.449   5.102  11.068  1.1870  1.4779 -0.4670
16830TIP3   OH271980   6.442   1.235  14.725 -0.2139 -0.3556 -0.1127
16830TIP3    H171981   6.412   1.273  14.808 -2.5794 -0.6674 -0.7759
16830TIP3    H271982   6.439   1.140  14.740 -0.2098 -0.4046 -0.4200
16831TIP3   OH271983   1.291   5.050  14.325 -0.1426 -0.0314 -0.0556
16831TIP3    H171984   1.256   5.131  14.289 -0.5015  0.5232  1.4726
16831TIP3    H271985   1.314   4.998  14.248 -0.6322  1.1911 -1.0693
16832TIP3   OH271986   5.942   2.135  13.359  0.0718  0.2464  0.4001
16832TIP3    H171987   5.847   2.140  13.358 -0.0172 -0.8051  1.6783
16832TIP3    H271988   5.967   2.135  13.266 -1.2919 -1.2603 -0.0151
16833TIP3   OH271989   0.643   6.467  17.174  0.2065 -0.0285  0.2219
16833TIP3    H171990   0.665   6.551  17.213  0.6226  0.5088 -1.1055
16833TIP3    H271991   0.728   6.425  17.158  0.0368 -0.3393  0.1158
16834TIP3   OH271992   1.290   5.510  16.377  0.3386 -0.6716  0.0246
16834TIP3    H171993   1.385   5.513  16.371  0.4836 -2.3674  0.9863
16834TIP3    H271994   1.261   5.594  16.340  2.1227 -0.6269 -1.3892
16835TIP3   OH271995   2.778   6.533  12.214  0.1808 -0.3095  0.2489
16835TIP3    H171996   2.853   6.498  12.167  1.0782  0.4300  1.1039
16835TIP3    H271997   2.754   6.612  12.165 -1.2407 -1.4976 -1.1083
16836TIP3   OH271998   0.903   3.155   2.082 -0.2262  0.1889 -0.6708
16836TIP3    H171999   0.810   3.131   2.078 -0.4005 -0.2710  2.7533
16836TIP3    H272000   0.948   3.072   2.102  0.1987  1.0801  2.6985
16837TIP3   OH272001   1.626   0.014   1.697 -0.2682 -1.0613  0.5126
16837TIP3    H172002   1.571   0.085   1.663 -1.2647 -1.4533  1.2815
16837TIP3    H272003   1.696   0.005   1.631 -0.4283  0.2579  0.1349
16838TIP3   OH272004   1.809   6.732  13.739  0.1946  0.0104  0.3881
16838TIP3    H172005   1.849   6.695  13.818 -1.7792 -0.6590  1.1127
16838TIP3    H272006   1.850   6.683  13.667  2.1476  0.7545  0.9202
16839TIP3   OH272007   1.752   4.891  13.320  0.6529 -0.3094  0.0550
16839TIP3    H172008   1.755   4.875  13.226 -1.2258  1.2221 -0.3313
16839TIP3    H272009   1.666   4.860  13.347 -0.8540  3.5449  0.2664
16840TIP3   OH272010   3.607   3.337  12.365 -0.1061  0.2993 -0.4866
16840TIP3    H172011   3.624   3.299  12.279  0.8524  1.7925 -0.9993
16840TIP3    H272012   3.606   3.432  12.349 -2.3141  0.5602  0.7429
16841TIP3   OH272013   6.755   4.256   3.753  0.4425  0.1769 -0.1461
16841TIP3    H172014   6.701   4.178   3.762 -0.6192  0.5693 -2.4613
16841TIP3    H272015   6.843   4.224   3.734  0.3205 -0.4308  0.2959
16842TIP3   OH272016   0.503   1.824   4.762  0.1230 -0.4004 -0.1145
16842TIP3    H172017   0.459   1.875   4.830 -0.0666  0.2989 -0.7498
16842TIP3    H272018   0.504   1.881   4.686  1.4188 -0.7144 -0.3568
16843TIP3   OH272019   5.321   0.429   0.773 -0.2077 -0.4168 -0.3214
16843TIP3    H172020   5.383   0.435   0.701  0.7584  0.5349  0.5658
16843TIP3    H272021   5.235   0.438   0.731  0.2797 -0.6729 -1.4283
16844TIP3   OH272022   3.325   0.259  11.325  0.3726 -0.3856 -0.1784
16844TIP3    H172023   3.322   0.182  11.268 -1.0744  0.6418 -1.5757
16844TIP3    H272024   3.411   0.298  11.308  0.0883 -0.2798 -1.4574
16845TIP3   OH272025   5.322   4.719   1.664 -0.6541 -0.3655 -0.0118
16845TIP3    H172026   5.333   4.810   1.691 -1.3356 -0.3706  0.2893
16845TIP3    H272027   5.405   4.697   1.622  0.1292 -0.0876  1.3039
16846TIP3   OH272028   5.458   5.437   3.844 -0.0234  0.3634  0.2600
16846TIP3    H172029   5.550   5.445   3.868  0.1687 -3.9094  1.7201
16846TIP3    H272030   5.409   5.462   3.923  0.0027  0.0306  0.3818
16847TIP3   OH272031   4.228   3.517   5.495 -0.6866  0.2491 -0.0366
16847TIP3    H172032   4.307   3.499   5.544 -1.4956 -0.5109  1.0269
16847TIP3    H272033   4.244   3.602   5.454  0.4488  0.3595  0.6034
16848TIP3   OH272034   1.714   1.827   3.817 -0.0025 -0.6984  0.3435
16848TIP3    H172035   1.806   1.846   3.802 -0.1242 -0.2620  0.1181
16848TIP3    H272036   1.710   1.732   3.829  0.4470 -0.7427  0.1484
16849TIP3   OH272037   6.522   5.656   3.999  0.2827  0.0513 -0.1244
16849TIP3    H172038   6.578   5.652   4.076 -0.9363 -0.8929  0.7457
16849TIP3    H272039   6.437   5.683   4.032 -0.2323 -0.2435 -1.1552
16850TIP3   OH272040   2.026   4.057  14.335 -0.8059 -0.5431 -0.0305
16850TIP3    H172041   2.090   4.070  14.265 -0.9838  1.9092  0.2038
16850TIP3    H272042   1.961   3.998  14.296  0.3672 -1.2160 -1.0497
16851TIP3   OH272043   0.547   2.921   1.665  0.4309 -0.1007 -0.0846
16851TIP3    H172044   0.454   2.899   1.659  1.0885 -3.0806 -0.6522
16851TIP3    H272045   0.583   2.896   1.580  2.0343 -0.6506  0.7169
16852TIP3   OH272046   4.311   6.439  10.996  0.1510 -0.2890 -0.0548
16852TIP3    H172047   4.299   6.401  10.909 -0.9269 -0.7430  0.2822
16852TIP3    H272048   4.346   6.367  11.049 -0.0829 -0.2751  0.1187
16853TIP3   OH272049   0.162   1.313   0.859  0.3663 -0.1231 -0.2694
16853TIP3    H172050   0.067   1.315   0.856  0.3433 -1.1786 -0.7581
16853TIP3    H272051   0.183   1.291   0.950  0.1057 -0.9176 -0.3923
16854TIP3   OH272052   3.284   4.073   0.656  0.1180 -0.1846 -0.4608
16854TIP3    H172053   3.221   4.088   0.586 -1.4456 -0.7621  0.7693
16854TIP3    H272054   3.321   3.987   0.638 -0.6935 -0.5764 -0.2917
16855TIP3   OH272055   2.400   0.149  14.884 -0.2526  0.3350 -0.4921
16855TIP3    H172056   2.374   0.057  14.891  1.9222 -0.2678  0.4087
16855TIP3    H272057   2.344   0.184  14.814 -0.6475 -1.8520 -1.3532
16856TIP3   OH272058   4.735   0.234  11.818 -0.0005 -0.5382  0.0689
16856TIP3    H172059   4.807   0.225  11.756 -0.0304 -0.4930  0.0276
16856TIP3    H272060   4.733   0.150  11.865  2.5918  0.7661  2.8220
16857TIP3   OH272061   0.255   4.740   2.220  0.0694  0.2676 -0.7828
16857TIP3    H172062   0.272   4.647   2.205  0.6267 -0.1152  1.8407
16857TIP3    H272063   0.331   4.785   2.184  1.5110 -0.6104  1.0417
16858TIP3   OH272064   6.795   2.330   2.136  0.1729  0.1114  0.1943
16858TIP3    H172065   6.818   2.322   2.043 -0.3925 -1.2876  0.1425
16858TIP3    H272066   6.873   2.299   2.183  0.0240 -0.3466  0.1443
16859TIP3   OH272067   0.889   4.699  13.487  0.0524  0.1265 -0.3775
16859TIP3    H172068   0.908   4.642  13.562 -0.1481 -0.7645 -0.9971
16859TIP3    H272069   0.945   4.776  13.502 -0.0708  0.0271  0.7449
16860TIP3   OH272070   4.995   4.820   6.154 -0.1121  0.2627  0.1047
16860TIP3    H172071   5.054   4.745   6.157 -0.8941 -0.3575  0.2553
16860TIP3    H272072   5.001   4.859   6.241 -0.3119 -0.0998  0.2793
16861TIP3   OH272073   3.448   3.894   3.101  0.5386 -0.5243 -0.0065
16861TIP3    H172074   3.411   3.836   3.035  1.5235  0.2402 -1.2984
16861TIP3    H272075   3.378   3.956   3.121  1.2215  1.4444 -3.0521
16862TIP3   OH272076   2.137   6.819  16.895  0.0647 -0.7983 -0.0318
16862TIP3    H172077   2.209   6.842  16.836 -2.1625  3.9258 -1.3412
16862TIP3    H272078   2.163   6.856  16.980  0.0633 -0.8830  0.0049
16863TIP3   OH272079   2.151   1.337  13.695 -0.3951 -0.2624 -0.3317
16863TIP3    H172080   2.090   1.359  13.625  0.4450 -1.2685 -1.4335
16863TIP3    H272081   2.237   1.353  13.657  0.0522  0.7359  1.0488
16864TIP3   OH272082   0.965   2.045   1.733 -0.3596  0.5961  0.1717
16864TIP3    H172083   0.981   2.097   1.812  1.4689 -1.0029  0.9657
16864TIP3    H272084   1.026   2.081   1.668 -1.2221  1.3324 -0.2422
16865TIP3   OH272085   0.942   1.581  11.697  0.0925  0.4729  0.2468
16865TIP3    H172086   0.980   1.630  11.624 -2.1721 -0.2524 -1.5232
16865TIP3    H272087   0.999   1.504  11.706  1.2635  1.3193  0.2877
16866TIP3   OH272088   0.190   2.875   5.948  0.9023 -0.0266 -0.6039
16866TIP3    H172089   0.246   2.952   5.958  0.0540  0.9150 -2.5228
16866TIP3    H272090   0.195   2.830   6.032  1.7947  1.8803  0.4198
16867TIP3   OH272091   1.922   1.455  16.994 -0.2295  0.5295  0.5590
16867TIP3    H172092   1.889   1.501  17.071  1.5540 -0.4479  1.9956
16867TIP3    H272093   1.936   1.524  16.929  1.0960  1.9010  2.1845
16868TIP3   OH272094   5.684   2.097  10.661  0.5311 -0.5964  0.2529
16868TIP3    H172095   5.766   2.142  10.640  0.1118  0.1287  0.1422
16868TIP3    H272096   5.623   2.167  10.685  0.0964 -1.1652  0.8715
16869TIP3   OH272097   5.035   4.059  11.075  0.7593 -0.1205 -0.1527
16869TIP3    H172098   4.972   4.061  11.003  0.0165  0.7458  0.4924
16869TIP3    H272099   5.036   3.968  11.103  0.0816 -0.2227 -0.4338
16870TIP3   OH272100   4.861   5.462   3.549  0.2273 -0.3330 -0.5170
16870TIP3    H172101   4.896   5.398   3.488  0.6478 -0.3916 -0.2142
16870TIP3    H272102   4.831   5.410   3.623  0.9566 -0.1493 -0.0860
16871TIP3   OH272103   2.758   1.293   3.773 -0.0410 -0.0739  0.6583
16871TIP3    H172104   2.692   1.351   3.811  0.8867  0.9326  0.8069
16871TIP3    H272105   2.718   1.260   3.693 -1.0164 -0.1108  1.1447
16872TIP3   OH272106   0.627   5.895   1.810  0.5179  0.0419  0.7342
16872TIP3    H172107   0.679   5.827   1.766 -0.5527 -0.4131  0.1267
16872TIP3    H272108   0.581   5.939   1.739 -2.4942 -1.7396  1.4159
16873TIP3   OH272109   5.516   5.200  16.757 -0.1088 -0.6531  0.2844
16873TIP3    H172110   5.521   5.168  16.667  1.2384 -0.2304  0.1953
16873TIP3    H272111   5.594   5.165  16.801 -0.8175 -0.9720  1.3393
16874TIP3   OH272112   3.929   6.002  12.768  0.5732  0.0873 -0.5752
16874TIP3    H172113   3.983   6.081  12.768  1.5532 -0.5587 -0.0759
16874TIP3    H272114   3.874   6.010  12.846  0.0620  0.6632 -0.9862
16875TIP3   OH272115   2.009   4.796  11.103  0.3959  0.2293 -1.2316
16875TIP3    H172116   1.977   4.728  11.044  0.3214  0.7507 -1.8037
16875TIP3    H272117   2.061   4.854  11.046  1.5119 -0.0437 -0.5216
16876TIP3   OH272118   3.041   0.793  14.437  0.0660  0.0324 -0.1357
16876TIP3    H172119   2.951   0.823  14.426  0.0794  0.2152  0.2142
16876TIP3    H272120   3.037   0.734  14.512 -0.1227 -1.5771 -1.3694
16877TIP3   OH272121   1.695   3.993  11.457  0.4768  0.0143  0.7468
16877TIP3    H172122   1.669   4.016  11.367  1.4284 -2.7437 -0.3408
16877TIP3    H272123   1.621   4.020  11.511 -0.4040  1.1681 -0.9401
16878TIP3   OH272124   3.952   2.104  11.270  0.1561  0.2623 -0.1373
16878TIP3    H172125   3.902   2.075  11.194  0.6239 -0.2958 -0.2404
16878TIP3    H272126   4.042   2.108  11.239  0.5181 -1.0276  0.6678
16879TIP3   OH272127   0.798   0.661  16.703 -0.1049  0.5994  0.2578
16879TIP3    H172128   0.783   0.654  16.609  0.0652  1.9119  0.1193
16879TIP3    H272129   0.711   0.647  16.742 -0.0844 -0.4727 -0.0427
16880TIP3   OH272130   0.652   0.361  15.154  0.1440  0.3818 -0.0006
16880TIP3    H172131   0.696   0.329  15.233  0.8956  0.0756 -0.5249
16880TIP3    H272132   0.606   0.441  15.182  2.5707  1.8103  0.2175
16881TIP3   OH272133   2.348   4.090   5.678 -0.1143  0.0239 -0.2355
16881TIP3    H172134   2.379   4.068   5.766  1.1030  0.9198 -0.4210
16881TIP3    H272135   2.265   4.041   5.669  0.1721 -0.7526  1.0715
16882TIP3   OH272136   0.216   4.328   4.852  0.1669 -0.0069 -0.1905
16882TIP3    H172137   0.188   4.414   4.821  0.0311  0.3850  0.9539
16882TIP3    H272138   0.199   4.330   4.947 -1.3802 -1.8894 -0.3688
16883TIP3   OH272139   4.389   2.542  13.976  0.0898 -0.5764 -0.1500
16883TIP3    H172140   4.382   2.618  14.035 -0.5357 -1.0677  0.4144
16883TIP3    H272141   4.458   2.567  13.915  2.2696 -0.8662  2.0213
16884TIP3   OH272142   3.983   0.519   2.129 -0.2742  0.3627 -0.5589
16884TIP3    H172143   3.954   0.515   2.038 -2.8151 -2.4026  0.2313
16884TIP3    H272144   4.074   0.487   2.127 -0.6351 -0.6357 -2.0072
16885TIP3   OH272145   6.611   0.457  13.269 -0.2820  0.0938 -0.9183
16885TIP3    H172146   6.522   0.454  13.236 -0.6528 -1.6441  0.0614
16885TIP3    H272147   6.660   0.396  13.213 -0.6919 -2.0892  0.9278
16886TIP3   OH272148   6.556   2.406  14.962 -0.2402  0.3486 -0.5580
16886TIP3    H172149   6.595   2.466  14.899  0.5247 -0.9250 -1.3393
16886TIP3    H272150   6.621   2.337  14.974 -1.0517 -0.2885  0.3763
16887TIP3   OH272151   5.229   5.481   4.431  0.7882  0.2475  0.4645
16887TIP3    H172152   5.273   5.487   4.515 -0.6497  2.9974  1.1064
16887TIP3    H272153   5.141   5.451   4.452  0.4606  0.8236 -0.0588
16888TIP3   OH272154   1.655   3.500   3.475  0.3583  0.1847  0.2605
16888TIP3    H172155   1.677   3.407   3.471 -1.0932 -0.1617 -0.0924
16888TIP3    H272156   1.732   3.541   3.515  1.5389 -0.9806 -0.7217
16889TIP3   OH272157   2.071   5.914  10.685  0.5557  0.2050 -0.0696
16889TIP3    H172158   2.001   5.850  10.698 -0.2633  1.3094  1.2237
16889TIP3    H272159   2.136   5.891  10.751  0.5175  0.3591  0.0221
16890TIP3   OH272160   4.838   5.135   5.812 -0.1593  0.2026  0.0188
16890TIP3    H172161   4.788   5.066   5.768 -1.6022 -0.1245  2.0098
16890TIP3    H272162   4.812   5.128   5.904  2.6575  0.8718  0.9595
16891TIP3   OH272163   6.253   5.666   6.432  0.2787 -0.0269  0.0050
16891TIP3    H172164   6.246   5.586   6.483 -0.5294 -0.8090 -1.2719
16891TIP3    H272165   6.164   5.685   6.404  0.5442  1.0066 -0.2044
16892TIP3   OH272166   2.106   1.452   2.840 -0.4842 -0.5289 -0.2753
16892TIP3    H172167   2.031   1.502   2.810  0.4850  0.4281 -1.2286
16892TIP3    H272168   2.095   1.446   2.935 -3.1081 -2.7395 -0.6006
16893TIP3   OH272169   5.633   3.387  17.292  0.3646  0.3118 -0.6146
16893TIP3    H172170   5.603   3.397  17.382  1.0474  2.5506 -0.5687
16893TIP3    H272171   5.562   3.342  17.247 -0.8384  0.9180  0.6208
16894TIP3   OH272172   3.905   1.449  14.820 -0.3512 -0.1498 -0.1657
16894TIP3    H172173   3.954   1.423  14.897  0.0838  2.0717  0.3721
16894TIP3    H272174   3.833   1.386  14.815  1.3155 -2.1897  0.2320
16895TIP3   OH272175   3.551   5.643   3.550 -0.5161 -0.3270  0.3047
16895TIP3    H172176   3.479   5.607   3.499 -0.2577 -0.6835  0.1874
16895TIP3    H272177   3.517   5.724   3.586 -0.2062  0.7650 -1.7307
16896TIP3   OH272178   1.715   0.327   0.750 -0.3372  0.0387  0.1976
16896TIP3    H172179   1.649   0.304   0.684 -1.2972 -0.8192  1.4189
16896TIP3    H272180   1.796   0.290   0.717 -1.0911 -1.6762  0.1875
16897TIP3   OH272181   3.288   5.484   5.274  0.4428 -0.4754  0.1090
16897TIP3    H172182   3.194   5.476   5.260  0.9695 -1.6632 -5.0580
16897TIP3    H272183   3.310   5.571   5.241  1.3159 -1.2193 -1.4264
16898TIP3   OH272184   4.107   5.965  16.303  0.4313 -0.4778  0.2948
16898TIP3    H172185   4.100   5.871  16.286 -1.4945 -0.6788  1.8116
16898TIP3    H272186   4.095   6.005  16.217 -1.6391 -1.5894 -0.0078
16899TIP3   OH272187   3.440   1.092   5.420 -0.0304  0.1011 -0.3859
16899TIP3    H172188   3.377   1.022   5.406  0.7459 -0.2568 -2.3471
16899TIP3    H272189   3.447   1.099   5.516 -3.5190  0.6415 -0.0198
16900TIP3   OH272190   0.872   2.900  13.493  0.1703 -0.4935  0.0303
16900TIP3    H172191   0.812   2.968  13.462 -0.2541 -0.6221  0.5405
16900TIP3    H272192   0.840   2.879  13.581  0.9306 -0.6122  0.2836
16901TIP3   OH272193   0.971   6.511   0.674 -0.5873 -0.0856 -0.9977
16901TIP3    H172194   0.939   6.546   0.757  0.0867 -0.8011 -0.4194
16901TIP3    H272195   0.893   6.475   0.631 -0.7236 -1.0006 -0.0155
16902TIP3   OH272196   4.088   5.036  14.034  0.6102 -0.6264 -0.2713
16902TIP3    H172197   4.171   4.996  14.010  0.7587 -2.5006  2.7490
16902TIP3    H272198   4.107   5.088  14.112 -0.9769 -0.9046  0.3502
16903TIP3   OH272199   4.118   1.942  11.930 -0.5240 -0.0952 -0.0408
16903TIP3    H172200   4.153   2.030  11.917 -2.1409  0.5333 -0.2919
16903TIP3    H272201   4.077   1.944  12.016 -0.3780 -0.6722  0.0471
16904TIP3   OH272202   2.859   0.328  11.965  0.7361 -0.4538  0.3215
16904TIP3    H172203   2.909   0.409  11.954 -0.9506  0.4488 -1.0570
16904TIP3    H272204   2.768   0.354  11.956 -0.0401 -2.0964  2.5939
16905TIP3   OH272205   4.054   3.500   3.544  0.3465  0.1701 -0.0358
16905TIP3    H172206   4.053   3.470   3.453  2.1879  0.5243 -0.2123
16905TIP3    H272207   4.147   3.513   3.564 -0.1125  1.4704  1.4434
16906TIP3   OH272208   4.916   2.650   5.352 -0.2362 -0.2066  0.6696
16906TIP3    H172209   4.998   2.698   5.344  0.7661 -1.7742  0.9091
16906TIP3    H272210   4.850   2.705   5.309  1.0042  0.9309  0.1703
16907TIP3   OH272211   5.900   2.075   5.668  0.2997 -0.7907 -0.0481
16907TIP3    H172212   5.944   2.000   5.707  1.1565  0.8722  2.4308
16907TIP3    H272213   5.955   2.150   5.691 -1.4069  0.8095 -0.9007
16908TIP3   OH272214   6.703   3.111  14.297  0.1894  0.1229  0.3166
16908TIP3    H172215   6.619   3.101  14.252  0.1157  1.2868  0.1819
16908TIP3    H272216   6.679   3.145  14.384  0.4572 -0.5483  0.6673
16909TIP3   OH272217   1.002   1.176  12.241  0.6658 -0.4481 -0.7445
16909TIP3    H172218   1.024   1.240  12.308 -0.4671  0.6615 -1.3701
16909TIP3    H272219   1.079   1.173  12.184  1.1023 -0.3593 -0.1623
16910TIP3   OH272220   5.769   5.304  10.751  0.7897 -0.1533 -0.2787
16910TIP3    H172221   5.783   5.227  10.806  1.1738  0.1884  0.1098
16910TIP3    H272222   5.676   5.300  10.727  0.5320 -0.1222  0.6806
16911TIP3   OH272223   5.968   4.175   2.806 -0.4062  0.0429  0.4166
16911TIP3    H172224   5.922   4.258   2.817 -0.0575  0.2046  0.6482
16911TIP3    H272225   5.914   4.112   2.855 -0.9880  0.0116 -0.2405
16912TIP3   OH272226   1.021   2.428   5.384 -0.3333  0.0480  1.0425
16912TIP3    H172227   1.030   2.495   5.316  1.2509  0.0436  1.2176
16912TIP3    H272228   0.949   2.372   5.354  1.5581 -1.1145 -1.6620
16913TIP3   OH272229   4.253   4.457   1.368  0.1222  0.0353 -0.1085
16913TIP3    H172230   4.223   4.548   1.368  0.6809  0.2233 -0.0550
16913TIP3    H272231   4.190   4.411   1.312 -0.4390  0.3604  0.2517
16914TIP3   OH272232   1.272   1.727  15.520  0.0211  0.0483  0.0604
16914TIP3    H172233   1.309   1.720  15.608  0.1962  2.2934  0.2435
16914TIP3    H272234   1.186   1.767  15.533 -0.5044 -0.7961 -0.7140
16915TIP3   OH272235   2.909   4.881  14.217 -0.0595  0.3416  0.0918
16915TIP3    H172236   2.840   4.837  14.169  0.7548 -0.7501 -0.1279
16915TIP3    H272237   2.988   4.831  14.197  0.3195 -0.2394  2.6049
16916TIP3   OH272238   6.685   2.333   3.892  0.1483 -0.0613  0.4299
16916TIP3    H172239   6.675   2.307   3.984  0.3903 -1.4378  0.0821
16916TIP3    H272240   6.778   2.358   3.885  0.3865 -0.9589  0.3218
16917TIP3   OH272241   0.890   1.349  11.995  0.8607  0.3514 -0.1888
16917TIP3    H172242   0.974   1.371  12.036 -0.1936 -0.1657  2.4800
16917TIP3    H272243   0.845   1.295  12.060 -0.9165 -0.7382 -2.1988
16918TIP3   OH272244   4.570   1.217  16.658  0.3907 -0.2277  0.0434
16918TIP3    H172245   4.650   1.167  16.642  0.9497  0.8216 -0.5451
16918TIP3    H272246   4.501   1.151  16.663  1.0993 -1.0544 -0.7575
16919TIP3   OH272247   5.765   3.082  16.474 -0.2934  0.0573  0.0117
16919TIP3    H172248   5.791   3.088  16.565 -3.4769 -1.2058  1.1338
16919TIP3    H272249   5.783   3.168  16.437  0.2401  0.8685  2.0586
16920TIP3   OH272250   1.066   3.760  16.564 -0.1684 -0.1613 -0.1550
16920TIP3    H172251   1.024   3.809  16.492  1.2659  0.4803 -0.5895
16920TIP3    H272252   1.140   3.716  16.522  0.8099  0.3822  0.9477
16921TIP3   OH272253   3.500   6.188  15.733  0.3656  0.0456  0.5424
16921TIP3    H172254   3.509   6.282  15.752 -0.4225  0.3559 -0.5187
16921TIP3    H272255   3.480   6.149  15.817  1.2426  0.7455  1.1029
16922TIP3   OH272256   4.285   1.522   5.012 -0.2112  0.3637  0.7705
16922TIP3    H172257   4.377   1.517   5.037  0.2196  1.0201 -0.5942
16922TIP3    H272258   4.247   1.440   5.044  1.0250 -0.2926  0.6104
16923TIP3   OH272259   5.431   6.698   4.028 -0.8463  0.0262  0.0473
16923TIP3    H172260   5.348   6.716   3.984 -0.6965  0.9156  0.0994
16923TIP3    H272261   5.495   6.748   3.978 -0.7666  1.5597  1.6104
16924TIP3   OH272262   5.763   4.279   3.296  0.2361 -0.1709 -0.0274
16924TIP3    H172263   5.685   4.310   3.248  0.9046 -2.8473 -3.1967
16924TIP3    H272264   5.806   4.360   3.324 -1.1078  1.6237 -2.5941
16925TIP3   OH272265   0.907   5.903   1.930 -0.1809 -0.5279 -0.0237
16925TIP3    H172266   0.828   5.955   1.915 -1.2500 -2.0809 -0.0322
16925TIP3    H272267   0.968   5.932   1.863  0.0594  2.1591  1.2457
16926TIP3   OH272268   0.431   4.220   4.443 -0.2676  1.1106  0.3809
16926TIP3    H172269   0.472   4.160   4.506  1.5901 -0.1317 -1.8619
16926TIP3    H272270   0.356   4.256   4.490  0.1013 -0.9320  2.7452
16927TIP3   OH272271   5.477   6.087  13.500  0.0312  0.0936  0.6827
16927TIP3    H172272   5.400   6.108  13.447  0.2924 -2.5646 -0.8950
16927TIP3    H272273   5.464   5.996  13.526  3.0231 -0.7456 -0.3783
16928TIP3   OH272274   0.933   3.515   1.377  0.0719 -0.1213 -0.3085
16928TIP3    H172275   0.842   3.489   1.362  0.0190 -0.4494  0.4675
16928TIP3    H272276   0.950   3.486   1.467  1.1824 -0.7728 -0.7066
16929TIP3   OH272277   1.603   3.325  12.643  0.0855  0.0411  0.3032
16929TIP3    H172278   1.567   3.315  12.555 -0.5009  0.1411  0.5330
16929TIP3    H272279   1.629   3.417  12.648 -1.0353  0.3445  0.6708
16930TIP3   OH272280   4.452   2.948   4.534  0.1087 -0.1703 -0.2001
16930TIP3    H172281   4.497   2.994   4.605  0.9033 -1.1778 -0.0257
16930TIP3    H272282   4.497   2.863   4.528 -0.3252 -0.3287 -1.5205
16931TIP3   OH272283   3.800   4.476   4.976 -0.0606  0.0541  0.1268
16931TIP3    H172284   3.879   4.484   4.923  0.1213 -1.9862 -0.0141
16931TIP3    H272285   3.813   4.395   5.026 -2.0272 -0.2991  0.1589
16932TIP3   OH272286   0.603   3.362  15.897 -0.1929  0.3845  0.6010
16932TIP3    H172287   0.518   3.348  15.939 -1.2272  0.1364 -1.4266
16932TIP3    H272288   0.582   3.396  15.810  1.8668  1.9472  0.6206
16933TIP3   OH272289   5.508   1.793  10.860 -0.5134  0.4562  0.1537
16933TIP3    H172290   5.482   1.791  10.768  1.2718 -2.4934 -0.4044
16933TIP3    H272291   5.602   1.806  10.858 -0.3469 -0.3989  1.4960
16934TIP3   OH272292   5.654   3.601  13.436 -0.0283  0.4865 -0.5728
16934TIP3    H172293   5.738   3.637  13.464  1.1335 -0.7237 -2.2810
16934TIP3    H272294   5.673   3.510  13.414 -2.6369 -1.0180  2.6400
16935TIP3   OH272295   1.986   0.241   0.679  0.1763 -0.1622 -0.0905
16935TIP3    H172296   2.075   0.273   0.694 -0.3001 -0.1503  3.9547
16935TIP3    H272297   1.996   0.146   0.673  0.4461 -0.3837  2.4673
16936TIP3   OH272298   5.320   5.804   2.785  0.1366 -0.5395  0.0851
16936TIP3    H172299   5.232   5.807   2.748  1.3446 -0.3070 -3.0588
16936TIP3    H272300   5.345   5.896   2.794  0.1976 -0.6086  0.6740
16937TIP3   OH272301   4.669   6.456   4.827 -0.1253 -0.4348 -0.2810
16937TIP3    H172302   4.736   6.408   4.777 -0.9660 -1.2800 -0.6275
16937TIP3    H272303   4.681   6.427   4.917 -0.1468 -0.7329 -0.3736
16938TIP3   OH272304   2.214   6.243  15.081 -0.3008  0.1313  0.2337
16938TIP3    H172305   2.163   6.164  15.100 -1.4372  0.0478 -2.7152
16938TIP3    H272306   2.149   6.313  15.076  0.5519  1.0444  1.5737
16939TIP3   OH272307   2.633   4.970  13.731 -0.6588 -0.0010 -0.5008
16939TIP3    H172308   2.609   4.987  13.822 -2.4553 -0.7095 -0.7914
16939TIP3    H272309   2.637   4.875  13.724 -2.7767 -0.0859 -1.6100
16940TIP3   OH272310   4.411   3.668   1.722  0.3599 -0.3462 -0.9596
16940TIP3    H172311   4.497   3.630   1.735 -0.3639 -1.7942 -0.1434
16940TIP3    H272312   4.371   3.667   1.809  0.6649  3.3773 -0.6225
16941TIP3   OH272313   5.736   1.990   4.445  0.0169 -0.3497 -0.0119
16941TIP3    H172314   5.651   1.978   4.402 -0.0371 -0.3820  0.1035
16941TIP3    H272315   5.741   1.917   4.507 -2.1979  2.4234  3.8210
16942TIP3   OH272316   2.853   5.413   2.044 -0.6016  0.6086  0.4489
16942TIP3    H172317   2.763   5.381   2.055 -0.3933 -0.4814 -0.8004
16942TIP3    H272318   2.857   5.441   1.953  1.1148 -2.0814 -0.3972
16943TIP3   OH272319   2.164   1.665  16.861  0.2540  0.3069 -0.9528
16943TIP3    H172320   2.138   1.633  16.774 -0.5398 -1.0607 -0.2602
16943TIP3    H272321   2.259   1.663  16.860  0.2641 -2.1921 -0.9800
16944TIP3   OH272322   3.056   6.094   5.389  0.4788  0.8498  0.4777
16944TIP3    H172323   2.992   6.164   5.374 -3.5316 -2.8937 -3.0946
16944TIP3    H272324   3.030   6.055   5.472 -2.9291 -1.0890 -1.2486
16945TIP3   OH272325   2.400   4.347  14.291  0.0222  0.1559  0.3196
16945TIP3    H172326   2.317   4.394  14.301 -1.3946 -2.1218 -0.0793
16945TIP3    H272327   2.424   4.323  14.381 -0.3136 -0.0903  0.3452
16946TIP3   OH272328   5.579   3.268  11.370 -0.2495  0.3350 -0.1518
16946TIP3    H172329   5.577   3.232  11.281 -0.7140 -1.0170  0.3837
16946TIP3    H272330   5.641   3.341  11.365 -0.1088  0.1445 -1.5316
16947TIP3   OH272331   0.792   1.626  15.940  0.1407 -0.3498 -0.1032
16947TIP3    H172332   0.799   1.593  16.029 -0.7138  0.7210  0.3789
16947TIP3    H272333   0.734   1.564  15.896  0.2739 -0.6761  0.1736
16948TIP3   OH272334   5.598   5.012  15.931 -0.2345 -0.9427 -0.1951
16948TIP3    H172335   5.529   5.000  15.996 -0.3606  1.3424  0.1656
16948TIP3    H272336   5.677   5.030  15.982 -0.0671 -0.3737 -0.6406
16949TIP3   OH272337   0.772   0.046  12.036  0.1153 -0.8691  0.1516
16949TIP3    H172338   0.718   0.051  12.115  0.5991  0.6788  0.4192
16949TIP3    H272339   0.764   0.132  11.996  2.2149 -0.6508  0.1003
16950TIP3   OH272340   0.104   0.856   1.654 -0.0689  0.2489 -0.0461
16950TIP3    H172341   0.161   0.889   1.585  0.9138  1.4747  1.2830
16950TIP3    H272342   0.092   0.763   1.633 -1.2447  0.9361 -2.7827
16951TIP3   OH272343   1.924   5.457  14.124 -0.1520  0.7501  0.3639
16951TIP3    H172344   1.931   5.415  14.210 -0.3947 -0.3063 -0.1096
16951TIP3    H272345   2.000   5.515  14.119 -0.4528  1.2772  1.5189
16952TIP3   OH272346   5.164   5.519  15.425 -0.1153  0.0851 -0.1890
16952TIP3    H172347   5.152   5.562  15.340  0.8001 -0.7127 -0.7363
16952TIP3    H272348   5.218   5.580  15.475 -0.0857  0.2505 -0.4179
16953TIP3   OH272349   1.770   4.642  12.016  0.2586 -0.4580  0.6419
16953TIP3    H172350   1.794   4.689  11.936 -1.6541 -0.2543  0.1265
16953TIP3    H272351   1.787   4.550  11.996  1.9049 -0.2167  0.8385
16954TIP3   OH272352   4.240   3.892  16.938  0.0596  0.2061  0.7682
16954TIP3    H172353   4.213   3.980  16.911 -0.4325  0.0047  0.5862
16954TIP3    H272354   4.328   3.882  16.902 -0.0301  0.4784  0.4648
16955TIP3   OH272355   3.250   2.717  14.782 -0.5459  0.1929 -0.3518
16955TIP3    H172356   3.192   2.644  14.803  1.2279 -0.5693  2.5595
16955TIP3    H272357   3.222   2.787  14.841  0.7188  0.1492  0.3622
16956TIP3   OH272358   1.369   5.075  11.513  0.1036 -0.5648 -0.6038
16956TIP3    H172359   1.293   5.064  11.570 -0.0439  2.3973 -0.0710
16956TIP3    H272360   1.334   5.072  11.425 -0.2172 -1.5967 -0.4559
16957TIP3   OH272361   1.902   1.264   3.607  0.6968  0.0654 -0.6290
16957TIP3    H172362   1.859   1.194   3.657  1.1970  0.2838  0.1297
16957TIP3    H272363   1.846   1.340   3.621  1.1292  0.2673  0.0884
16958TIP3   OH272364   5.963   5.731  13.735 -0.7056 -0.7499 -0.0462
16958TIP3    H172365   5.912   5.700  13.810 -0.0445  0.6163  1.0114
16958TIP3    H272366   6.027   5.662  13.719 -0.9572 -1.1304  0.5469
16959TIP3   OH272367   3.681   0.619  15.582  0.1326 -0.4209  0.3939
16959TIP3    H172368   3.734   0.582  15.654  1.4284 -2.1633 -1.3453
16959TIP3    H272369   3.743   0.668  15.529 -0.2110 -1.4042 -0.9768
16960TIP3   OH272370   5.972   3.212  17.191  0.3865 -0.1567 -0.1722
16960TIP3    H172371   6.051   3.178  17.149 -0.3535 -0.3661 -1.4272
16960TIP3    H272372   5.922   3.253  17.120 -0.5383  0.1644  0.6385
16961TIP3   OH272373   1.915   0.116   5.231 -0.2373  0.1254  0.6666
16961TIP3    H172374   1.912   0.202   5.274  0.6719 -1.1384  3.5291
16961TIP3    H272375   1.990   0.072   5.271  1.1490 -1.0427 -2.8335
16962TIP3   OH272376   5.510   2.301   6.362  0.3360 -0.4728  0.0685
16962TIP3    H172377   5.498   2.396   6.360 -1.0774 -0.6332 -1.3145
16962TIP3    H272378   5.422   2.266   6.372  0.7859 -1.6483  0.0855
16963TIP3   OH272379   6.373   6.366   0.599  0.3112 -0.0760  0.1519
16963TIP3    H172380   6.384   6.294   0.538 -1.4264  0.5718 -0.9925
16963TIP3    H272381   6.457   6.413   0.596  0.7902 -0.9576 -0.5191
16964TIP3   OH272382   1.681   3.698   4.847  0.3403 -0.3800  0.9926
16964TIP3    H172383   1.737   3.770   4.818  0.2593 -0.1148  1.4815
16964TIP3    H272384   1.612   3.741   4.899 -1.2980 -0.4952 -0.9679
16965TIP3   OH272385   0.397   4.480  15.701 -0.4451  0.8217 -0.7265
16965TIP3    H172386   0.458   4.553  15.717  0.8388  0.1421 -2.2816
16965TIP3    H272387   0.360   4.499  15.615 -0.3676 -0.1638 -0.9862
16966TIP3   OH272388   1.839   3.715   5.502 -0.5444 -0.1453 -0.3776
16966TIP3    H172389   1.753   3.677   5.521  0.0916 -2.6219 -1.9626
16966TIP3    H272390   1.830   3.755   5.416 -0.1049 -0.4826 -0.5855
16967TIP3   OH272391   0.875   3.445   3.268  0.5423  0.4169  0.0233
16967TIP3    H172392   0.833   3.367   3.304 -1.3326  1.1137 -0.5400
16967TIP3    H272393   0.905   3.493   3.346 -0.6006  0.3564  0.5327
16968TIP3   OH272394   3.584   2.251   0.341 -0.4973 -0.1539  0.1295
16968TIP3    H172395   3.664   2.199   0.349 -0.8963 -0.5639  1.9429
16968TIP3    H272396   3.513   2.189   0.358 -1.1409  0.4362 -0.3618
16969TIP3   OH272397   4.685   5.992   3.986 -0.1818  0.4938  0.5098
16969TIP3    H172398   4.774   6.011   3.957  0.6920 -2.0484  1.1936
16969TIP3    H272399   4.629   6.029   3.918  1.3260  2.5252  0.2749
16970TIP3   OH272400   4.624   4.870   4.760  0.1623  0.1137 -0.1223
16970TIP3    H172401   4.691   4.929   4.794  1.1545 -1.4978  0.8957
16970TIP3    H272402   4.668   4.785   4.755 -0.5989 -0.2212 -3.4423
16971TIP3   OH272403   2.557   1.900  12.414 -0.3467  0.2706  0.4125
16971TIP3    H172404   2.516   1.826  12.369 -1.7888 -0.4508  2.7282
16971TIP3    H272405   2.599   1.861  12.491  1.5228  1.5142  0.0851
16972TIP3   OH272406   2.866   3.252  14.309 -0.3857  0.0806 -0.4470
16972TIP3    H172407   2.807   3.325  14.292  0.2345  0.0946 -2.9610
16972TIP3    H272408   2.815   3.174  14.288 -1.2032 -0.3436  2.6892
16973TIP3   OH272409   0.115   1.017  13.464  0.3506  0.1803 -0.2006
16973TIP3    H172410   0.156   1.100  13.437  0.8836 -0.0466 -0.0960
16973TIP3    H272411   0.147   0.953  13.402 -0.2486  0.0896 -0.4204
16974TIP3   OH272412   2.387   2.229  16.933  0.0569 -0.8225  0.3106
16974TIP3    H172413   2.332   2.165  16.980 -0.5558  1.3811  2.8134
16974TIP3    H272414   2.348   2.232  16.845 -0.2833 -3.3480  0.2743
16975TIP3   OH272415   6.543   3.896   0.405  0.3871 -0.1928  0.2716
16975TIP3    H172416   6.633   3.865   0.402  0.4410 -0.1481  1.0732
16975TIP3    H272417   6.493   3.822   0.439  0.0350 -0.3781 -0.6160
16976TIP3   OH272418   1.168   4.070   2.113 -0.1250  0.3894  0.1485
16976TIP3    H172419   1.207   4.134   2.173 -1.0253 -0.5261  1.7743
16976TIP3    H272420   1.144   3.996   2.169  0.1615 -1.0641 -1.5469
16977TIP3   OH272421   1.424   4.453   5.967 -0.0837  0.1893  0.0805
16977TIP3    H172422   1.384   4.469   6.052  0.0611  0.1606  0.1531
16977TIP3    H272423   1.515   4.430   5.986 -1.0612 -4.4783  0.3334
16978TIP3   OH272424   1.322   2.908  16.623 -0.4390 -0.3329 -0.0738
16978TIP3    H172425   1.336   3.002  16.609 -1.4038 -0.4726 -2.4638
16978TIP3    H272426   1.362   2.890  16.708  2.2542  1.6726 -0.7804
16979TIP3   OH272427   2.675   0.645  12.692  0.2721  0.0955 -0.3719
16979TIP3    H172428   2.689   0.706  12.619 -1.4724 -1.4449 -2.1037
16979TIP3    H272429   2.640   0.700  12.762 -0.8504  1.2010 -1.7297
16980TIP3   OH272430   3.305   5.122   3.041  0.4593 -0.2324 -0.1908
16980TIP3    H172431   3.287   5.216   3.047 -1.2295 -0.4619 -0.9432
16980TIP3    H272432   3.293   5.090   3.131 -0.6514  0.0297 -0.2254
16981TIP3   OH272433   4.279   5.202   4.683 -0.3817 -0.0638 -0.4779
16981TIP3    H172434   4.326   5.136   4.733 -0.1074  0.1892 -0.3966
16981TIP3    H272435   4.305   5.186   4.592 -0.6077 -0.3018 -0.5028
16982TIP3   OH272436   3.756   0.315   4.962 -0.0322  0.0823  0.1572
16982TIP3    H172437   3.739   0.370   5.038  2.4030  0.4130  0.5306
16982TIP3    H272438   3.702   0.354   4.892 -0.8282  0.9334  1.2079
16983TIP3   OH272439   4.994   0.046   0.951  0.1768  0.0408  0.1823
16983TIP3    H172440   4.943  -0.033   0.969 -0.8615  1.0249  1.8650
16983TIP3    H272441   4.984   0.060   0.857 -3.4133  0.6215  0.5165
16984TIP3   OH272442   2.763   3.118   5.089 -0.4768  0.3770  0.1633
16984TIP3    H172443   2.798   3.029   5.093 -0.9320  0.2232  1.0799
16984TIP3    H272444   2.822   3.164   5.031 -0.0267 -0.4361 -0.0458
16985TIP3   OH272445   5.546   5.449  14.042  0.2687 -0.5429 -0.2089
16985TIP3    H172446   5.568   5.483  14.128 -1.4572 -0.4692  0.2464
16985TIP3    H272447   5.477   5.508  14.010 -1.1235 -2.1830 -0.4062
16986TIP3   OH272448   4.193   3.419   4.355  0.1677 -0.0169 -0.1443
16986TIP3    H172449   4.280   3.450   4.331  0.0018 -0.1304 -0.9229
16986TIP3    H272450   4.189   3.329   4.322 -0.8727  0.5794 -1.7683
16987TIP3   OH272451   1.057   1.188  11.485  0.4499 -0.3232  0.2540
16987TIP3    H172452   1.062   1.280  11.460 -1.6598 -0.6352 -1.6431
16987TIP3    H272453   1.107   1.142  11.417 -0.1239 -0.7167  0.0944
16988TIP3   OH272454   5.419   1.738   4.146 -0.3427  0.3418 -0.2224
16988TIP3    H172455   5.504   1.696   4.159  0.2047  0.9251 -1.6844
16988TIP3    H272456   5.425   1.819   4.197 -0.5710 -0.2741  0.8128
16989TIP3   OH272457   5.019   2.323  11.069 -0.1270  0.7604 -0.4665
16989TIP3    H172458   4.949   2.273  11.029  0.6829 -0.2556 -0.6415
16989TIP3    H272459   5.099   2.292  11.026  1.0421 -1.7159  3.0580
16990TIP3   OH272460   1.334   4.569   6.215  0.2043 -0.2073  0.2619
16990TIP3    H172461   1.289   4.511   6.276  1.7254  0.4846  2.1431
16990TIP3    H272462   1.339   4.653   6.260 -0.9160  1.1230 -1.9161
16991TIP3   OH272463   6.349   3.894  14.853  0.7018 -0.2229 -0.7492
16991TIP3    H172464   6.395   3.922  14.933  1.5600 -1.0315 -0.9385
16991TIP3    H272465   6.287   3.965  14.835  0.6190  0.0630  0.5302
16992TIP3   OH272466   5.492   3.428  14.840  0.7685  0.0370 -0.1838
16992TIP3    H172467   5.439   3.349  14.830  0.8378 -0.0564  0.1705
16992TIP3    H272468   5.580   3.396  14.860  0.9425  0.1935 -0.6804
16993TIP3   OH272469   0.113   5.438   5.699  1.0340 -0.1531 -0.4826
16993TIP3    H172470   0.069   5.522   5.690  0.3826 -0.6993 -3.3091
16993TIP3    H272471   0.053   5.385   5.752  1.0410  0.8600  0.5614
16994TIP3   OH272472   0.523   3.548  11.095  0.5626 -0.1064 -0.3909
16994TIP3    H172473   0.540   3.612  11.026  3.2429 -2.0255 -1.6770
16994TIP3    H272474   0.461   3.486  11.055 -0.4505  0.5329  0.1440
16995TIP3   OH272475   1.976   1.304  11.329  0.7009  0.3985 -0.1367
16995TIP3    H172476   2.014   1.392  11.337  0.7308  0.5031 -1.1762
16995TIP3    H272477   1.901   1.316  11.270 -0.5074  0.0535  1.2866
16996TIP3   OH272478   3.297   3.246  13.591 -0.0344 -0.0855 -0.5304
16996TIP3    H172479   3.212   3.288  13.583  0.1646  0.4156 -0.0896
16996TIP3    H272480   3.341   3.263  13.508 -0.3717 -0.3821 -0.7747
16997TIP3   OH272481   3.915   2.490   1.083  0.3706  0.0760  0.1143
16997TIP3    H172482   3.824   2.463   1.097  0.0072  1.6547  1.0522
16997TIP3    H272483   3.966   2.432   1.140 -0.4248  1.4695  2.3798
16998TIP3   OH272484   1.442   0.606   3.927  0.1970 -0.7064 -0.5777
16998TIP3    H172485   1.372   0.670   3.938  0.2011 -0.7995  0.0339
16998TIP3    H272486   1.447   0.561   4.011  0.2769 -1.4349 -0.9664
16999TIP3   OH272487   5.989   2.080   4.490 -0.3198 -0.0164 -0.4074
16999TIP3    H172488   5.977   2.102   4.582 -0.1058  0.2880 -0.4502
16999TIP3    H272489   5.906   2.039   4.464 -0.1167 -0.7880  0.1097
17000TIP3   OH272490   0.133   0.406  12.105 -0.6335 -0.3363  0.1055
17000TIP3    H172491   0.155   0.323  12.064  1.7601 -1.2197  2.8026
17000TIP3    H272492   0.206   0.464  12.083 -0.9055  0.1718  0.5107
17001TIP3   OH272493   0.305   4.273  12.619  0.2352 -0.3878 -0.1151
17001TIP3    H172494   0.397   4.289  12.639  0.0638  0.3323  0.1212
17001TIP3    H272495   0.285   4.191  12.664  0.3162  0.3330  1.2887
17002TIP3   OH272496   3.059   5.241   1.495  0.8770 -0.4506  0.5499
17002TIP3    H172497   3.039   5.212   1.405  0.9372 -1.6983  0.9270
17002TIP3    H272498   2.973   5.261   1.532  0.7381 -1.0420  0.5687
17003TIP3   OH272499   0.566   4.358  12.663 -0.1013 -0.1941  0.3645
17003TIP3    H172500   0.607   4.286  12.712  0.7388  0.3948  0.5560
17003TIP3    H272501   0.621   4.434  12.683 -1.1342  0.5620  0.3844
17004TIP3   OH272502   5.777   5.423   1.991 -0.1269 -0.2251 -0.4314
17004TIP3    H172503   5.705   5.433   1.928  0.2057 -0.4798 -0.8560
17004TIP3    H272504   5.831   5.353   1.955  0.1294 -0.2979  0.0859
17005TIP3   OH272505   0.287   0.705   5.261 -0.8564 -0.2586 -0.1329
17005TIP3    H172506   0.342   0.768   5.306  0.6822 -0.5893 -1.4616
17005TIP3    H272507   0.297   0.624   5.311  0.5499 -0.5304 -0.8155
17006TIP3   OH272508   3.612   4.322  12.755  0.4334  0.0908  0.2960
17006TIP3    H172509   3.618   4.388  12.687  2.9153 -0.7483 -0.4054
17006TIP3    H272510   3.524   4.286  12.746 -0.4799  2.2829 -0.2007
17007TIP3   OH272511   4.909   4.383  11.086 -0.0633  0.3992  0.3429
17007TIP3    H172512   4.918   4.319  11.015 -0.2004  0.1583  0.5426
17007TIP3    H272513   4.835   4.438  11.060  0.5888  1.0217 -0.2490
17008TIP3   OH272514   5.211   5.397   1.360 -0.8439  0.1830 -0.1998
17008TIP3    H172515   5.181   5.486   1.341 -0.5497  0.1099 -1.0329
17008TIP3    H272516   5.236   5.362   1.275  0.0828 -0.3130  0.2733
17009TIP3   OH272517   2.307   0.045   0.516  0.2567 -0.5073 -0.2765
17009TIP3    H172518   2.282   0.110   0.450  1.9975  0.3233 -0.1573
17009TIP3    H272519   2.281  -0.039   0.478 -0.7086  0.1318 -1.0671
17010TIP3   OH272520   2.672   1.828  15.795 -0.1126 -0.0353 -0.5456
17010TIP3    H172521   2.628   1.853  15.876  0.7645 -0.7303  0.1698
17010TIP3    H272522   2.612   1.768  15.752 -0.6356  0.4304 -0.4749
17011TIP3   OH272523   6.420   3.049   1.465  0.2215 -0.4356  0.3919
17011TIP3    H172524   6.447   3.125   1.413  1.0703 -0.1212  1.2751
17011TIP3    H272525   6.338   3.076   1.506  0.3943 -0.0851  0.5100
17012TIP3   OH272526   4.153   6.059  11.513 -0.3680  0.2666 -0.1546
17012TIP3    H172527   4.062   6.049  11.544  0.0059 -0.6871  0.7113
17012TIP3    H272528   4.204   6.066  11.594  0.1481  2.9423 -0.6371
17013TIP3   OH272529   2.810   2.573   5.002  0.0356 -0.3987 -0.1485
17013TIP3    H172530   2.812   2.496   4.947 -1.5684 -0.1503 -0.5779
17013TIP3    H272531   2.719   2.600   5.004  0.7250  2.4313 -1.3522
17014TIP3   OH272532   1.662   2.820  16.466 -0.1964  0.0853 -0.5579
17014TIP3    H172533   1.704   2.734  16.465 -0.8884 -0.2742  0.2857
17014TIP3    H272534   1.570   2.802  16.447 -0.4916  0.5391  0.3891
17015TIP3   OH272535   5.452   2.990  17.299 -0.3554 -0.6197  0.1900
17015TIP3    H172536   5.534   3.034  17.321 -0.8884  1.1478 -1.1540
17015TIP3    H272537   5.479   2.906  17.263  0.8489 -0.1598 -0.0253
17016TIP3   OH272538   3.121   0.727   0.894  0.3208  0.1163 -0.4034
17016TIP3    H172539   3.202   0.766   0.861  1.4846 -1.9251 -0.1416
17016TIP3    H272540   3.126   0.738   0.989  0.1475  0.2152 -0.4042
17017TIP3   OH272541   1.509   6.135  11.293  0.6567  0.5546  0.0400
17017TIP3    H172542   1.497   6.146  11.387  1.2181  0.2761  0.1538
17017TIP3    H272543   1.559   6.053  11.285 -0.1107  0.1269 -0.5459
17018TIP3   OH272544   5.890   5.486  15.467  0.6968 -0.2580  0.7688
17018TIP3    H172545   5.910   5.468  15.375 -0.6588  0.2792  0.3433
17018TIP3    H272546   5.917   5.407  15.513  0.6272 -0.8638 -0.2002
17019TIP3   OH272547   2.905   5.892  15.273  0.2109  0.1870 -0.1597
17019TIP3    H172548   2.920   5.829  15.202 -3.0040 -0.2890 -0.5823
17019TIP3    H272549   2.928   5.844  15.352  1.1879 -0.2639 -0.6983
17020TIP3   OH272550   6.075   3.639   6.617  0.3398  0.3290 -0.0038
17020TIP3    H172551   6.048   3.728   6.640 -1.4263 -0.2575  0.3553
17020TIP3    H272552   6.125   3.650   6.536  2.0771  1.8454  1.1882
17021TIP3   OH272553   5.733   3.552  11.829  0.2375  0.1711  0.3864
17021TIP3    H172554   5.726   3.564  11.924  0.0335  2.4158  0.1243
17021TIP3    H272555   5.675   3.618  11.792  1.7221  0.5658 -1.3408
17022TIP3   OH272556   0.636   0.824  12.231  0.1608  0.4733 -0.5555
17022TIP3    H172557   0.722   0.838  12.271  1.0664 -1.5208 -1.6235
17022TIP3    H272558   0.574   0.835  12.302  1.4145  0.5937  0.5677
17023TIP3   OH272559   3.469   6.559  17.172  0.4916 -0.6433 -0.5466
17023TIP3    H172560   3.499   6.487  17.116 -1.1547 -2.5809  0.8661
17023TIP3    H272561   3.378   6.574  17.145  0.2410 -0.3890  0.3893
17024TIP3   OH272562   2.003   6.605   1.561 -0.7438  0.1788  0.1910
17024TIP3    H172563   2.092   6.573   1.544 -0.3454  0.9526  0.7530
17024TIP3    H272564   2.014   6.670   1.631 -1.6700  0.7483 -0.1780
17025TIP3   OH272565   2.922   5.041  11.586  0.1162  0.3439  0.7385
17025TIP3    H172566   2.878   5.122  11.561  0.7328  0.9640  1.6273
17025TIP3    H272567   2.951   5.056  11.676  1.0785 -0.5069  0.5849
17026TIP3   OH272568   4.258   3.087  12.499  0.6428  0.3372 -0.6197
17026TIP3    H172569   4.179   3.139  12.489  1.2216  1.6375  1.0253
17026TIP3    H272570   4.328   3.152  12.512  1.1982 -0.7636  2.9316
17027TIP3   OH272571   1.006   0.997   6.487  0.1767  0.1087  0.6532
17027TIP3    H172572   1.046   1.079   6.518  1.1258  0.2432 -0.8533
17027TIP3    H272573   1.036   0.931   6.549 -0.8360  0.9062  2.0692
17028TIP3   OH272574   3.584   5.486   4.178  0.5143 -0.5663  0.0398
17028TIP3    H172575   3.623   5.483   4.265  0.7209  0.4244 -0.0132
17028TIP3    H272576   3.568   5.394   4.156  0.7854 -0.8457  0.9714
17029TIP3   OH272577   4.695   6.121  13.420 -0.3921 -0.1600 -0.0808
17029TIP3    H172578   4.662   6.071  13.345 -1.3988 -0.5585  0.6070
17029TIP3    H272579   4.625   6.115  13.485  0.5554 -0.0003  0.9744
17030TIP3   OH272580   2.079   0.717  11.930  0.1539 -0.2161 -0.4418
17030TIP3    H172581   2.063   0.774  12.005 -0.0679 -0.8828  0.0346
17030TIP3    H272582   1.993   0.706  11.889 -0.5531 -2.8630  1.4382
17031TIP3   OH272583   1.094   4.044  12.888  0.1541 -0.1954 -0.1416
17031TIP3    H172584   1.179   4.019  12.852 -1.0204  0.1829 -3.5842
17031TIP3    H272585   1.104   4.137  12.911  0.7823 -0.2622 -0.1412
17032TIP3   OH272586   4.633   5.710  13.705 -0.1937 -0.3574 -0.5983
17032TIP3    H172587   4.620   5.719  13.610  1.3764 -1.0996 -0.9186
17032TIP3    H272588   4.644   5.616  13.718 -0.6001 -0.2794  0.3754
17033TIP3   OH272589   6.354   0.070   2.151  0.5453  0.2252  0.3805
17033TIP3    H172590   6.339   0.116   2.068  0.8213 -0.6778 -0.1920
17033TIP3    H272591   6.270   0.029   2.171  0.6598 -0.1308  0.1631
17034TIP3   OH272592   1.231   0.695  12.482 -0.0680  0.2220 -0.2353
17034TIP3    H172593   1.214   0.723  12.572  1.4322  1.3212 -0.2560
17034TIP3    H272594   1.327   0.698  12.474 -0.1947  0.4057 -1.9489
17035TIP3   OH272595   1.450   6.530   5.518  0.1256 -0.2400  0.3620
17035TIP3    H172596   1.526   6.495   5.472  0.7596  0.2382  1.0271
17035TIP3    H272597   1.471   6.621   5.535 -0.8814  0.0771 -0.0166
17036TIP3   OH272598   0.948   6.085  14.639 -0.1188  0.1959 -0.1676
17036TIP3    H172599   0.922   6.015  14.699  0.5154  1.4270  1.6152
17036TIP3    H272600   1.043   6.088  14.645 -0.1772  1.8205  0.5580
17037TIP3   OH272601   6.012   1.841   5.759  0.0101  0.3199  0.4937
17037TIP3    H172602   6.053   1.775   5.703  0.5196  2.1812 -1.5130
17037TIP3    H272603   5.986   1.794   5.838 -1.4456 -2.6917 -1.5620
17038TIP3   OH272604   5.724   1.165   3.643  1.0809 -0.0820 -0.1867
17038TIP3    H172605   5.630   1.176   3.652  0.5943 -0.6652 -3.3827
17038TIP3    H272606   5.748   1.104   3.713 -0.4253  1.7305  2.0832
17039TIP3   OH272607   1.397   4.345  17.268  0.4395 -0.2725  0.1582
17039TIP3    H172608   1.451   4.279  17.311  0.4881 -0.0119  0.4991
17039TIP3    H272609   1.458   4.396  17.216  0.3045 -0.9434 -0.6859
17040TIP3   OH272610   0.863   6.286   5.256  0.0006 -0.0265  0.1199
17040TIP3    H172611   0.859   6.330   5.171  2.4882 -0.1940 -0.1685
17040TIP3    H272612   0.941   6.231   5.250 -1.0315 -1.7952  1.7379
17041TIP3   OH272613   6.624   1.246  10.649 -0.1394 -0.6274 -0.7013
17041TIP3    H172614   6.537   1.236  10.688  0.2240 -2.7768 -0.2742
17041TIP3    H272615   6.676   1.289  10.717 -0.8077  0.5072 -0.8895
17042TIP3   OH272616   0.255   1.174   1.239  0.3045 -0.0530  0.1778
17042TIP3    H172617   0.192   1.180   1.311  1.2144  1.1495  0.9102
17042TIP3    H272618   0.240   1.252   1.187 -0.4585 -0.9961 -1.0731
17043TIP3   OH272619   5.637   5.998  15.212  0.0272  0.0434 -0.1018
17043TIP3    H172620   5.710   6.050  15.178  1.9169 -2.2139  0.2714
17043TIP3    H272621   5.657   5.987  15.305 -2.2669  1.5936  0.6783
17044TIP3   OH272622   3.682   0.860  11.955  0.0506  0.0432 -0.8433
17044TIP3    H172623   3.741   0.932  11.934  1.0828 -0.0533  1.4800
17044TIP3    H272624   3.599   0.884  11.913  0.2825  2.7257  0.0436
17045TIP3   OH272625   1.050   1.595   4.976 -0.1144 -0.2546 -0.1175
17045TIP3    H172626   1.062   1.659   5.046 -0.9000 -0.6727  0.4305
17045TIP3    H272627   1.126   1.537   4.983  0.0463 -0.0179  0.0971
17046TIP3   OH272628   2.405   1.573  16.707 -0.1808 -0.1174 -0.3833
17046TIP3    H172629   2.438   1.663  16.703 -2.8464  0.9765  0.2153
17046TIP3    H272630   2.380   1.553  16.617 -0.6796  0.2017 -0.3186
17047TIP3   OH272631   0.981   6.074   6.170  0.0270  0.1487  0.2373
17047TIP3    H172632   1.033   6.058   6.092 -0.5616  0.4277 -0.2268
17047TIP3    H272633   1.036   6.045   6.243  0.5027 -0.2983 -0.2938
17048TIP3   OH272634   5.028   6.179  12.474  0.0746  0.8173 -0.2569
17048TIP3    H172635   4.947   6.167  12.424  0.1908  0.8921 -0.4629
17048TIP3    H272636   4.999   6.219  12.556 -0.2473 -0.3579  0.2115
17049TIP3   OH272637   2.772   1.628  14.144  0.1098  0.0207 -0.2943
17049TIP3    H172638   2.696   1.684  14.133  1.1326  2.3015  2.8336
17049TIP3    H272639   2.736   1.542  14.165 -1.7416  1.3515  2.5462
17050TIP3   OH272640   2.626   1.298  13.462  0.1010 -0.1837  0.3909
17050TIP3    H172641   2.673   1.301  13.378  1.0460  1.0255  0.9297
17050TIP3    H272642   2.674   1.234  13.514 -0.0990 -0.4583  0.2428
17051TIP3   OH272643   0.738   4.520   0.222 -0.1747  0.1379 -0.1017
17051TIP3    H172644   0.660   4.492   0.270 -0.1760 -0.7209 -0.5900
17051TIP3    H272645   0.704   4.579   0.154 -0.2374  0.8772  0.5624
17052TIP3   OH272646   1.190   5.336  13.823 -0.1608  0.5257 -0.6042
17052TIP3    H172647   1.136   5.314  13.898  0.7564 -0.8898 -0.3242
17052TIP3    H272648   1.268   5.378  13.861  0.1603  0.0966 -0.7787
17053TIP3   OH272649   4.465   2.728   2.030  0.0777 -0.0293  0.0735
17053TIP3    H172650   4.551   2.747   1.993  0.0810 -1.3830 -0.6536
17053TIP3    H272651   4.410   2.800   1.999  0.4955 -0.1988 -1.1351
17054TIP3   OH272652   0.880   2.439   4.235 -0.0855  0.0392 -0.1228
17054TIP3    H172653   0.906   2.531   4.230 -1.6948  0.5723  0.6598
17054TIP3    H272654   0.941   2.401   4.298  0.6566  0.5413 -0.5273
17055TIP3   OH272655   5.792   3.723  14.529  0.0979 -0.5049  0.2950
17055TIP3    H172656   5.831   3.796  14.576 -0.3014  0.3960 -0.7493
17055TIP3    H272657   5.841   3.717  14.447 -0.2631 -1.0287  0.1090
17056TIP3   OH272658   1.485   2.652  12.474  0.3537 -0.1751  0.5507
17056TIP3    H172659   1.549   2.671  12.405  1.1562 -1.1061  1.0019
17056TIP3    H272660   1.519   2.697  12.551  0.4933 -0.6958  0.7998
17057TIP3   OH272661   4.239   0.812  11.722 -0.0980  0.0421 -0.0787
17057TIP3    H172662   4.279   0.894  11.694 -2.0052  0.8961 -0.4718
17057TIP3    H272663   4.214   0.768  11.640  0.6652 -0.8228  0.1361
17058TIP3   OH272664   3.916   0.074  11.406  0.0510  0.0757 -0.1527
17058TIP3    H172665   3.853   0.123  11.458  0.4342  0.4251 -0.0066
17058TIP3    H272666   3.959   0.141  11.353 -0.7032 -0.3280 -1.3252
17059TIP3   OH272667   2.018   4.656   2.100  0.1851 -0.7107 -0.0435
17059TIP3    H172668   2.050   4.568   2.117  1.5608 -0.0690  0.9103
17059TIP3    H272669   2.020   4.699   2.185 -0.4735  0.2434 -0.4904
17060TIP3   OH272670   3.143   5.587   4.862  0.6920  0.8030 -0.3508
17060TIP3    H172671   3.075   5.595   4.796  0.0057  1.2423  0.3878
17060TIP3    H272672   3.212   5.536   4.820 -0.1339  0.2716 -1.0763
17061TIP3   OH272673   5.408   2.170   3.757 -0.2112  0.3626  0.2517
17061TIP3    H172674   5.448   2.110   3.694  0.9218 -0.2264  1.4805
17061TIP3    H272675   5.435   2.257   3.729  0.1186  0.1233 -0.1777
17062TIP3   OH272676   0.116   2.492  16.906  0.3200 -0.6100 -0.0032
17062TIP3    H172677   0.157   2.570  16.944  0.2723 -0.2691 -0.6419
17062TIP3    H272678   0.189   2.442  16.870  0.1935  0.0114 -1.1667
17063TIP3   OH272679   0.902   6.303  13.668  0.1040  0.5616  0.3894
17063TIP3    H172680   0.912   6.290  13.573  0.6601  2.2252  0.1729
17063TIP3    H272681   0.808   6.295  13.683  0.1344 -0.9514 -0.0771
17064TIP3   OH272682   1.042   4.404   1.239 -0.0492 -0.2966 -0.0634
17064TIP3    H172683   1.025   4.313   1.213 -0.6644  0.2822 -1.8443
17064TIP3    H272684   1.071   4.446   1.158 -0.3762  1.2345  0.5969
17065TIP3   OH272685   0.119   3.645   5.722 -0.3333  0.0731  0.4203
17065TIP3    H172686   0.210   3.670   5.734 -0.5259  0.4818  1.0662
17065TIP3    H272687   0.083   3.712   5.663 -0.6928  1.0208  1.6707
17066TIP3   OH272688   2.821   5.274  16.266  0.1593 -0.0803 -0.3212
17066TIP3    H172689   2.874   5.201  16.233  0.5736 -0.0969  0.3700
17066TIP3    H272690   2.885   5.333  16.306 -0.3023  0.1080  0.1324
17067TIP3   OH272691   5.131   4.979   6.531  0.3732 -0.1326  0.4081
17067TIP3    H172692   5.055   4.983   6.472  0.8209  2.5960 -0.1282
17067TIP3    H272693   5.205   5.007   6.476  1.1220  0.7098  1.7997
17068TIP3   OH272694   4.639   5.095   3.187  0.2454 -0.3290 -0.0459
17068TIP3    H172695   4.621   5.187   3.167  2.6908  0.4490  0.9607
17068TIP3    H272696   4.687   5.063   3.110 -0.1024 -0.6067 -0.1493
17069TIP3   OH272697   5.184   3.770   1.767  0.1151 -0.1030  0.3237
17069TIP3    H172698   5.219   3.788   1.680 -0.6391  0.5890  0.1516
17069TIP3    H272699   5.246   3.810   1.828  0.5297 -0.4051  0.1026
17070TIP3   OH272700   5.038   6.496   4.492 -0.2129 -0.2364  0.3053
17070TIP3    H172701   5.016   6.421   4.437 -1.4844  0.3751 -0.0729
17070TIP3    H272702   4.959   6.509   4.545 -0.6591  1.7876 -0.7575
17071TIP3   OH272703   2.140   5.483  11.804 -0.6205 -0.1814  0.0670
17071TIP3    H172704   2.060   5.430  11.796 -0.4806 -0.1486 -2.3125
17071TIP3    H272705   2.134   5.523  11.891 -3.4289  0.1799 -0.1979
17072TIP3   OH272706   2.538   0.871   3.383 -0.2473 -0.1834 -0.0406
17072TIP3    H172707   2.533   0.806   3.313 -0.8063  0.9240 -1.0826
17072TIP3    H272708   2.631   0.888   3.395 -0.1145 -0.9360  0.0249
17073TIP3   OH272709   5.900   3.799  12.527 -0.2774  0.0298  0.5873
17073TIP3    H172710   5.966   3.842  12.473 -1.7779 -0.8393 -2.1019
17073TIP3    H272711   5.931   3.709  12.537 -1.0724 -0.4262 -0.8247
17074TIP3   OH272712   0.662   5.690   3.541  0.2264 -0.0080 -0.0828
17074TIP3    H172713   0.720   5.677   3.466  2.2394 -0.5999  1.4835
17074TIP3    H272714   0.607   5.764   3.517  1.5162  0.4664 -1.7257
17075TIP3   OH272715   0.871   0.642   2.976 -0.2128  0.8173 -0.5382
17075TIP3    H172716   0.818   0.719   2.995  1.1719  1.3328  1.5530
17075TIP3    H272717   0.809   0.569   2.977 -1.0031  1.4643  1.2127
17076TIP3   OH272718   4.320   1.398  13.330 -0.1256  0.2838  0.2794
17076TIP3    H172719   4.230   1.413  13.356  0.1821  2.8642  0.1452
17076TIP3    H272720   4.327   1.303  13.316 -3.1792  0.1639 -1.1591
17077TIP3   OH272721   6.622   0.991   5.107 -0.0104  0.0422 -0.7076
17077TIP3    H172722   6.582   1.028   5.185 -0.5281 -0.2333 -0.8405
17077TIP3    H272723   6.565   0.918   5.083  0.6360 -0.4316 -0.8271
17078TIP3   OH272724   0.963   2.547  15.748 -0.0076  0.7768 -0.0426
17078TIP3    H172725   1.026   2.486  15.786 -0.7963 -0.0026  0.0528
17078TIP3    H272726   0.943   2.511  15.662 -2.3161 -0.5075  0.9503
17079TIP3   OH272727   6.622   2.478   2.657 -0.2316 -0.7661 -0.4140
17079TIP3    H172728   6.556   2.518   2.600 -1.7203 -1.1199  0.9834
17079TIP3    H272729   6.692   2.451   2.597 -1.7250 -1.1618 -2.0822
17080TIP3   OH272730   2.010   6.173  16.159 -0.3418  0.4687  0.4672
17080TIP3    H172731   2.105   6.170  16.151 -0.2775 -1.6584  1.4273
17080TIP3    H272732   1.980   6.214  16.078  1.2531 -1.5062 -1.2211
17081TIP3   OH272733   5.186   1.093   0.441 -0.4870  0.2435 -0.5655
17081TIP3    H172734   5.106   1.047   0.414 -0.8640  0.7476 -0.3324
17081TIP3    H272735   5.231   1.114   0.359 -0.4904 -0.2227 -0.6880
17082TIP3   OH272736   6.647   4.755  16.431 -0.3629 -0.8168 -0.3038
17082TIP3    H172737   6.722   4.701  16.408 -1.3162 -1.9173 -0.9041
17082TIP3    H272738   6.590   4.751  16.355 -2.8092 -3.1356  1.4894
17083TIP3   OH272739   3.102   4.920   2.662  0.1914 -0.1593 -0.4924
17083TIP3    H172740   3.031   4.878   2.711  0.0099  0.0349 -0.5847
17083TIP3    H272741   3.075   5.012   2.656  0.7905  0.0592  0.0811
17084TIP3   OH272742   1.522   2.345  16.988  0.9269  0.5739  0.3042
17084TIP3    H172743   1.443   2.363  16.937 -0.0161 -0.6592  1.2935
17084TIP3    H272744   1.537   2.426  17.037 -1.4145 -0.0614  2.2743
17085TIP3   OH272745   1.234   4.246  16.159 -0.1052  0.5056  0.3940
17085TIP3    H172746   1.288   4.224  16.084 -1.0595 -0.4678 -0.0283
17085TIP3    H272747   1.185   4.166  16.179 -0.3730  0.9426  1.6289
17086TIP3   OH272748   0.432   0.772  12.054 -0.1916 -0.1203  0.1406
17086TIP3    H172749   0.438   0.797  12.146  0.6197 -0.6386  0.2392
17086TIP3    H272750   0.521   0.746  12.030 -0.4499 -0.2624 -0.7135
17087TIP3   OH272751   3.450   4.480  15.837  0.1118 -0.1075  0.0097
17087TIP3    H172752   3.394   4.404  15.851  1.3067 -0.6287  2.5763
17087TIP3    H272753   3.431   4.539  15.910  1.3162  0.6996 -0.2852
17088TIP3   OH272754   2.224   2.069  17.112 -0.2239 -0.5600 -0.2694
17088TIP3    H172755   2.222   2.082  17.207 -2.0636 -0.3823 -0.2952
17088TIP3    H272756   2.158   2.003  17.095  0.9275 -1.4806 -1.3430
17089TIP3   OH272757   0.422   4.690   5.425  0.3000  0.1957 -0.0996
17089TIP3    H172758   0.504   4.688   5.474  0.5495 -0.8991 -0.5452
17089TIP3    H272759   0.366   4.749   5.476  0.8800 -0.1461  0.9774
17090TIP3   OH272760   1.529   1.414   0.896 -0.3104  0.0609 -0.1225
17090TIP3    H172761   1.499   1.342   0.951 -0.0392 -0.2368 -0.3624
17090TIP3    H272762   1.584   1.467   0.953 -0.4331  0.0255  0.0276
17091TIP3   OH272763   6.432   4.073  12.441  0.3065  0.1491  0.3513
17091TIP3    H172764   6.379   3.995  12.425  0.3590  0.1536  0.1518
17091TIP3    H272765   6.521   4.046  12.416  0.8918 -0.6653  3.0283
17092TIP3   OH272766   1.670   1.508   1.647 -0.4328  0.1180  0.0864
17092TIP3    H172767   1.627   1.459   1.716  1.7827 -0.2118  1.3147
17092TIP3    H272768   1.685   1.595   1.685 -3.3436  1.5819 -1.6871
17093TIP3   OH272769   6.477   3.263   3.395  0.3887 -0.4066 -0.0837
17093TIP3    H172770   6.561   3.301   3.371  0.6151 -0.6398  0.3456
17093TIP3    H272771   6.491   3.169   3.390  0.2785 -0.4502  0.4239
17094TIP3   OH272772   1.833   2.545  16.574 -0.0349 -0.3040 -0.1977
17094TIP3    H172773   1.918   2.583  16.595 -0.2587 -0.1294  0.4146
17094TIP3    H272774   1.777   2.567  16.649 -0.3567 -1.2474 -0.1452
17095TIP3   OH272775   4.143   3.464  11.767  0.1288  0.1393 -0.8379
17095TIP3    H172776   4.117   3.416  11.846  0.4468 -0.3283 -1.0115
17095TIP3    H272777   4.062   3.505  11.736 -0.2483 -0.6681 -0.9434
17096TIP3   OH272778   5.740   1.779  12.368 -0.0781  0.1558  0.3730
17096TIP3    H172779   5.677   1.710  12.346  0.1882 -0.1077  0.4264
17096TIP3    H272780   5.745   1.833  12.289 -0.2715  0.1036  0.3236
17097TIP3   OH272781   5.172   1.610   2.857 -0.3698 -0.3191  0.1245
17097TIP3    H172782   5.132   1.548   2.919 -0.4832 -0.1167  0.2530
17097TIP3    H272783   5.106   1.621   2.788  1.0817 -3.3525 -1.9938
17098TIP3   OH272784   6.675   1.435   3.345  0.1538  0.1760 -0.5548
17098TIP3    H172785   6.740   1.464   3.281 -0.5289 -0.9207 -1.7974
17098TIP3    H272786   6.717   1.363   3.391  0.2403  0.2469 -0.5214
17099TIP3   OH272787   2.024   5.684  17.166 -0.2643  0.0755  0.2100
17099TIP3    H172788   2.009   5.606  17.111  0.0309  0.5436 -0.5479
17099TIP3    H272789   2.072   5.744  17.109  0.6512  0.3135  1.1944
17100TIP3   OH272790   6.103   6.793   2.246  0.0407 -0.5608  0.1034
17100TIP3    H172791   6.089   6.797   2.151 -0.3664  2.0218  0.2061
17100TIP3    H272792   6.030   6.739   2.278 -0.8616 -0.0024 -0.9131
17101TIP3   OH272793   3.201   6.649   0.472  0.0619 -0.1291 -0.6980
17101TIP3    H172794   3.240   6.717   0.418  1.5462  0.6355  1.2004
17101TIP3    H272795   3.259   6.642   0.547 -0.3667 -3.1163 -0.5266
17102TIP3   OH272796   5.477   2.029  13.176  0.2296 -0.2014  1.0956
17102TIP3    H172797   5.460   1.937  13.155 -0.7924  0.1383  0.3292
17102TIP3    H272798   5.521   2.064  13.098  0.1619  0.0702  1.1767
17103TIP3   OH272799   6.071   6.649   5.445  0.5748  0.3100  0.0885
17103TIP3    H172800   6.139   6.716   5.453  2.0027 -0.3600 -4.0977
17103TIP3    H272801   6.120   6.567   5.434 -1.0500 -0.7938  0.6478
17104TIP3   OH272802   6.816   2.814  16.774 -0.5776  0.2982 -0.2566
17104TIP3    H172803   6.882   2.794  16.707 -0.5270  0.5487 -0.2827
17104TIP3    H272804   6.864   2.812  16.856 -0.5429  0.4488 -0.2731
17105TIP3   OH272805   4.615   1.063   4.593  0.1229  0.1313 -0.1960
17105TIP3    H172806   4.633   1.156   4.603 -2.1239  0.5492  0.6721
17105TIP3    H272807   4.632   1.025   4.680  1.5940 -0.4067 -0.6957
17106TIP3   OH272808   6.379   3.015  16.806 -0.0809 -0.2618  0.3155
17106TIP3    H172809   6.288   2.988  16.802 -0.0402 -0.5543  1.1947
17106TIP3    H272810   6.411   2.980  16.889  0.8714 -0.2853 -0.0496
17107TIP3   OH272811   1.223   0.882  17.157  0.2727  0.6174 -0.0071
17107TIP3    H172812   1.134   0.908  17.132  0.3947  0.8799 -0.1708
17107TIP3    H272813   1.280   0.929  17.096  0.4773 -0.3193 -0.5592
17108TIP3   OH272814   2.965   5.684   0.330 -0.3664 -0.1276 -0.1607
17108TIP3    H172815   3.036   5.731   0.287  0.2680 -1.2002 -0.3015
17108TIP3    H272816   2.915   5.645   0.258 -0.6566 -0.0094 -0.0253
17109TIP3   OH272817   2.078   3.490  11.757  0.7040 -0.2176 -0.4740
17109TIP3    H172818   2.010   3.424  11.761  1.4683 -0.9870  0.1961
17109TIP3    H272819   2.135   3.462  11.685 -0.5210  1.2967 -2.1377
17110TIP3   OH272820   1.587   5.181  11.987  0.0082 -0.5667  0.7909
17110TIP3    H172821   1.649   5.248  11.957 -1.2388 -0.1178 -0.9580
17110TIP3    H272822   1.641   5.115  12.029  1.5433  0.3789  0.3852
17111TIP3   OH272823   3.890   2.519  14.677  0.2237  0.6531 -0.2269
17111TIP3    H172824   3.936   2.537  14.594  0.6466  0.5524 -0.0171
17111TIP3    H272825   3.943   2.452  14.719  1.0715  2.0194  0.9816
17112TIP3   OH272826   2.588   2.871  13.454 -1.0034  0.1599  0.9060
17112TIP3    H172827   2.576   2.877  13.549 -1.1921 -3.4735  1.2805
17112TIP3    H272828   2.525   2.804  13.427  0.6024 -0.5280 -1.4061
17113TIP3   OH272829   0.429   5.581   5.221 -0.3626 -0.1557 -0.1593
17113TIP3    H172830   0.386   5.571   5.136  1.3820  1.1320 -1.2574
17113TIP3    H272831   0.521   5.561   5.204 -0.2542 -1.7351  1.8692
17114TIP3   OH272832   1.364   5.837   0.829  0.2063  0.4237 -0.2263
17114TIP3    H172833   1.457   5.830   0.808  0.5247  1.8715  0.5630
17114TIP3    H272834   1.362   5.865   0.921 -0.9370  2.0310 -0.6790
17115TIP3   OH272835   2.928   2.471   4.476  0.3239 -0.4132  0.9242
17115TIP3    H172836   2.949   2.530   4.548  1.1668  0.9877 -0.4138
17115TIP3    H272837   3.002   2.409   4.472  0.6085 -0.0691  0.8414
17116TIP3   OH272838   4.699   3.867   2.484  0.6238  0.1260  0.6042
17116TIP3    H172839   4.659   3.816   2.555  1.4856 -0.8857  0.3718
17116TIP3    H272840   4.704   3.956   2.519  0.1345 -0.1633  1.4393
17117TIP3   OH272841   0.803   0.419  14.931 -0.7482  0.7601  0.4284
17117TIP3    H172842   0.806   0.515  14.926  0.8629  0.7337  0.4192
17117TIP3    H272843   0.762   0.401  15.016  0.0458  1.4861  0.9800
17118TIP3   OH272844   3.991   1.262  13.921 -0.0936  0.3027 -0.2250
17118TIP3    H172845   4.029   1.344  13.954  0.5688  0.3838 -1.1151
17118TIP3    H272846   4.045   1.193  13.960 -0.8375  0.2539  0.7624
17119TIP3   OH272847   6.261   4.176  14.654  0.2497  0.0950  0.3433
17119TIP3    H172848   6.227   4.240  14.592  0.5381  0.5943  0.6940
17119TIP3    H272849   6.226   4.202  14.739  1.2176  0.4347  0.6595
17120TIP3   OH272850   3.937   4.259  10.530 -0.2119 -0.0739  0.4135
17120TIP3    H172851   3.908   4.171  10.507  0.5056 -0.4539  0.9498
17120TIP3    H272852   3.864   4.316  10.504 -0.6720 -0.8175  0.0599
17121TIP3   OH272853   4.533   3.156   4.378 -0.1919  0.7891 -0.2147
17121TIP3    H172854   4.626   3.148   4.357 -0.4000  2.5139 -2.1397
17121TIP3    H272855   4.515   3.081   4.435  1.6609 -1.5361 -2.4175
17122TIP3   OH272856   3.815   4.132  12.790  0.0496 -0.2630 -0.4450
17122TIP3    H172857   3.746   4.197  12.779  0.8420  1.3245  2.7351
17122TIP3    H272858   3.895   4.178  12.765  0.3457 -0.8741 -0.6405
17123TIP3   OH272859   1.413   0.785   1.113  0.1492 -0.2738 -0.3037
17123TIP3    H172860   1.412   0.879   1.096 -2.2072  0.4688  2.8403
17123TIP3    H272861   1.323   0.756   1.094  0.6503 -1.7485 -0.5713
17124TIP3   OH272862   2.649   4.453  13.129  0.9693  0.2196  0.2750
17124TIP3    H172863   2.568   4.440  13.079  1.8437  0.1209 -1.1521
17124TIP3    H272864   2.632   4.411  13.214 -0.5448  0.3962  0.0869
17125TIP3   OH272865   0.728   0.187  15.858  0.4116  0.4847  0.4575
17125TIP3    H172866   0.659   0.189  15.925 -0.8666  1.6807 -0.8142
17125TIP3    H272867   0.702   0.115  15.800  1.5339 -0.5725  1.2375
17126TIP3   OH272868   1.426   2.411  14.150 -0.1364  0.1214 -0.0192
17126TIP3    H172869   1.394   2.344  14.088  0.4094  0.1388 -0.3276
17126TIP3    H272870   1.350   2.430  14.205 -0.5034 -0.2357 -0.3855
17127TIP3   OH272871   1.647   0.538  16.835  0.2450  0.2108 -0.3427
17127TIP3    H172872   1.652   0.467  16.770 -0.0579  0.9743 -1.2106
17127TIP3    H272873   1.722   0.521  16.893  1.6563  0.5616 -1.9732
17128TIP3   OH272874   4.356   0.138   5.048  0.2494 -0.3580 -0.0406
17128TIP3    H172875   4.384   0.049   5.030  1.4427 -0.0144  0.0008
17128TIP3    H272876   4.347   0.178   4.961  2.9589  0.3983 -0.0726
17129TIP3   OH272877   1.053   3.769   4.627 -0.3878  0.2505 -0.0916
17129TIP3    H172878   0.990   3.730   4.566  1.9127 -1.8925 -1.2954
17129TIP3    H272879   1.067   3.701   4.693 -0.4342  1.3027  1.0370
17130TIP3   OH272880   5.891   5.064  11.557  0.3223  0.1801 -0.5514
17130TIP3    H172881   5.845   5.064  11.641 -0.0517  0.2944 -0.7537
17130TIP3    H272882   5.835   5.114  11.498 -0.2153 -1.2308 -1.3032
17131TIP3   OH272883   6.572   5.197  15.188 -0.3617  0.1794  0.4376
17131TIP3    H172884   6.570   5.274  15.245  0.5864 -0.0955  0.8544
17131TIP3    H272885   6.540   5.230  15.104 -1.4301  0.6696  1.0082
17132TIP3   OH272886   2.273   0.467   3.968 -0.4100  0.5001  0.0955
17132TIP3    H172887   2.228   0.384   3.984  3.0442 -1.8762 -1.2722
17132TIP3    H272888   2.228   0.504   3.892 -2.1321  0.0379  0.8438
17133TIP3   OH272889   3.861   4.244  14.621 -1.0052 -0.1987 -0.4868
17133TIP3    H172890   3.775   4.281  14.602 -0.7934  0.3165 -0.4403
17133TIP3    H272891   3.899   4.228  14.535 -1.7902 -1.9713 -0.5507
17134TIP3   OH272892   5.359   3.984   5.817  0.2442  0.4123 -0.1041
17134TIP3    H172893   5.383   3.994   5.725  0.2823  1.8485  0.0419
17134TIP3    H272894   5.390   3.896   5.840 -1.0982 -0.5887 -1.8432
17135TIP3   OH272895   5.320   0.726  13.915 -0.2308 -0.6266  0.3785
17135TIP3    H172896   5.366   0.720  13.831  0.8779 -1.4241  1.0088
17135TIP3    H272897   5.386   0.759  13.975 -1.0453  0.0280  0.9226
17136TIP3   OH272898   5.320   4.778  13.633  0.0190  0.1206 -0.5625
17136TIP3    H172899   5.400   4.828  13.649  0.2585 -0.7590  1.2711
17136TIP3    H272900   5.249   4.840  13.651  0.2925  0.4164 -0.4906
17137TIP3   OH272901   6.636   3.781  15.486 -0.1807 -0.1136 -1.3269
17137TIP3    H172902   6.710   3.833  15.454 -0.4908 -0.7859 -3.2830
17137TIP3    H272903   6.568   3.846  15.504 -0.3303  0.2782 -3.0864
17138TIP3   OH272904   0.968   1.167  14.847 -0.1620 -0.2586 -0.3585
17138TIP3    H172905   0.898   1.219  14.806  0.1182 -0.5104 -1.1826
17138TIP3    H272906   1.032   1.154  14.777 -0.9689 -3.1174 -0.6526
17139TIP3   OH272907   3.113   0.354  17.148 -0.3761 -0.0670 -0.0879
17139TIP3    H172908   3.140   0.372  17.057  1.2930 -1.6213  0.0393
17139TIP3    H272909   3.073   0.268  17.144  1.5323 -1.0792  0.8990
17140TIP3   OH272910   3.674   1.959   3.653  0.6480  0.0940  0.4045
17140TIP3    H172911   3.753   1.933   3.605  0.7560 -0.5307  0.9077
17140TIP3    H272912   3.633   2.025   3.597  1.9643  1.0461  0.5304
17141TIP3   OH272913   3.045   0.066   6.640  0.0764 -0.5034 -0.6424
17141TIP3    H172914   3.072  -0.010   6.588 -0.2604 -0.8660 -0.2933
17141TIP3    H272915   3.127   0.113   6.657  0.3284 -0.9378 -0.6254
17142TIP3   OH272916   2.093   3.900   5.044  0.3092 -0.0461 -0.3051
17142TIP3    H172917   2.100   3.807   5.065 -1.1201 -0.5253 -1.7989
17142TIP3    H272918   2.172   3.919   4.993  0.8242 -0.3094  0.3746
17143TIP3   OH272919   6.473   4.107  16.941 -0.1367 -0.2510  0.2759
17143TIP3    H172920   6.388   4.082  16.978 -0.1518  1.9311  1.9121
17143TIP3    H272921   6.517   4.154  17.011  1.4031  0.8900 -1.3578
17144TIP3   OH272922   6.058   0.809  13.979  0.1066 -0.2382  0.4835
17144TIP3    H172923   6.032   0.852  13.898  0.1736  0.5463  0.8630
17144TIP3    H272924   6.033   0.718  13.968  0.7432 -0.2895 -0.6868
17145TIP3   OH272925   0.400   0.696  10.441 -1.0126 -0.1005  0.6091
17145TIP3    H172926   0.469   0.634  10.463 -0.7580 -0.5013 -1.1039
17145TIP3    H272927   0.320   0.657  10.478 -0.6398 -0.7282  0.7761
17146TIP3   OH272928   2.851   2.702  14.874  0.2301  0.5440 -0.2208
17146TIP3    H172929   2.867   2.609  14.858 -2.1835  0.2447 -1.2365
17146TIP3    H272930   2.817   2.705  14.964 -0.9227  0.2487 -0.6314
17147TIP3   OH272931   3.160   3.861  10.455 -0.0882 -0.3782 -0.7506
17147TIP3    H172932   3.247   3.832  10.481 -0.9863 -1.1400  1.7106
17147TIP3    H272933   3.114   3.781  10.431 -1.4923 -0.7529  2.6375
17148TIP3   OH272934   5.156   0.159   4.141 -0.0471 -0.7187 -0.1892
17148TIP3    H172935   5.248   0.149   4.116  0.5082 -2.0635  2.1703
17148TIP3    H272936   5.159   0.201   4.227 -1.6911 -0.1687 -0.3649
17149TIP3   OH272937   0.131   1.485  14.727  0.0692 -0.6992  1.0706
17149TIP3    H172938   0.226   1.478  14.741  0.0992 -0.4429  0.9851
17149TIP3    H272939   0.113   1.420  14.658  0.2828 -0.2868  0.6202
17150TIP3   OH272940   3.367   1.630   5.890  0.3781  0.6141  0.5281
17150TIP3    H172941   3.358   1.725   5.894 -0.8888  0.5329 -0.0392
17150TIP3    H272942   3.295   1.597   5.945  1.6854 -0.0107  1.9365
17151TIP3   OH272943   0.578   1.683  16.571 -0.5180  0.0030 -0.0373
17151TIP3    H172944   0.572   1.724  16.484 -2.3927  0.8613  0.4587
17151TIP3    H272945   0.564   1.590  16.554 -0.2534  0.0781 -0.7124
17152TIP3   OH272946   6.481   1.836  13.055  0.7650  0.1174  0.5441
17152TIP3    H172947   6.448   1.925  13.068  0.9101 -0.0393  2.1970
17152TIP3    H272948   6.403   1.781  13.062  0.9039 -0.0051  1.1056
17153TIP3   OH272949   3.297   2.220  14.621 -0.1220 -0.5756 -0.7292
17153TIP3    H172950   3.253   2.303  14.600 -2.1145 -1.5767 -0.8270
17153TIP3    H272951   3.383   2.227  14.580 -0.5125  1.1576 -1.3532
17154TIP3   OH272952   3.811   5.157   3.587 -0.9176  0.1111  0.4448
17154TIP3    H172953   3.831   5.203   3.669 -0.5873  0.9807 -0.1159
17154TIP3    H272954   3.896   5.137   3.549 -1.0525  1.3485 -0.5758
17155TIP3   OH272955   1.741   0.589   0.611  0.2361 -0.4683 -0.6760
17155TIP3    H172956   1.716   0.498   0.628 -0.2736 -0.6152 -2.1135
17155TIP3    H272957   1.680   0.641   0.663 -0.3735 -0.9274 -0.9260
17156TIP3   OH272958   6.666   6.009  11.729  0.3244  0.3296 -0.6432
17156TIP3    H172959   6.594   5.962  11.771  0.4400  0.5898 -0.1552
17156TIP3    H272960   6.745   5.972  11.768  0.4607  0.0161 -1.2075
17157TIP3   OH272961   6.477   5.081   3.966  0.2181 -0.0734 -0.3127
17157TIP3    H172962   6.416   5.151   3.991 -0.4424 -1.3397  1.8952
17157TIP3    H272963   6.563   5.115   3.990  0.0666  0.5221 -0.5771
17158TIP3   OH272964   2.905   3.657  12.493  0.4798  0.7045 -0.4075
17158TIP3    H172965   2.906   3.562  12.478  1.4401  0.7524 -0.6537
17158TIP3    H272966   2.815   3.675  12.521  0.3783 -0.3286 -0.0308
17159TIP3   OH272967   4.399   6.041  15.776  0.8341  0.0907  0.1924
17159TIP3    H172968   4.489   6.049  15.744  0.5848  0.7854 -0.3663
17159TIP3    H272969   4.391   6.111  15.841 -0.0323  1.7145 -1.5499
17160TIP3   OH272970   4.974   5.858   2.977 -0.1833 -0.1553 -0.5285
17160TIP3    H172971   4.949   5.816   2.895 -0.0807 -0.8357 -0.2143
17160TIP3    H272972   4.983   5.951   2.954  2.0148 -0.6234 -1.8146
17161TIP3   OH272973   0.975   5.371  16.531 -0.3063 -0.3601  0.2227
17161TIP3    H172974   1.068   5.359  16.545  0.0757  2.4900  0.6658
17161TIP3    H272975   0.935   5.290  16.563  1.8932 -1.1439  1.1402
17162TIP3   OH272976   2.521   3.100  14.113  0.1783 -0.1130  0.4236
17162TIP3    H172977   2.498   3.038  14.045 -1.7700  0.1191  0.8094
17162TIP3    H272978   2.613   3.082  14.133  0.3131 -1.2508 -1.1125
17163TIP3   OH272979   1.477   3.754  11.592  0.3131 -0.9440 -0.4610
17163TIP3    H172980   1.478   3.816  11.665  2.3579 -0.8076 -0.5353
17163TIP3    H272981   1.433   3.676  11.627 -0.2237 -0.2929  0.3648
17164TIP3   OH272982   3.268   3.237   2.924 -0.3293 -0.5246  0.2126
17164TIP3    H172983   3.285   3.220   3.017  0.2835 -0.3374  0.1394
17164TIP3    H272984   3.354   3.253   2.887 -0.7382  1.4104  0.0056
17165TIP3   OH272985   5.333   4.455   0.096  0.2875  0.1108  0.0913
17165TIP3    H172986   5.291   4.370   0.114 -1.3371  1.1016  1.2691
17165TIP3    H272987   5.425   4.433   0.083 -0.0681 -1.8361  0.4506
17166TIP3   OH272988   1.680   6.158  15.907 -0.6775  0.1608 -0.1969
17166TIP3    H172989   1.721   6.072  15.923 -0.2689  0.4121  0.1233
17166TIP3    H272990   1.722   6.189  15.827 -1.7151 -0.4776 -1.0118
17167TIP3   OH272991   2.824   5.523   1.361 -0.0024 -0.1111  0.0247
17167TIP3    H172992   2.774   5.553   1.437 -0.3671  1.9137 -0.9287
17167TIP3    H272993   2.915   5.546   1.380 -0.1563  0.8179 -0.3157
17168TIP3   OH272994   6.176   5.269   2.031 -0.3139  0.3702 -0.1841
17168TIP3    H172995   6.095   5.235   1.993  0.3805 -0.9630 -0.5272
17168TIP3    H272996   6.218   5.317   1.960 -1.5781  2.5814  0.4613
17169TIP3   OH272997   4.746   2.191  15.842  0.7541 -0.4967 -0.2062
17169TIP3    H172998   4.800   2.258  15.884  0.6783  1.5929 -3.1801
17169TIP3    H272999   4.809   2.128  15.807  1.2168  0.7405 -1.7040
17170TIP3   OH273000   4.227   3.969   0.810  0.3857 -0.5679  0.1657
17170TIP3    H173001   4.244   3.912   0.885 -1.3886 -0.4585  0.7119
17170TIP3    H273002   4.204   3.910   0.739  0.7501 -0.6169  0.0871
17171TIP3   OH273003   4.455   1.661   6.051 -0.1446 -0.2290 -0.0571
17171TIP3    H173004   4.475   1.628   5.964 -0.3149  0.4546 -0.3604
17171TIP3    H273005   4.387   1.603   6.085 -2.4467  1.3883 -1.6541
17172TIP3   OH273006   3.979   5.430  14.005  0.1288 -0.5422  0.0446
17172TIP3    H173007   4.036   5.455  14.079  0.0674 -1.9613  0.5970
17172TIP3    H273008   3.972   5.510  13.953  1.4874  0.0580  0.7154
17173TIP3   OH273009   1.667   5.695  15.886  0.5607  0.5091 -0.2799
17173TIP3    H173010   1.654   5.605  15.916  0.2648  0.4538 -0.5618
17173TIP3    H273011   1.579   5.734  15.889  0.9777  1.3949  1.7169
17174TIP3   OH273012   3.847   0.871   1.416 -0.5713 -0.6131 -0.5337
17174TIP3    H173013   3.858   0.777   1.425  0.7514 -0.4078  0.2211
17174TIP3    H273014   3.933   0.904   1.393 -0.4938  0.6295  1.3161
17175TIP3   OH273015   1.230   5.031   3.670 -0.0643 -1.0408  0.7997
17175TIP3    H173016   1.258   4.944   3.697  0.7046 -1.4344 -1.0883
17175TIP3    H273017   1.270   5.043   3.584 -1.3550  0.5904  0.3774
17176TIP3   OH273018   0.758   6.301  14.280  0.2016  0.1234  0.5142
17176TIP3    H173019   0.723   6.389  14.289 -0.1121  0.0061  0.4577
17176TIP3    H273020   0.758   6.285  14.186 -4.5597 -1.8215  0.5871
17177TIP3   OH273021   5.289   2.983   3.653  0.0715 -0.2704 -0.6019
17177TIP3    H173022   5.279   3.020   3.740 -0.5580 -0.7267 -0.4712
17177TIP3    H273023   5.242   3.044   3.595  2.4662  1.3232 -0.9947
17178TIP3   OH273024   0.390   1.195   5.424  0.4080  0.2689  0.1672
17178TIP3    H173025   0.370   1.139   5.349  0.4638  1.1470 -0.5193
17178TIP3    H273026   0.413   1.280   5.385  0.4480  0.7344  1.1775
17179TIP3   OH273027   1.558   2.925  11.320  0.1541 -0.5611  0.0094
17179TIP3    H173028   1.541   2.988  11.389 -0.7935 -1.8084  0.9634
17179TIP3    H273029   1.640   2.883  11.345 -0.3434 -1.2243  0.5649
17180TIP3   OH273030   0.751   1.836  14.228  0.2869 -0.6263 -1.0412
17180TIP3    H173031   0.832   1.795  14.201  1.5734  0.2963  1.1444
17180TIP3    H273032   0.774   1.886  14.307 -2.4825 -0.6939 -0.0609
17181TIP3   OH273033   4.085   4.091  17.194  0.5686 -0.0236 -0.3278
17181TIP3    H173034   4.060   4.180  17.220 -0.7124 -0.7390  1.1063
17181TIP3    H273035   4.068   4.087  17.100 -1.1883  0.7048 -0.0759
17182TIP3   OH273036   3.679   6.365   1.189  0.0168 -0.3351 -0.4094
17182TIP3    H173037   3.690   6.270   1.181  3.6152  0.0345 -1.7162
17182TIP3    H273038   3.680   6.381   1.283 -1.0162 -1.5925 -0.1587
17183TIP3   OH273039   4.239   6.582  14.698  0.6918  0.2986 -0.7225
17183TIP3    H173040   4.242   6.519  14.769  1.2923  0.7667 -0.3220
17183TIP3    H273041   4.199   6.660  14.736  0.8856  0.5024 -0.9331
17184TIP3   OH273042   1.454   1.079  12.435 -0.0211  0.0975 -0.3626
17184TIP3    H173043   1.424   1.050  12.349  0.4723  2.2918 -1.3674
17184TIP3    H273044   1.385   1.138  12.465 -0.7806 -1.5763  1.3735
17185TIP3   OH273045   6.307   1.446   5.559  0.4019 -0.2037  0.7328
17185TIP3    H173046   6.298   1.356   5.592  1.3575 -0.1505  1.1539
17185TIP3    H273047   6.357   1.437   5.478  0.7098 -0.0274  0.9028
17186TIP3   OH273048   0.274   0.483  10.818 -0.3327 -0.1507  0.2355
17186TIP3    H173049   0.279   0.395  10.855 -0.3540 -0.7433 -1.1041
17186TIP3    H273050   0.193   0.520  10.854  0.8953  0.3104  2.7759
17187TIP3   OH273051   6.334   4.428   0.166  0.6538  0.3204 -0.0372
17187TIP3    H173052   6.367   4.494   0.105  2.9749 -1.7123 -1.1628
17187TIP3    H273053   6.380   4.447   0.248  1.5118 -0.0065 -0.4271
17188TIP3   OH273054   0.132   1.954   1.022 -0.1629  0.1481 -0.1465
17188TIP3    H173055   0.037   1.949   1.010 -0.4789  1.7582  1.3220
17188TIP3    H273056   0.146   1.928   1.113  0.4802  2.5325  0.4923
17189TIP3   OH273057   4.446   2.020  13.656 -0.2933  0.7176 -0.3587
17189TIP3    H173058   4.451   1.948  13.592 -1.1411  1.2149 -1.0143
17189TIP3    H273059   4.503   2.087  13.621  1.1660  0.0680  0.6904
17190TIP3   OH273060   5.976   5.604   0.197  0.6100  0.2508  0.1462
17190TIP3    H173061   5.931   5.607   0.282 -0.8880 -1.0636 -0.5462
17190TIP3    H273062   5.974   5.694   0.166  0.5988  0.6362  1.2133
17191TIP3   OH273063   5.199   6.685  13.031 -0.1693 -0.4270  0.2770
17191TIP3    H173064   5.116   6.638  13.021 -1.6542  1.9176  0.5861
17191TIP3    H273065   5.214   6.727  12.947 -0.1288  0.3905  0.6793
17192TIP3   OH273066   3.719   5.333  13.652 -0.2203 -0.2414 -0.1608
17192TIP3    H173067   3.723   5.306  13.743 -0.0779 -2.0109 -0.6422
17192TIP3    H273068   3.628   5.315  13.626 -0.3278  0.4847 -0.3062
17193TIP3   OH273069   1.732   4.893   6.322  0.3195 -0.3577  0.2707
17193TIP3    H173070   1.650   4.936   6.345 -0.3924 -1.1416 -0.6951
17193TIP3    H273071   1.798   4.962   6.331 -0.6569  0.7070 -0.3714
17194TIP3   OH273072   5.055   4.666   0.148  0.0514  0.3454 -0.8413
17194TIP3    H173073   5.114   4.633   0.079 -0.1198  0.2678 -0.9511
17194TIP3    H273074   5.041   4.590   0.205  1.4352  0.7990  0.1630
17195TIP3   OH273075   6.184   1.777  11.366  0.0139 -0.2610 -0.7791
17195TIP3    H173076   6.224   1.829  11.295  2.5932 -1.2536 -0.1764
17195TIP3    H273077   6.166   1.692  11.325  0.4833 -0.4828 -0.5286
17196TIP3   OH273078   2.787   6.547   0.644  0.0123  0.1849  0.4661
17196TIP3    H173079   2.849   6.516   0.578 -0.2091 -0.9968  0.7941
17196TIP3    H273080   2.827   6.626   0.680  0.7983  0.0475 -0.0971
17197TIP3   OH273081   4.405   3.744  12.636  0.9973 -0.0948  0.0346
17197TIP3    H173082   4.474   3.678  12.629  0.5601 -0.6207  0.5621
17197TIP3    H273083   4.329   3.705  12.593  0.6678 -0.0404  0.5537
17198TIP3   OH273084   2.424   3.358  12.597  0.3815  0.2381  0.1094
17198TIP3    H173085   2.461   3.430  12.545  2.3536 -0.7423  0.0418
17198TIP3    H273086   2.494   3.293  12.599 -0.0021 -0.2107  3.1685
17199TIP3   OH273087   2.167   0.268  12.055 -0.1000  0.2577  0.2066
17199TIP3    H173088   2.193   0.295  12.143  0.0236  1.4394 -0.1731
17199TIP3    H273089   2.115   0.188  12.069  1.4830 -0.6585  1.1724
17200TIP3   OH273090   3.293   5.347  16.394  0.0246 -0.1470 -0.1346
17200TIP3    H173091   3.315   5.255  16.384  0.7227 -0.0496  0.4763
17200TIP3    H273092   3.318   5.369  16.483  0.7294  0.8695 -0.5624
17201TIP3   OH273093   2.638   1.118  10.818  0.0960  0.2623 -0.2631
17201TIP3    H173094   2.683   1.124  10.902 -2.4085 -1.0101  1.2934
17201TIP3    H273095   2.557   1.169  10.830 -0.8089 -0.7873 -1.5144
17202TIP3   OH273096   2.854   5.636  16.161  0.2376 -0.5213  0.7183
17202TIP3    H173097   2.876   5.555  16.208  1.9482  0.3301  1.4724
17202TIP3    H273098   2.898   5.628  16.077 -0.3508 -0.7374  0.4185
17203TIP3   OH273099   6.173   2.233   4.357 -0.3675  0.1304  0.4279
17203TIP3    H173100   6.236   2.162   4.343 -1.3782 -0.9905  1.3745
17203TIP3    H273101   6.109   2.197   4.419 -0.3561  2.2155  1.7601
17204TIP3   OH273102   2.072   4.513  11.678  0.1627 -0.2945  0.0084
17204TIP3    H173103   2.089   4.486  11.587 -0.7612 -0.3673 -0.1573
17204TIP3    H273104   1.982   4.484  11.694 -0.5766  1.8756  0.1345
17205TIP3   OH273105   2.022   5.442   2.985 -0.4454 -0.5110 -0.2884
17205TIP3    H173106   2.055   5.530   2.969  1.1176 -0.9430  0.3652
17205TIP3    H273107   1.926   5.452   2.985 -0.3084  1.0845 -0.6819
17206TIP3   OH273108   3.135   1.025   2.640  0.0868 -0.2932 -0.0055
17206TIP3    H173109   3.229   1.010   2.652  0.2050  0.0962 -0.4209
17206TIP3    H273110   3.096   1.000   2.723  0.8218  1.8558  1.0543
17207TIP3   OH273111   6.017   4.318   4.502 -0.0854 -0.3905  0.1166
17207TIP3    H173112   5.998   4.224   4.505 -0.3098 -0.3278  0.7613
17207TIP3    H273113   6.014   4.346   4.594  3.4196 -0.4307  0.4022
17208TIP3   OH273114   2.766   4.682   3.545  0.2044 -0.0277  0.8357
17208TIP3    H173115   2.828   4.609   3.538 -0.6537 -0.9422  2.3372
17208TIP3    H273116   2.818   4.754   3.581  0.9451 -0.0223 -0.2005
17209TIP3   OH273117   0.787   0.913   6.304  0.2173 -0.0009 -0.0289
17209TIP3    H173118   0.821   0.922   6.393  1.9474 -0.6656 -0.5915
17209TIP3    H273119   0.715   0.851   6.313 -0.8727  1.3501  1.1728
17210TIP3   OH273120   3.274   0.288  10.423 -0.8359  0.3425  0.0534
17210TIP3    H173121   3.266   0.383  10.411  1.1860  0.8602  2.1187
17210TIP3    H273122   3.292   0.277  10.516  1.4688 -1.8547 -0.5589
17211TIP3   OH273123   2.754   2.772   4.193  0.4219  0.2868 -0.1182
17211TIP3    H173124   2.693   2.735   4.129  0.8872  1.1239 -1.0768
17211TIP3    H273125   2.703   2.779   4.274 -0.5512  0.3341 -0.7218
17212TIP3   OH273126   6.637   1.034  12.115 -0.6522  0.1676 -0.0923
17212TIP3    H173127   6.623   1.129  12.105 -0.5772 -0.0383 -2.7834
17212TIP3    H273128   6.722   1.018  12.074 -1.1821 -1.2246 -0.6694
17213TIP3   OH273129   1.488   3.882  11.839 -0.0266  0.6398  0.0294
17213TIP3    H173130   1.422   3.925  11.893 -0.2046  1.4412 -0.7976
17213TIP3    H273131   1.560   3.945  11.834 -0.0013  0.5680 -0.6285
17214TIP3   OH273132   6.652   4.307   0.240  0.0276 -0.4022 -0.6752
17214TIP3    H173133   6.628   4.355   0.319 -0.5846  2.4184 -2.4292
17214TIP3    H273134   6.599   4.228   0.243 -1.3523  0.5190  0.8487
17215TIP3   OH273135   0.527   2.999   0.415 -0.3511  0.4772  0.0704
17215TIP3    H173136   0.567   2.930   0.362 -0.6624 -0.5570  1.1334
17215TIP3    H273137   0.434   2.979   0.414 -0.3044  0.0655  1.4681
17216TIP3   OH273138   5.583   6.755   2.851  0.1306  0.6349  0.6302
17216TIP3    H173139   5.654   6.701   2.817 -0.5346  0.1482 -0.0389
17216TIP3    H273140   5.626   6.827   2.897  1.1670  2.1701 -2.4897
17217TIP3   OH273141   1.011   2.799   1.407  0.2148  0.5023  0.1906
17217TIP3    H173142   1.062   2.858   1.351 -1.1165  1.3675 -0.1477
17217TIP3    H273143   1.067   2.785   1.483  0.8006  1.7799  0.0320
17218TIP3   OH273144   2.168   6.236   0.261 -0.9541  0.2207  0.1044
17218TIP3    H173145   2.124   6.191   0.189 -0.9885  0.3680  0.0321
17218TIP3    H273146   2.175   6.327   0.232 -1.0539  0.3011  0.3265
17219TIP3   OH273147   2.577   6.582  14.481  0.6206  0.0247  0.1227
17219TIP3    H173148   2.500   6.602  14.533 -0.3275 -1.9894 -0.4198
17219TIP3    H273149   2.647   6.571  14.545 -0.1037 -0.5310  0.8365
17220TIP3   OH273150   0.201   0.361   0.214  0.3759  0.3275 -0.2446
17220TIP3    H173151   0.130   0.362   0.150  0.7663  2.6536 -0.7416
17220TIP3    H273152   0.246   0.279   0.199  0.2259  0.6444 -2.7310
17221TIP3   OH273153   6.677   4.750  10.605  0.2734 -0.2267 -0.4427
17221TIP3    H173154   6.726   4.821  10.564 -1.0540  0.7880 -0.3383
17221TIP3    H273155   6.585   4.770  10.586 -0.1728 -1.5157  0.2296
17222TIP3   OH273156   2.329   6.750  15.692 -0.4031  0.0845  0.2034
17222TIP3    H173157   2.253   6.697  15.670 -0.9974  1.0101 -0.0486
17222TIP3    H273158   2.305   6.793  15.774  0.6956 -1.2163  1.2482
17223TIP3   OH273159   5.811   5.979   3.263 -0.1932 -0.0448  0.5074
17223TIP3    H173160   5.766   5.899   3.239 -3.4135  1.3718  1.3345
17223TIP3    H273161   5.845   5.961   3.351  1.6084 -1.3470 -0.3805
17224TIP3   OH273162   6.185   5.551  16.784 -0.0032 -0.7544  0.0623
17224TIP3    H173163   6.184   5.493  16.860 -3.2775 -0.9508  0.0152
17224TIP3    H273164   6.093   5.565  16.763  0.7404  1.2008 -2.4616
17225TIP3   OH273165   0.028   6.054  13.106 -0.0530 -0.0008  0.4874
17225TIP3    H173166   0.037   6.149  13.114 -1.2467  0.2008 -0.3619
17225TIP3    H273167  -0.021   6.041  13.025 -0.2831 -1.3293  0.8122
17226TIP3   OH273168   0.262   0.548  15.211 -0.3421 -0.1564 -0.3744
17226TIP3    H173169   0.211   0.491  15.153 -0.7940  0.3962 -0.5173
17226TIP3    H273170   0.247   0.512  15.298 -0.4504 -0.3922 -0.4889
17227TIP3   OH273171   3.214   6.013  14.871  0.3960  0.2053 -0.3241
17227TIP3    H173172   3.250   6.022  14.959  2.5757  1.8769 -1.2673
17227TIP3    H273173   3.210   5.919  14.855 -0.2272 -0.1307  1.5906
17228TIP3   OH273174   3.078   5.456  12.108 -0.3181  0.5226 -0.2469
17228TIP3    H173175   3.106   5.484  12.195  0.6379 -3.3041  0.8874
17228TIP3    H273176   3.157   5.466  12.054 -0.6121  1.9156 -0.4494
17229TIP3   OH273177   3.496   6.325  16.980  0.0346 -0.0146  0.0043
17229TIP3    H173178   3.479   6.280  17.063 -1.1611  1.4506  0.6002
17229TIP3    H273179   3.478   6.258  16.914  1.1117 -1.2427  0.8956
17230TIP3   OH273180   3.212   4.947  11.499 -0.5450  0.3630  0.3309
17230TIP3    H173181   3.147   4.884  11.529  1.5082 -1.6788  0.7825
17230TIP3    H273182   3.197   5.024  11.553 -1.4154 -0.7212  1.7048
17231TIP3   OH273183   4.875   5.203   1.418  0.4473  0.6315  0.0950
17231TIP3    H173184   4.962   5.177   1.450  0.0302  0.0884  0.8097
17231TIP3    H273185   4.832   5.121   1.395 -0.6489  0.6853  1.7689
17232TIP3   OH273186   3.483   4.477   0.946  0.2973  0.5835  0.3916
17232TIP3    H173187   3.476   4.422   0.868  0.3441  1.8183 -0.5113
17232TIP3    H273188   3.407   4.535   0.941 -0.5324 -0.2903  2.0701
17233TIP3   OH273189   2.331   0.220   3.746 -0.4116  0.6799  0.5794
17233TIP3    H173190   2.291   0.209   3.832 -0.5159  2.8150  0.8614
17233TIP3    H273191   2.292   0.300   3.711  0.3565  0.3912 -1.0347
17234TIP3   OH273192   0.581   0.520  12.795 -0.4803 -0.2418  0.0808
17234TIP3    H173193   0.583   0.462  12.719 -0.8034 -0.2194  0.0546
17234TIP3    H273194   0.492   0.512  12.830 -0.1189 -0.8402  0.9076
17235TIP3   OH273195   1.945   2.383   0.711  0.3978 -0.2054  0.6251
17235TIP3    H173196   1.890   2.313   0.675  0.8545  0.1868 -0.9002
17235TIP3    H273197   1.899   2.410   0.791 -1.7596  0.2248 -0.6680
17236TIP3   OH273198   3.231   3.048   1.601  0.4162 -0.6699 -0.4590
17236TIP3    H173199   3.243   2.956   1.625  2.2805 -0.1853  0.6384
17236TIP3    H273200   3.313   3.091   1.626 -0.9497  1.5999  0.4677
17237TIP3   OH273201   5.145   3.222  14.995 -0.0472  0.5558 -0.1997
17237TIP3    H173202   5.091   3.234  14.918 -0.9790 -0.0580  0.3369
17237TIP3    H273203   5.095   3.263  15.066 -0.1796 -0.6436  0.4344
17238TIP3   OH273204   3.557   5.581  12.552 -0.3797 -0.0437 -1.0239
17238TIP3    H173205   3.531   5.670  12.576  1.1419  0.0998  0.2142
17238TIP3    H273206   3.647   5.589  12.521  0.6702 -1.4369  1.4374
17239TIP3   OH273207   4.160   4.905   4.519  0.3896  0.1275  0.3084
17239TIP3    H173208   4.082   4.900   4.573 -0.1101 -1.1643 -0.4867
17239TIP3    H273209   4.228   4.937   4.578 -0.2977 -0.5687  1.5070
17240TIP3   OH273210   6.301   0.960  16.273  0.1612 -0.6232  0.5499
17240TIP3    H173211   6.299   1.040  16.325 -2.7643 -1.7629  2.4529
17240TIP3    H273212   6.389   0.925  16.288  1.9534  2.6116 -1.2128
17241TIP3   OH273213   5.582   4.948   1.545  0.4820  0.0363  0.0873
17241TIP3    H173214   5.512   4.975   1.486  0.0455 -2.8779 -0.8342
17241TIP3    H273215   5.663   4.969   1.497  0.2630  1.5940  0.3321
17242TIP3   OH273216   0.041   6.716   1.372  0.0691  0.3121  0.4090
17242TIP3    H173217   0.046   6.812   1.371 -2.0174  0.4728  0.0960
17242TIP3    H273218   0.033   6.694   1.465  0.2142  0.4702  0.4597
17243TIP3   OH273219   2.865   2.124   4.694  0.6046  0.2815  0.4469
17243TIP3    H173220   2.817   2.050   4.731  0.4320  1.0921  1.9131
17243TIP3    H273221   2.913   2.087   4.620 -1.9009 -0.6786 -0.8435
17244TIP3   OH273222   2.443   0.510   1.456 -0.0332  0.0518 -0.0605
17244TIP3    H173223   2.405   0.517   1.544  1.7019 -0.2733  0.7637
17244TIP3    H273224   2.531   0.475   1.471  0.1612 -0.3775 -1.9774
17245TIP3   OH273225   0.515   4.764   1.441  0.0119  0.6244  0.0870
17245TIP3    H173226   0.498   4.853   1.411 -0.4098  0.5000 -0.0507
17245TIP3    H273227   0.450   4.749   1.511  0.5284  0.6672  0.5831
17246TIP3   OH273228   1.107   4.032   4.886  0.0029  0.3693  0.2050
17246TIP3    H173229   1.103   3.961   4.951  0.6477 -1.7218 -1.9075
17246TIP3    H273230   1.020   4.034   4.847  0.2535  0.0907 -0.3777
17247TIP3   OH273231   2.637   4.797  15.824  0.0751 -0.1213  0.1474
17247TIP3    H173232   2.580   4.722  15.842  0.2200 -0.1605  0.4535
17247TIP3    H273233   2.604   4.833  15.741 -0.3553 -0.1768  0.2921
17248TIP3   OH273234   1.514   6.552   4.994 -0.1607 -0.0024 -0.3182
17248TIP3    H173235   1.473   6.533   4.909 -0.5693 -0.5991  0.0082
17248TIP3    H273236   1.448   6.601   5.042 -0.5438 -1.0486  0.2445
17249TIP3   OH273237   4.531   0.223   3.399 -0.8583  0.0714  0.1233
17249TIP3    H173238   4.490   0.303   3.432 -0.9407  1.0960 -2.2764
17249TIP3    H273239   4.465   0.184   3.341 -0.2886 -1.0008  0.1577
17250TIP3   OH273240   2.164   6.019   4.211  0.1073  0.4697 -0.2803
17250TIP3    H173241   2.176   6.029   4.305 -1.2116 -0.8117  0.0599
17250TIP3    H273242   2.234   6.071   4.172  1.9566 -0.6022  1.4316
17251TIP3   OH273243   2.032   3.401  15.834 -0.0698 -0.2069 -0.3201
17251TIP3    H173244   2.023   3.450  15.753 -0.5807  0.8255  0.3498
17251TIP3    H273245   2.121   3.364  15.830  0.0437  0.1377 -1.1663
17252TIP3   OH273246   3.061   6.499   0.738  0.0561  0.0787  0.5083
17252TIP3    H173247   2.991   6.435   0.751 -0.0864 -0.0358 -0.7202
17252TIP3    H273248   3.135   6.448   0.706  0.1439  0.4427  0.1268
17253TIP3   OH273249   4.434   1.028   5.662 -0.4425 -0.2536 -0.1767
17253TIP3    H173250   4.505   1.088   5.684  0.5515 -1.4715  0.0773
17253TIP3    H273251   4.465   0.943   5.693 -1.3730 -1.0721 -1.4051
17254TIP3   OH273252   3.970   1.326   1.912  0.3282 -0.2405 -0.0317
17254TIP3    H173253   3.980   1.404   1.857 -0.2644  1.1868  1.7363
17254TIP3    H273254   4.024   1.259   1.871  3.9747  2.1884  0.3521
17255TIP3   OH273255   2.004   5.956  15.623  0.3116  0.2802 -0.0105
17255TIP3    H173256   1.946   5.882  15.640 -0.4163  0.6875 -0.6284
17255TIP3    H273257   2.090   5.917  15.606  0.2454 -0.3317  0.9795
17256TIP3   OH273258   3.912   3.322  14.033  0.3347  0.1518 -0.3534
17256TIP3    H173259   3.922   3.410  13.995 -0.7219  0.4465  0.0107
17256TIP3    H273260   3.818   3.305  14.028  0.5647 -1.1165 -0.7382
17257TIP3   OH273261   5.222   3.522  15.114 -0.3613 -0.1131  0.1533
17257TIP3    H173262   5.150   3.550  15.171 -0.3911 -1.5553  0.8605
17257TIP3    H273263   5.226   3.427  15.125  2.1623  0.0063  0.7302
17258TIP3   OH273264   1.306   0.258   2.031 -0.2352  0.2477 -0.0124
17258TIP3    H173265   1.325   0.352   2.037 -2.2005  0.6799  0.1162
17258TIP3    H273266   1.228   0.253   1.976  0.3123 -1.3969 -0.7040
17259TIP3   OH273267   6.399   0.209   5.682 -0.0060 -0.3689  0.3553
17259TIP3    H173268   6.322   0.168   5.722 -0.4438  1.1571  1.1545
17259TIP3    H273269   6.372   0.300   5.666  1.7318  0.2845  0.9497
17260TIP3   OH273270   0.875   5.450  12.055 -0.5330 -0.0648 -0.0782
17260TIP3    H173271   0.870   5.490  11.968 -0.6470 -1.4338 -0.7250
17260TIP3    H273272   0.868   5.524  12.115  1.8776  1.2171 -1.2074
17261TIP3   OH273273   1.054   4.664  15.129  0.8064  0.3354  0.3708
17261TIP3    H173274   1.005   4.694  15.052  0.0107 -0.1812  0.6605
17261TIP3    H273275   0.987   4.629  15.187  1.4188  0.5888  1.2430
17262TIP3   OH273276   2.157   1.182   0.800  0.4689  0.5406  0.2128
17262TIP3    H173277   2.165   1.111   0.736 -0.9086 -0.0984  0.7089
17262TIP3    H273278   2.203   1.151   0.878 -1.0325 -0.3105  0.8024
17263TIP3   OH273279   1.224   2.066   1.583  0.1081  0.1172  0.9039
17263TIP3    H173280   1.306   2.115   1.579  0.0978  0.1005  0.4617
17263TIP3    H273281   1.234   2.009   1.660  0.3133  0.4564  1.1344
17264TIP3   OH273282   5.952   1.812  10.661  0.3254 -0.3072  0.6291
17264TIP3    H173283   5.991   1.839  10.577  0.4237 -1.7613  0.1821
17264TIP3    H273284   5.871   1.766  10.636  0.7590 -1.4534  1.2790
17265TIP3   OH273285   1.734   6.578  12.294  0.4870  0.1105  0.2397
17265TIP3    H173286   1.679   6.637  12.243  2.2831  1.0460 -0.7411
17265TIP3    H273287   1.785   6.637  12.352 -0.9187 -0.8591  2.6127
17266TIP3   OH273288   0.096   0.385   3.038  0.0528 -0.3188  0.3532
17266TIP3    H173289   0.020   0.340   3.076 -0.1111  1.2602  2.0318
17266TIP3    H273290   0.067   0.412   2.951 -0.3436 -2.0730 -0.1166
17267TIP3   OH273291   6.573   3.410  15.923 -0.1531  0.0067  0.5661
17267TIP3    H173292   6.620   3.464  15.986  1.2617 -0.1678 -0.2829
17267TIP3    H273293   6.584   3.455  15.840  1.0056 -1.5089 -0.1474
17268TIP3   OH273294   1.550   2.365  12.929  0.2454  0.1308 -0.2464
17268TIP3    H173295   1.611   2.316  12.875  2.1123  0.8802  1.0637
17268TIP3    H273296   1.482   2.394  12.869  1.1604 -0.7547 -1.7681
17269TIP3   OH273297   2.011   1.211   1.630 -0.1499  0.1415 -0.1910
17269TIP3    H173298   1.949   1.261   1.683  0.3771  0.6764 -0.0645
17269TIP3    H273299   2.094   1.219   1.677 -0.4746 -2.7295  1.0575
17270TIP3   OH273300   5.347   4.271   5.803 -0.3161 -0.4600  0.1329
17270TIP3    H173301   5.357   4.322   5.883  2.8869  0.0626 -0.4780
17270TIP3    H273302   5.345   4.180   5.833  1.3437 -0.2949  0.8097
17271TIP3   OH273303   4.568   0.101   3.004  0.1332 -0.8027 -0.3367
17271TIP3    H173304   4.601   0.180   2.962 -1.4684  0.3494  0.4664
17271TIP3    H273305   4.643   0.064   3.051  1.2275 -0.5342 -1.8283
17272TIP3   OH273306   5.628   5.991  13.015 -0.1154  0.1594 -0.4985
17272TIP3    H173307   5.659   6.045  13.087  0.0554 -0.4312 -0.1209
17272TIP3    H273308   5.708   5.966  12.968 -0.2527  0.8398 -1.1183
17273TIP3   OH273309   4.044   6.285   5.911 -0.1352 -0.0916 -0.7354
17273TIP3    H173310   4.114   6.347   5.931 -0.3235  0.1408 -0.7911
17273TIP3    H273311   4.071   6.204   5.954  0.1039  0.0338 -0.6464
17274TIP3   OH273312   5.510   1.294  11.493  0.1800  0.3798 -0.2836
17274TIP3    H173313   5.557   1.297  11.410  3.2258 -3.5709  0.9531
17274TIP3    H273314   5.550   1.363  11.546  1.6242 -0.1146 -0.6807
17275TIP3   OH273315   5.094   0.042   2.846 -0.0499  0.0881 -0.0417
17275TIP3    H173316   5.159   0.096   2.801  2.1016  0.2654  2.9884
17275TIP3    H273317   5.022   0.101   2.865  0.4874  0.8430 -0.3180
17276TIP3   OH273318   5.052   6.674  15.365 -0.2158  0.2929  0.2862
17276TIP3    H173319   4.995   6.663  15.442  1.1188 -0.8149  1.1564
17276TIP3    H273320   5.066   6.768  15.359 -1.5734  0.5351  0.4528
17277TIP3   OH273321   1.496   4.134   4.183 -0.0025 -0.1198  0.2067
17277TIP3    H173322   1.538   4.220   4.188 -1.1069  0.5293 -1.0137
17277TIP3    H273323   1.405   4.153   4.159 -0.6959 -1.5507  1.4787
17278TIP3   OH273324   0.507   3.371   6.154  0.2235  0.2963  0.2835
17278TIP3    H173325   0.462   3.456   6.143 -1.2141 -0.5693 -0.9328
17278TIP3    H273326   0.471   3.336   6.235  0.7621  0.8004  0.7492
17279TIP3   OH273327   1.865   1.646  15.185 -0.6037  0.2533 -0.1051
17279TIP3    H173328   1.791   1.669  15.129 -0.4054  2.4811  0.4575
17279TIP3    H273329   1.907   1.729  15.205  1.1598 -0.8002  0.8531
17280TIP3   OH273330   0.999   3.081  14.309  0.0724  0.3762  0.3659
17280TIP3    H173331   0.911   3.111  14.288 -0.8827 -0.9558  2.1495
17280TIP3    H273332   1.050   3.161  14.321 -0.7719  1.1587 -1.0640
17281TIP3   OH273333   0.358   6.523  11.641  0.0886  0.4714  0.3496
17281TIP3    H173334   0.371   6.429  11.656 -2.0844 -0.1685 -1.2976
17281TIP3    H273335   0.408   6.542  11.562 -0.1758  0.4947  0.1868
17282TIP3   OH273336   3.898   4.845  11.057  0.6528  0.0295 -0.2265
17282TIP3    H173337   3.859   4.899  11.126  1.4132 -0.3309  0.5130
17282TIP3    H273338   3.840   4.856  10.981 -0.1424  0.5214  0.4357
17283TIP3   OH273339   0.925   1.901   2.899  0.0998 -0.1810  0.8407
17283TIP3    H173340   0.903   1.895   2.806  0.4659  0.0090  0.7398
17283TIP3    H273341   0.938   1.810   2.926 -0.4974 -0.2751  0.8305
17284TIP3   OH273342   6.046   4.393  12.142  0.2385 -0.1876  0.4111
17284TIP3    H173343   6.031   4.461  12.076 -1.9586 -1.2918 -0.3319
17284TIP3    H273344   6.139   4.370  12.132  0.9351  2.2948  0.3621
17285TIP3   OH273345   5.040   5.846  13.861 -0.2389 -0.3819  0.1033
17285TIP3    H173346   5.111   5.867  13.801  1.1013 -0.7096  1.5115
17285TIP3    H273347   4.964   5.830  13.804  1.2136 -1.6932 -1.5560
17286TIP3   OH273348   1.639   5.209   1.432  0.2698 -0.3524  0.2225
17286TIP3    H173349   1.713   5.186   1.487  0.8173 -1.9513 -1.0995
17286TIP3    H273350   1.583   5.132   1.433  0.3326 -0.4601 -1.4720
17287TIP3   OH273351   3.688   5.049   1.800 -0.6745  0.2515  0.6045
17287TIP3    H173352   3.667   5.016   1.712  1.1362  2.5073 -0.7887
17287TIP3    H273353   3.682   5.144   1.791  2.2053  0.6709  2.1327
17288TIP3   OH273354   0.548   0.831  11.484  0.3045 -0.4893  0.0760
17288TIP3    H173355   0.505   0.797  11.405 -0.0713 -1.1956  0.5775
17288TIP3    H273356   0.578   0.753  11.531  0.0545 -0.0968  0.9008
17289TIP3   OH273357   3.329   2.858   0.404  0.0277  0.6686  0.3170
17289TIP3    H173358   3.246   2.826   0.441 -0.0123  0.6817  0.2390
17289TIP3    H273359   3.327   2.952   0.422  0.6014  0.4779  1.4274
17290TIP3   OH273360   1.735   4.978   0.482  0.1395 -0.1582 -0.1149
17290TIP3    H173361   1.686   5.017   0.410  0.4541 -0.8272 -0.6963
17290TIP3    H273362   1.683   4.902   0.508 -0.0496  0.1639  0.4664
17291TIP3   OH273363   0.809   1.234   3.421 -0.9480 -0.0368 -0.1377
17291TIP3    H173364   0.816   1.328   3.436  0.1551 -0.2957  1.1729
17291TIP3    H273365   0.875   1.195   3.479 -2.7976 -1.7576  0.9598
17292TIP3   OH273366   4.559   2.739   4.383  0.1985  0.1157 -0.4543
17292TIP3    H173367   4.612   2.680   4.329 -0.1780  0.2541 -0.9809
17292TIP3    H273368   4.517   2.798   4.320  0.2683  0.7039  0.0369
17293TIP3   OH273369   4.989   5.679  16.476 -0.0055  0.1364 -0.3225
17293TIP3    H173370   4.897   5.694  16.454  0.4557  0.0121 -2.5850
17293TIP3    H273371   5.001   5.725  16.559 -1.6642  1.7458 -0.8847
17294TIP3   OH273372   2.874   1.264   4.882 -0.1089  0.4964 -0.5903
17294TIP3    H173373   2.958   1.229   4.851 -0.6841 -0.6120 -0.9479
17294TIP3    H273374   2.835   1.192   4.932 -0.8914  0.9730 -0.4935
17295TIP3   OH273375   4.241   2.222   2.223 -0.3949 -0.5316 -0.1968
17295TIP3    H173376   4.180   2.294   2.240 -0.9910 -0.5638 -2.0061
17295TIP3    H273377   4.206   2.149   2.273 -0.4888  0.0782  0.6566
17296TIP3   OH273378   2.266   3.816  12.994  0.2907  0.0389 -0.1740
17296TIP3    H173379   2.197   3.778  12.940  0.6964  0.0362 -0.6949
17296TIP3    H273380   2.265   3.764  13.074 -0.1204 -0.1426 -0.2962
17297TIP3   OH273381   3.639   4.600  15.624 -0.0657  0.3713  0.2826
17297TIP3    H173382   3.621   4.506  15.621  2.5511 -0.2060  0.1335
17297TIP3    H273383   3.653   4.625  15.533  1.8129  0.2839  0.5116
17298TIP3   OH273384   0.101   1.154   2.798  0.2415 -0.0736  0.1348
17298TIP3    H173385   0.076   1.062   2.787 -0.1017  0.1925 -1.6790
17298TIP3    H273386   0.127   1.182   2.710  0.2702  1.5930  0.6404
17299TIP3   OH273387   6.046   2.091  13.101 -0.0920  0.2316  1.1052
17299TIP3    H173388   6.079   2.179  13.084  0.4835 -0.0288  0.8165
17299TIP3    H273389   6.044   2.049  13.015 -0.4261 -0.0129  1.2313
17300TIP3   OH273390   1.132   2.032   5.552  0.3367  0.0722  0.2475
17300TIP3    H173391   1.045   2.016   5.516  0.1842  0.7928  0.2783
17300TIP3    H273392   1.184   1.958   5.523 -0.0104  0.1898 -0.7126
17301TIP3   OH273393   3.286   0.350   4.877 -0.4703 -0.0790 -0.4664
17301TIP3    H173394   3.382   0.356   4.869 -0.2718  0.2836  1.6641
17301TIP3    H273395   3.271   0.263   4.913 -0.9144  0.0572 -0.3242
17302TIP3   OH273396   0.011   1.928   5.725  0.0001 -0.6276 -0.6319
17302TIP3    H173397   0.089   1.984   5.727 -0.1755 -0.3902 -0.1754
17302TIP3    H273398   0.041   1.845   5.762  0.0614 -0.5667 -0.5434
17303TIP3   OH273399   4.081   2.948  10.336  0.0963 -0.4087 -0.4040
17303TIP3    H173400   4.060   2.855  10.332  0.6730 -0.4995 -1.8108
17303TIP3    H273401   4.004   2.991  10.299  0.1395 -0.3681 -0.4460
17304TIP3   OH273402   5.702   4.514   4.225 -0.8677  0.2452 -0.2408
17304TIP3    H173403   5.657   4.594   4.197  0.2118  1.1317  0.4381
17304TIP3    H273404   5.637   4.445   4.216 -2.0032  1.2926 -0.3338
17305TIP3   OH273405   4.334   3.134  11.913  0.0822 -0.2304  0.1136
17305TIP3    H173406   4.395   3.070  11.950 -0.7282 -0.5611  0.9090
17305TIP3    H273407   4.339   3.209  11.971  0.2758  0.0345 -0.2421
17306TIP3   OH273408   3.100   6.401  11.090 -0.1224 -0.1685 -0.6012
17306TIP3    H173409   3.120   6.432  11.001  2.6356  1.7399  0.5459
17306TIP3    H273410   3.182   6.361  11.121 -1.6030 -2.6283  0.4663
17307TIP3   OH273411   1.433   1.307  16.495  0.3496 -0.2364 -0.0222
17307TIP3    H173412   1.420   1.257  16.576  0.5760  2.6281  1.9426
17307TIP3    H273413   1.352   1.358  16.486  1.1943  1.0740 -0.3742
17308TIP3   OH273414   0.539   3.637   3.802 -0.4952 -0.1481 -0.3050
17308TIP3    H173415   0.557   3.698   3.873 -0.1574  1.9397 -2.0942
17308TIP3    H273416   0.450   3.605   3.819  0.4564 -1.6573  2.3372
17309TIP3   OH273417   2.780   0.084  16.466  0.3902 -0.3770  0.7556
17309TIP3    H173418   2.824   0.169  16.468  0.6329 -0.4197 -0.8852
17309TIP3    H273419   2.776   0.062  16.373 -2.5746 -0.6640  0.8781
17310TIP3   OH273420   4.276   2.721   4.081 -0.0678  0.3245 -0.0924
17310TIP3    H173421   4.295   2.634   4.113  0.7992  1.1174  1.6489
17310TIP3    H273422   4.185   2.717   4.052  0.3171 -1.4387 -1.1635
17311TIP3   OH273423   5.120   1.616  13.495 -0.3839 -0.4577 -0.0171
17311TIP3    H173424   5.062   1.541  13.486  0.1029 -0.7981 -0.3523
17311TIP3    H273425   5.200   1.591  13.448  0.4605 -0.4378  1.3374
17312TIP3   OH273426   3.682   3.895   4.431  0.2186 -0.0804 -0.5830
17312TIP3    H173427   3.656   3.962   4.368 -2.5707 -0.4765  0.0143
17312TIP3    H273428   3.614   3.828   4.425  0.3760 -0.5919  2.1422
17313TIP3   OH273429   3.512   4.192   4.631  0.3217 -0.0119  0.4041
17313TIP3    H173430   3.437   4.180   4.572 -0.3748  0.1378  1.2320
17313TIP3    H273431   3.526   4.106   4.670  1.1035 -0.2301 -0.3415
17314TIP3   OH273432   3.700   0.721  11.322  0.2329  0.1693  0.5693
17314TIP3    H173433   3.620   0.724  11.376  0.2240  3.1191  0.5560
17314TIP3    H273434   3.671   0.685  11.239 -0.3890 -1.6823  1.5412
17315TIP3   OH273435   0.848   1.624  14.431 -0.5864  0.7886 -0.3304
17315TIP3    H173436   0.873   1.533  14.447  0.6210  0.4963 -3.1422
17315TIP3    H273437   0.761   1.618  14.392 -0.0864  0.6852 -1.4829
17316TIP3   OH273438   2.334   3.604  15.375 -0.0667  0.2317 -0.1706
17316TIP3    H173439   2.256   3.553  15.353  0.3140 -0.6904  0.5288
17316TIP3    H273440   2.321   3.688  15.331 -2.9529  1.3166  2.4151
17317TIP3   OH273441   2.697   0.367  16.678  0.6346 -0.2507 -0.5984
17317TIP3    H173442   2.649   0.314  16.614 -1.4817  0.6975  0.1032
17317TIP3    H273443   2.748   0.305  16.728 -0.2458 -1.4046 -1.0885
17318TIP3   OH273444   0.449   0.308  13.402  0.0883  0.4195 -0.6280
17318TIP3    H173445   0.501   0.371  13.451 -1.8468  1.3010  0.4088
17318TIP3    H273446   0.424   0.242  13.466  1.7715 -1.2705 -1.6190
17319TIP3   OH273447   0.252   2.738   3.767 -0.5726  0.2117 -0.3708
17319TIP3    H173448   0.173   2.723   3.819  0.0479 -2.6771 -0.0779
17319TIP3    H273449   0.227   2.716   3.677 -0.3522  0.2559 -0.4449
17320TIP3   OH273450   4.542   2.469   3.210 -0.7544 -0.0022  0.2234
17320TIP3    H173451   4.613   2.439   3.268  0.7232 -0.3143 -1.6634
17320TIP3    H273452   4.580   2.467   3.122 -3.0674  0.0046 -0.8440
17321TIP3   OH273453   3.934   6.259   1.908 -0.1606 -0.0936  0.0280
17321TIP3    H173454   3.937   6.287   1.816  0.8197 -0.9710 -0.2342
17321TIP3    H273455   3.944   6.340   1.958 -1.4894  0.4925 -0.6086
17322TIP3   OH273456   2.184   5.712   0.180 -0.0608 -0.1900 -0.0883
17322TIP3    H173457   2.260   5.695   0.125  0.4202 -2.3378  1.1237
17322TIP3    H273458   2.111   5.669   0.134 -0.9078  2.8027 -1.8267
17323TIP3   OH273459   4.863   2.718  13.611 -0.2888 -0.3612  0.0780
17323TIP3    H173460   4.908   2.668  13.543 -0.8390 -0.5769 -0.1299
17323TIP3    H273461   4.846   2.654  13.680  0.8953  0.0058  0.7371
17324TIP3   OH273462   3.544   6.017   4.200  0.4750 -0.1176  0.4926
17324TIP3    H173463   3.524   6.065   4.280 -0.3088 -0.5369  0.5635
17324TIP3    H273464   3.463   5.970   4.179  0.4134  0.5633 -0.9656
17325TIP3   OH273465   3.055   4.527  16.011  0.7240 -0.4705  0.2287
17325TIP3    H173466   3.131   4.509  16.067  0.4833 -0.6768  0.4923
17325TIP3    H273467   3.084   4.502  15.923  1.4266  0.7372  0.0924
17326TIP3   OH273468   2.818   6.300   2.143 -0.3196 -0.3379 -0.6266
17326TIP3    H173469   2.809   6.270   2.053 -0.0866 -0.6681 -0.5405
17326TIP3    H273470   2.747   6.364   2.154  0.2711  0.4749 -1.3600
17327TIP3   OH273471   2.659   4.349   2.631  0.7964  0.2969  0.5953
17327TIP3    H173472   2.700   4.263   2.621  0.6566  0.2901  0.0789
17327TIP3    H273473   2.579   4.343   2.580  0.9155  0.8247  0.3435
17328TIP3   OH273474   5.625   3.226  12.993  0.5697 -0.4241  0.2022
17328TIP3    H173475   5.603   3.148  12.941 -0.6662  0.5426 -0.8119
17328TIP3    H273476   5.576   3.214  13.074 -1.1563  0.1296 -0.7056
17329TIP3   OH273477   4.832   4.192   0.370 -0.0821  0.0854 -0.2262
17329TIP3    H173478   4.804   4.274   0.411 -2.7906  0.6341 -2.7851
17329TIP3    H273479   4.787   4.124   0.419 -1.7871  0.5921 -1.0004
17330TIP3   OH273480   1.390   3.334   5.292  0.0422  0.2114  0.2027
17330TIP3    H173481   1.325   3.400   5.317 -0.8326 -0.2179 -0.8905
17330TIP3    H273482   1.404   3.347   5.198  0.4761 -0.6277  0.1374
17331TIP3   OH273483   0.351   3.721  11.226 -0.1349 -0.4900 -0.2526
17331TIP3    H173484   0.420   3.663  11.194  0.4622 -0.3339  0.6978
17331TIP3    H273485   0.333   3.688  11.315 -0.6731  0.0048 -0.1799
17332TIP3   OH273486   3.383   0.959   0.972 -0.3938  0.0452 -0.2784
17332TIP3    H173487   3.440   0.882   0.979 -0.2830  0.0546 -0.9599
17332TIP3    H273488   3.331   0.959   1.053  1.8068  1.0576  1.2379
17333TIP3   OH273489   5.212   4.912  12.598  0.4128 -0.2401 -0.4448
17333TIP3    H173490   5.204   4.903  12.693  1.6318 -0.9571 -0.3853
17333TIP3    H273491   5.299   4.876  12.578  0.7567  1.1594 -1.6690
17334TIP3   OH273492   6.517   3.681   1.764  0.4231 -0.1887 -0.0515
17334TIP3    H173493   6.508   3.771   1.732  0.3384  0.2649  1.1939
17334TIP3    H273494   6.584   3.642   1.708 -0.0182  0.4402 -1.0325
17335TIP3   OH273495   4.476   4.798   6.453  0.4738  0.6345 -0.2116
17335TIP3    H173496   4.492   4.835   6.540  1.9555  1.5389 -0.8491
17335TIP3    H273497   4.559   4.807   6.407  0.0057 -0.7740 -1.4053
17336TIP3   OH273498   1.045   6.652   4.450 -0.0571  0.2073  0.3360
17336TIP3    H173499   0.984   6.655   4.376 -0.2621 -0.6199  0.4596
17336TIP3    H273500   0.989   6.634   4.526  0.3878 -1.0866  0.3786
17337TIP3   OH273501   2.337   3.789  16.568  0.2884  0.4301  0.5568
17337TIP3    H173502   2.401   3.853  16.536  0.7412 -0.8530 -1.2426
17337TIP3    H273503   2.390   3.716  16.599 -0.2670  0.0991  0.7331
17338TIP3   OH273504   5.007   5.012   0.117 -0.1912  0.4973  0.1111
17338TIP3    H173505   5.077   4.954   0.089 -0.7435  0.2495 -0.8045
17338TIP3    H273506   4.957   5.030   0.037 -1.6892 -0.0395  0.8721
17339TIP3   OH273507   4.080   1.016  10.930  0.3558  0.2334 -0.1003
17339TIP3    H173508   4.031   1.063  10.862  1.9673  1.9042 -0.1959
17339TIP3    H273509   4.015   0.959  10.971 -0.6969 -0.7900 -2.9491
17340TIP3   OH273510   5.689   6.629  13.559 -0.0018 -0.3050 -0.0473
17340TIP3    H173511   5.650   6.609  13.474  2.0061 -1.3211 -0.7865
17340TIP3    H273512   5.710   6.722  13.554 -1.6854  0.1307  0.1531
17341TIP3   OH273513   4.302   0.677   2.302  0.0253 -0.2578  0.4990
17341TIP3    H173514   4.301   0.709   2.211 -2.4736 -0.3981  0.4036
17341TIP3    H273515   4.359   0.600   2.299 -1.3694 -1.3177 -1.4116
17342TIP3   OH273516   1.920   1.886   0.451 -0.6963 -0.4878 -0.2414
17342TIP3    H173517   1.863   1.933   0.390 -1.0192 -0.9282 -0.2772
17342TIP3    H273518   1.861   1.851   0.517 -0.1851  1.6961  1.4972
17343TIP3   OH273519   5.540   1.604  15.704 -0.2206  0.1226 -0.3723
17343TIP3    H173520   5.461   1.642  15.743 -0.4109 -1.4495  0.8775
17343TIP3    H273521   5.593   1.577  15.779 -0.3673 -2.5582 -1.1424
17344TIP3   OH273522   0.158   5.730   0.620 -0.0247  0.0081  0.2603
17344TIP3    H173523   0.099   5.806   0.623  0.5060  0.4234  2.7674
17344TIP3    H273524   0.244   5.767   0.601  0.0058 -0.1549  0.0799
17345TIP3   OH273525   6.584   2.437   4.763 -0.4917 -0.1386 -0.3004
17345TIP3    H173526   6.606   2.508   4.823 -1.7128  0.5320 -0.6101
17345TIP3    H273527   6.665   2.387   4.753  0.6529  1.7104 -0.7432
17346TIP3   OH273528   3.845   4.749  12.512  0.1800 -0.2914  0.7571
17346TIP3    H173529   3.847   4.769  12.418  0.3979  1.1215  1.0444
17346TIP3    H273530   3.932   4.713  12.530  0.5978  0.6182  0.6436
17347TIP3   OH273531   3.537   1.814   1.601 -0.2335  0.1461  0.5402
17347TIP3    H173532   3.528   1.898   1.557  2.3052  1.2393  1.8550
17347TIP3    H273533   3.461   1.808   1.659 -1.4993  0.5446 -1.0394
17348TIP3   OH273534   4.621   5.607  15.915 -0.4585 -0.4934 -0.4053
17348TIP3    H173535   4.574   5.644  15.989  2.5931 -0.7158  1.8609
17348TIP3    H273536   4.659   5.683  15.870 -1.0069 -0.4467 -0.7946
17349TIP3   OH273537   1.760   0.129  11.932  0.7910  0.0542 -0.0468
17349TIP3    H173538   1.792   0.156  11.846 -0.2970  1.8270  0.0440
17349TIP3    H273539   1.678   0.178  11.943  1.6034  1.0203  2.5887
17350TIP3   OH273540   1.484   0.612   2.909 -0.2094 -0.2477  0.0296
17350TIP3    H173541   1.423   0.665   2.960 -0.4477 -0.8923  0.4303
17350TIP3    H273542   1.437   0.593   2.828 -0.8476 -1.3453  0.6342
17351TIP3   OH273543   0.357   6.315  14.198  0.2695  0.1456  0.3656
17351TIP3    H173544   0.304   6.247  14.241  0.4364 -0.1491  0.1094
17351TIP3    H273545   0.342   6.393  14.251 -0.9945  0.2508 -0.1226
17352TIP3   OH273546   1.136   6.290   0.376 -0.1182 -0.2074 -0.0644
17352TIP3    H173547   1.200   6.347   0.418 -3.1727  2.3435  1.5445
17352TIP3    H273548   1.151   6.204   0.415  0.8984  0.8253  1.9867
17353TIP3   OH273549   1.824   1.159   6.237  0.7496 -0.1395  0.3124
17353TIP3    H173550   1.899   1.197   6.283 -0.0015 -2.2005  3.5749
17353TIP3    H273551   1.806   1.078   6.284 -0.1566 -2.6274 -3.7797
17354TIP3   OH273552   1.976   0.744   0.732  0.1148 -0.1478 -0.1925
17354TIP3    H173553   2.014   0.670   0.779 -0.6234 -0.6520 -0.3734
17354TIP3    H273554   1.911   0.705   0.673 -1.8682  0.7997  1.2559
17355TIP3   OH273555   2.729   0.608   1.848  0.4636  0.2819 -0.1914
17355TIP3    H173556   2.731   0.703   1.834  0.1432  0.2608 -0.3899
17355TIP3    H273557   2.793   0.593   1.918 -0.6132  0.8260  0.9429
17356TIP3   OH273558   2.264   3.930  10.124 -0.4792  0.3987  0.6832
17356TIP3    H173559   2.254   4.025  10.123 -4.0893  0.1706 -1.1628
17356TIP3    H273560   2.178   3.896  10.148  0.2866 -2.4080 -0.0930
17357TIP3   OH273561   0.786   5.221  14.946 -0.1784  0.1766  0.1474
17357TIP3    H173562   0.879   5.200  14.932 -0.3048 -0.2588 -0.0558
17357TIP3    H273563   0.748   5.141  14.982  0.1633  1.3071  3.2827
17358TIP3   OH273564   5.573   4.947  11.322 -0.3563  0.2162 -0.0729
17358TIP3    H173565   5.519   4.998  11.383  0.4534 -1.1539  1.9039
17358TIP3    H273566   5.568   4.857  11.355  1.3786 -0.3111 -1.1026
17359TIP3   OH273567   3.290   1.650  13.519  0.5215 -0.8226  0.0713
17359TIP3    H173568   3.249   1.608  13.443 -1.3762 -0.1135  0.6723
17359TIP3    H273569   3.250   1.608  13.595  0.5527  0.2140  0.6787
17360TIP3   OH273570   6.332   2.396   1.569  0.2856  0.1869 -0.0657
17360TIP3    H173571   6.339   2.382   1.664  0.8709  0.4450 -0.0672
17360TIP3    H273572   6.240   2.419   1.555  0.1840  0.1063  0.4328
17361TIP3   OH273573   3.181   6.556   3.037 -0.2093 -0.1877  0.0019
17361TIP3    H173574   3.209   6.470   3.066 -2.0243 -1.3974 -1.5640
17361TIP3    H273575   3.155   6.601   3.117 -0.5916 -1.6532  0.7338
17362TIP3   OH273576   0.919   3.135   4.046  0.2435 -0.2640  0.4489
17362TIP3    H173577   0.857   3.105   3.979  1.1691 -2.6372  0.5755
17362TIP3    H273578   0.996   3.163   3.997  0.4658 -0.8688  0.4418
17363TIP3   OH273579   6.524   6.035  15.109  0.3632  0.2547  0.5159
17363TIP3    H173580   6.446   5.988  15.141  0.7949 -0.9867 -0.1942
17363TIP3    H273581   6.544   5.994  15.025  0.7047  1.8140 -0.1950
17364TIP3   OH273582   5.066   2.453  16.065  0.1669 -0.2602  0.4938
17364TIP3    H173583   5.105   2.435  15.979  0.6153  0.8684  0.4370
17364TIP3    H273584   5.140   2.474  16.121 -0.1910 -0.1917  0.9475
17365TIP3   OH273585   0.599   1.080  13.626 -0.5858 -0.1578 -0.6919
17365TIP3    H173586   0.573   1.169  13.601 -0.6900  0.2060  0.6376
17365TIP3    H273587   0.692   1.076  13.607 -0.3305  0.6431  0.3124
17366TIP3   OH273588   1.501   4.541   3.030  0.0974 -0.0201 -0.0327
17366TIP3    H173589   1.566   4.473   3.012  0.7396  0.5451  0.1096
17366TIP3    H273590   1.422   4.492   3.056  0.1135 -0.7373 -1.2771
17367TIP3   OH273591   2.930   0.878   0.779  0.1816 -0.0006  0.6002
17367TIP3    H173592   2.982   0.816   0.829 -0.7421 -0.0197  1.5783
17367TIP3    H273593   2.974   0.884   0.694  0.3537 -1.9099  0.5115
17368TIP3   OH273594   4.132   4.806   0.691 -0.3593 -0.1653  0.0251
17368TIP3    H173595   4.182   4.782   0.613  0.1665  0.8065  0.0467
17368TIP3    H273596   4.049   4.839   0.658 -0.2415 -0.0046 -0.1093
17369TIP3   OH273597   0.304   5.709  13.786  0.0243  0.9953 -0.0913
17369TIP3    H173598   0.286   5.698  13.693  2.4872  0.0049 -0.5136
17369TIP3    H273599   0.261   5.634  13.828  3.0768 -1.5615 -1.1207
17370TIP3   OH273600   0.629   4.543   4.045 -0.1132  0.0601  0.4524
17370TIP3    H173601   0.656   4.608   3.979  1.7289 -1.0943  0.0056
17370TIP3    H273602   0.631   4.460   3.998 -2.0688 -0.4060  1.1317
17371TIP3   OH273603   1.115   0.076   3.957  0.2153  0.2023 -0.2111
17371TIP3    H173604   1.093  -0.017   3.956 -0.7704  0.4223 -0.1595
17371TIP3    H273605   1.144   0.095   3.868 -0.3943  0.0236 -0.4543
17372TIP3   OH273606   1.859   2.035   5.390 -0.0636 -0.1341 -0.3027
17372TIP3    H173607   1.913   2.064   5.463  0.7463 -0.3205 -0.8174
17372TIP3    H273608   1.885   1.944   5.375 -0.0009 -0.0016 -1.0160
17373TIP3   OH273609   5.522   3.853   0.578 -0.0544  0.3447  0.2631
17373TIP3    H173610   5.526   3.947   0.557 -1.8407  0.5355  0.6336
17373TIP3    H273611   5.506   3.811   0.494  0.3423  0.3995  0.1566
17374TIP3   OH273612   3.920   3.525   0.365  0.0916  0.0067 -0.4854
17374TIP3    H173613   3.942   3.618   0.354 -1.3059  0.5337  0.8401
17374TIP3    H273614   3.901   3.516   0.459 -1.7712 -1.1682 -0.9375
17375TIP3   OH273615   5.896   1.679  15.687 -1.1350 -0.6381  0.2050
17375TIP3    H173616   5.975   1.730  15.705 -0.7186 -0.8113 -1.0546
17375TIP3    H273617   5.894   1.669  15.592 -3.4849  0.6142  0.0366
17376TIP3   OH273618   0.045   1.845  10.947  0.2321 -0.2745 -0.3482
17376TIP3    H173619   0.030   1.761  10.904  0.2251  0.0910 -1.0819
17376TIP3    H273620   0.093   1.897  10.883  1.8320 -0.3154  0.7714
17377TIP3   OH273621   3.532   3.569  11.442  0.6566  0.1584  0.0703
17377TIP3    H173622   3.517   3.623  11.520  0.1709 -1.0028  0.8023
17377TIP3    H273623   3.520   3.629  11.369  0.3172  1.0850  0.8631
17378TIP3   OH273624   5.985   2.331  15.515  0.9565 -0.0769  0.2358
17378TIP3    H173625   6.079   2.323  15.529  0.9562 -3.0751 -0.9051
17378TIP3    H273626   5.946   2.301  15.597  1.0297 -1.9119 -0.3651
17379TIP3   OH273627   2.665   1.256  15.782  0.1682  0.0332 -0.4448
17379TIP3    H173628   2.709   1.340  15.779 -0.7270  0.5409  0.2312
17379TIP3    H273629   2.616   1.257  15.864  1.4871 -1.8373  0.4451
17380TIP3   OH273630   5.875   3.714  11.263 -0.3687  0.1924  0.5894
17380TIP3    H173631   5.864   3.802  11.228  1.4379  0.4820  0.6804
17380TIP3    H273632   5.954   3.718  11.316 -0.5021 -1.3789  0.9795
17381TIP3   OH273633   1.362   4.708  16.439  0.1055 -0.6466 -0.6169
17381TIP3    H173634   1.355   4.691  16.533 -0.1162  0.5547 -0.3992
17381TIP3    H273635   1.291   4.657  16.400 -1.4312  0.7985  0.1573
17382TIP3   OH273636   2.448   1.343   1.618 -0.1835  0.4777  0.3925
17382TIP3    H173637   2.529   1.393   1.608 -0.6401  1.1392 -0.0888
17382TIP3    H273638   2.474   1.265   1.667  0.8965  0.2759 -0.4670
17383TIP3   OH273639   6.400   3.633   2.539 -0.1085 -1.1950  0.3549
17383TIP3    H173640   6.418   3.615   2.446  0.6772 -0.6643  0.3930
17383TIP3    H273641   6.470   3.693   2.565 -1.8878  0.9158  0.5442
17384TIP3   OH273642   2.599   1.056   3.725  0.1576  1.0647  0.8178
17384TIP3    H173643   2.580   1.060   3.819 -0.1123  2.1619  0.7385
17384TIP3    H273644   2.590   0.964   3.702 -2.0728  1.0554  1.4399
17385TIP3   OH273645   3.373   4.132   3.210 -0.4825 -0.3097  0.6206
17385TIP3    H173646   3.403   4.170   3.127 -0.8607 -2.8190 -0.7687
17385TIP3    H273647   3.319   4.201   3.249  0.5587  1.3442 -0.6704
17386TIP3   OH273648   0.651   0.791   4.715  0.1467 -0.1298 -0.1986
17386TIP3    H173649   0.575   0.811   4.660 -0.7908 -0.3080  0.9747
17386TIP3    H273650   0.637   0.844   4.794  1.0842 -0.4128  0.1727
17387TIP3   OH273651   5.482   2.577   6.361 -0.4956 -0.9937 -0.3033
17387TIP3    H173652   5.466   2.643   6.294  1.0658 -0.9501 -0.6762
17387TIP3    H273653   5.571   2.594   6.390 -0.0437 -2.9345 -0.4098
17388TIP3   OH273654   3.804   5.051  13.631 -0.2035  0.2259  0.0203
17388TIP3    H173655   3.881   5.055  13.687  0.1590  0.6265 -0.5011
17388TIP3    H273656   3.801   5.136  13.588 -0.7706  0.1059 -0.1849
17389TIP3   OH273657   0.212   5.482   1.173  0.2151 -0.0688 -0.2879
17389TIP3    H173658   0.151   5.409   1.185 -0.3316  0.4036 -0.1332
17389TIP3    H273659   0.297   5.447   1.199 -0.3257 -0.1597  1.4632
17390TIP3   OH273660   1.425   5.357   5.455  0.1619  0.0067  0.4529
17390TIP3    H173661   1.427   5.287   5.521  1.4690 -1.1886 -0.7813
17390TIP3    H273662   1.333   5.362   5.429  0.0098 -1.1517  0.6881
17391TIP3   OH273663   0.056   2.064  11.877  0.0532  0.1583 -0.1765
17391TIP3    H173664   0.026   2.150  11.847 -0.1514  0.1225 -0.0785
17391TIP3    H273665   0.009   2.050  11.959  0.5043  0.1926  0.0867
17392TIP3   OH273666   5.107   2.280   4.225 -0.3089  0.0077 -0.3438
17392TIP3    H173667   5.186   2.283   4.171 -0.0287  1.0518  0.0820
17392TIP3    H273668   5.082   2.372   4.235 -1.1636 -0.2654  0.1319
17393TIP3   OH273669   2.831   3.245  13.282  0.3184 -0.0374  0.0442
17393TIP3    H173670   2.865   3.242  13.192  1.5530  0.7296  0.4504
17393TIP3    H273671   2.901   3.288  13.332  0.0658 -1.3334  1.5732
17394TIP3   OH273672   3.777   5.266   2.205  0.9135  0.4908  0.1042
17394TIP3    H173673   3.785   5.261   2.300 -0.3260  2.0017  0.3284
17394TIP3    H273674   3.694   5.221   2.186  1.5678 -0.5382 -0.3612
17395TIP3   OH273675   4.070   0.833   4.885  0.2605 -0.0243  0.4919
17395TIP3    H173676   4.114   0.840   4.970  1.2265  0.1045 -0.0046
17395TIP3    H273677   4.002   0.767   4.899 -0.2919  0.7526  1.6441
17396TIP3   OH273678   0.308   2.030  15.188 -0.5615  0.0550 -0.0218
17396TIP3    H173679   0.391   2.023  15.140  0.3023  0.5395  1.3599
17396TIP3    H273680   0.329   2.002  15.277 -1.4194  1.8967  0.8090
17397TIP3   OH273681   4.420   2.916   0.433  0.3879 -0.1901  0.3745
17397TIP3    H173682   4.385   2.828   0.424 -0.6878 -0.1311  3.1900
17397TIP3    H273683   4.362   2.959   0.495  2.4662  1.6100  1.2119
17398TIP3   OH273684   1.689   0.558  15.621 -0.0851 -0.4297 -0.0879
17398TIP3    H173685   1.760   0.595  15.568 -0.9527 -0.2668 -1.1643
17398TIP3    H273686   1.658   0.483  15.570 -0.7863 -0.4138  0.3097
17399TIP3   OH273687   0.541   6.231   0.785 -0.0208  0.1416 -0.0614
17399TIP3    H173688   0.457   6.189   0.766  0.3626 -1.4306  1.3974
17399TIP3    H273689   0.559   6.208   0.877  2.0009  0.4144 -0.3349
17400TIP3   OH273690   5.900   4.761   1.175  0.2672  0.6180 -0.0752
17400TIP3    H173691   5.922   4.670   1.194  0.6874  0.4557 -1.2604
17400TIP3    H273692   5.828   4.756   1.112 -0.2148  1.1146  0.4312
17401TIP3   OH273693   5.759   4.859   4.082 -0.2936  0.1596 -0.1039
17401TIP3    H173694   5.726   4.799   4.015  0.3585  0.8202 -1.0452
17401TIP3    H273695   5.838   4.816   4.116  0.3326  0.5843 -0.9761
17402TIP3   OH273696   2.217   6.369   6.536  0.2108  0.3568  0.9316
17402TIP3    H173697   2.176   6.442   6.490  1.2352  0.2363 -0.2418
17402TIP3    H273698   2.152   6.341   6.601 -0.5642  1.6875  0.7518
17403TIP3   OH273699   3.238   2.905   6.243  0.1196  0.6976  0.5265
17403TIP3    H173700   3.190   2.982   6.214 -0.3013 -0.2460 -1.4777
17403TIP3    H273701   3.329   2.923   6.220 -0.1201  0.2287 -0.8846
17404TIP3   OH273702   3.822   5.544   4.764  0.0391 -0.1728 -0.7200
17404TIP3    H173703   3.912   5.567   4.741 -0.3617  0.9338 -1.2344
17404TIP3    H273704   3.786   5.623   4.803 -0.3551 -0.9790  0.6341
17405TIP3   OH273705   4.131   3.461  14.311 -0.1427  0.3765  0.0567
17405TIP3    H173706   4.081   3.527  14.359 -0.2798  1.5763 -1.6378
17405TIP3    H273707   4.182   3.416  14.378  0.0547  2.2847  1.2674
17406TIP3   OH273708   4.110   5.603   3.034 -0.6072  0.4031 -0.1221
17406TIP3    H173709   4.111   5.516   3.074  0.1270  0.1340 -0.7101
17406TIP3    H273710   4.017   5.621   3.019 -0.8471  0.2196  1.0619
17407TIP3   OH273711   4.404   3.324  16.033 -0.2590  0.0740  0.4446
17407TIP3    H173712   4.467   3.382  15.991 -1.4493  0.3121 -1.0851
17407TIP3    H273713   4.458   3.261  16.082  1.2459 -0.5610 -1.8773
17408TIP3   OH273714   2.700   6.792  17.247  0.1960 -0.2321  0.9752
17408TIP3    H173715   2.660   6.763  17.165  1.3403 -0.9620  0.6413
17408TIP3    H273716   2.646   6.753  17.315 -2.2625  2.3480  0.7073
17409TIP3   OH273717   5.096   5.464   0.400 -0.6526  0.4193 -0.7002
17409TIP3    H173718   5.075   5.417   0.320 -0.3456 -0.2333 -0.4029
17409TIP3    H273719   5.168   5.414   0.440 -1.4255  0.1847  0.4623
17410TIP3   OH273720   0.392   4.056  11.363  0.0346  0.0519 -0.9512
17410TIP3    H173721   0.302   4.037  11.337 -0.4585  1.9908 -0.8314
17410TIP3    H273722   0.446   4.018  11.293 -0.9258 -0.2713 -1.5286
17411TIP3   OH273723   3.204   5.267  15.081  0.4008  0.4854 -0.1373
17411TIP3    H173724   3.288   5.276  15.127  0.6062 -0.0463 -0.3932
17411TIP3    H273725   3.227   5.276  14.988  0.0282  1.3029 -0.1504
17412TIP3   OH273726   4.809   0.343  12.508 -0.2993  0.5435 -0.0531
17412TIP3    H173727   4.840   0.402  12.577 -0.0252 -0.3505  0.6035
17412TIP3    H273728   4.767   0.401  12.445 -0.5534  1.3849  0.8558
17413TIP3   OH273729   4.285   1.243  12.992  0.2259  0.1351 -0.3224
17413TIP3    H173730   4.283   1.199  13.077 -0.7996  1.3947  0.3331
17413TIP3    H273731   4.233   1.187  12.935 -0.8328  0.3318  0.4289
17414TIP3   OH273732   0.278   5.936   1.978  0.5996 -0.2686 -0.0436
17414TIP3    H173733   0.270   5.872   1.906  2.3224  1.2794 -1.7319
17414TIP3    H273734   0.195   5.983   1.977  0.0448 -1.2103 -0.0313
17415TIP3   OH273735   2.062   6.479  15.107 -0.7317  0.1862  0.9594
17415TIP3    H173736   2.138   6.537  15.114 -0.9663  0.2770  3.6041
17415TIP3    H273737   1.987   6.537  15.111 -0.9606 -0.0777  0.5682
17416TIP3   OH273738   1.047   5.334   4.998 -0.3186  0.5335 -0.5151
17416TIP3    H173739   0.974   5.380   4.957 -1.0286  0.5825  0.7208
17416TIP3    H273740   1.048   5.248   4.956 -1.9933  0.0385  0.3710
17417TIP3   OH273741   1.405   5.867   1.751  0.5598 -0.1814 -0.0074
17417TIP3    H173742   1.495   5.880   1.720  0.7114  0.0437  0.5144
17417TIP3    H273743   1.364   5.813   1.683  1.4326 -1.2808  0.3040
17418TIP3   OH273744   3.612   3.639   3.166  1.1394  0.0564  0.0492
17418TIP3    H173745   3.702   3.637   3.201  1.0493 -0.0823  0.2749
17418TIP3    H273746   3.591   3.732   3.162  1.9633  0.2000 -1.7466
17419TIP3   OH273747   6.404   4.139  14.042 -0.0305 -0.4515  0.3336
17419TIP3    H173748   6.323   4.136  14.094  0.0446 -1.6361  0.4215
17419TIP3    H273749   6.445   4.222  14.065 -1.5793  0.5187 -0.2717
17420TIP3   OH273750   5.339   0.699   5.165  0.3608  0.7012 -0.1039
17420TIP3    H173751   5.269   0.734   5.109  0.6471  0.1478 -0.8214
17420TIP3    H273752   5.420   0.723   5.120  0.5592 -1.3153 -0.9138
17421TIP3   OH273753   4.679   0.656   2.935 -0.2148  0.5552 -0.4894
17421TIP3    H173754   4.590   0.642   2.967 -0.2509  1.7944  0.0046
17421TIP3    H273755   4.668   0.698   2.850 -0.1517  2.9254  0.6000
17422TIP3   OH273756   3.154   1.968  13.655 -0.1850 -0.5142  0.4443
17422TIP3    H173757   3.133   1.980  13.562  1.7802 -3.7682 -0.5749
17422TIP3    H273758   3.069   1.974  13.699 -1.3114  0.1691 -1.6675
17423TIP3   OH273759   3.594   5.200  11.043 -0.4259  0.5758 -0.4303
17423TIP3    H173760   3.686   5.217  11.024  0.0811 -0.1443  1.1426
17423TIP3    H273761   3.553   5.286  11.045  0.4065  0.9775 -0.3117
17424TIP3   OH273762   2.191   0.126   1.247 -0.4016 -0.4705  0.7010
17424TIP3    H173763   2.263   0.187   1.256 -0.0580 -0.8140  0.3235
17424TIP3    H273764   2.135   0.142   1.323 -0.9681  1.1589 -0.0175
17425TIP3   OH273765   3.451   1.116   6.180  0.3882 -0.1538 -0.0541
17425TIP3    H173766   3.432   1.197   6.132 -0.4872 -0.8772 -0.9889
17425TIP3    H273767   3.545   1.103   6.169  0.4263  0.4014 -0.4407
17426TIP3   OH273768   1.756   6.443  16.442 -0.0362  0.3589 -0.0418
17426TIP3    H173769   1.669   6.405  16.452 -0.2370  1.0441  0.8245
17426TIP3    H273770   1.804   6.378  16.390 -1.0882  0.0339 -0.6271
17427TIP3   OH273771   3.788   5.805   6.258 -0.1578  0.2840 -0.7300
17427TIP3    H173772   3.778   5.893   6.220 -1.6877  0.3259 -0.2666
17427TIP3    H273773   3.706   5.761   6.238 -1.6380  0.6904  3.5044
17428TIP3   OH273774   3.022   6.722   1.784 -0.5269 -0.0469  0.1073
17428TIP3    H173775   2.977   6.801   1.814  0.8869  0.5576  0.7355
17428TIP3    H273776   3.085   6.753   1.718 -0.3224 -0.7150 -0.0238
17429TIP3   OH273777   6.146   0.666   2.733 -0.1545  0.7722  1.0606
17429TIP3    H173778   6.091   0.681   2.656  0.9767 -0.2386 -0.0170
17429TIP3    H273779   6.213   0.735   2.729  1.2671 -0.5763 -0.2520
17430TIP3   OH273780   1.795   6.463  14.159  0.3727 -0.3659 -0.0134
17430TIP3    H173781   1.730   6.395  14.175 -0.1680  0.6532  2.9116
17430TIP3    H273782   1.745   6.545  14.157  1.4192  0.3814  1.7016
17431TIP3   OH273783   5.414   5.853   4.392  0.1826 -0.3722  0.0336
17431TIP3    H173784   5.459   5.774   4.360 -0.5950 -1.0591  0.5985
17431TIP3    H273785   5.435   5.855   4.485  0.3561  0.2129 -0.0147
17432TIP3   OH273786   5.310   2.678   1.743  0.2047  0.3501  1.0802
17432TIP3    H173787   5.291   2.688   1.836 -1.5061  0.0979  0.7772
17432TIP3    H273788   5.395   2.633   1.741 -0.4304 -0.9959  2.5287
17433TIP3   OH273789   5.907   1.420  11.764  0.0655  0.4726  0.6579
17433TIP3    H173790   5.879   1.407  11.674  0.7910  1.3042  0.3008
17433TIP3    H273791   5.853   1.492  11.796  1.7867  2.1622 -0.0716
17434TIP3   OH273792   4.276   5.833   5.445 -0.1565  0.1978  0.6022
17434TIP3    H173793   4.275   5.855   5.352 -2.2793  1.1609  0.7979
17434TIP3    H273794   4.208   5.766   5.455  0.7754 -0.6768  1.3148
17435TIP3   OH273795   0.963   2.166   5.075 -0.3808  0.2178 -0.2765
17435TIP3    H173796   0.913   2.146   4.996 -2.3236  2.7362  0.1748
17435TIP3    H273797   0.919   2.116   5.144  0.0411 -0.4079 -0.4581
17436TIP3   OH273798   1.674   2.799  11.544  0.1631 -0.1796  0.1433
17436TIP3    H173799   1.625   2.830  11.620  0.4154  0.5466  0.0150
17436TIP3    H273800   1.763   2.785  11.577  0.3267  0.3516 -0.0673
17437TIP3   OH273801   3.993   2.736  14.175  0.1685 -0.0760 -0.0149
17437TIP3    H173802   3.943   2.798  14.228  2.2353  0.5154  1.3853
17437TIP3    H273803   3.995   2.775  14.088  1.6534  2.0955  0.8901
17438TIP3   OH273804   4.103   1.437  13.715  0.7938  0.2219  0.8751
17438TIP3    H173805   4.033   1.500  13.733 -0.9400 -0.7466 -1.7500
17438TIP3    H273806   4.070   1.355  13.753  1.0660  0.0188  0.6693
17439TIP3   OH273807   4.642   4.471   0.233 -0.1781 -0.3945  0.9477
17439TIP3    H173808   4.727   4.461   0.191 -0.1840  0.8520  0.6048
17439TIP3    H273809   4.651   4.426   0.317  0.3341 -1.5461  0.2989
17440TIP3   OH273810   1.645   1.407   1.418 -0.2995 -0.8048  0.7176
17440TIP3    H173811   1.657   1.491   1.374  1.1307 -1.6129 -0.5221
17440TIP3    H273812   1.643   1.428   1.511 -0.3611  0.6429  0.4028
17441TIP3   OH273813   3.778   4.379  16.477  0.4135 -0.0712 -0.0955
17441TIP3    H173814   3.811   4.309  16.420  1.7373  0.4838 -0.0597
17441TIP3    H273815   3.812   4.459  16.438 -1.7689  0.6728 -0.6166
17442TIP3   OH273816   6.206   0.549  11.059 -0.0292  0.1215  0.3416
17442TIP3    H173817   6.260   0.603  11.002  0.5469  1.0075  1.6691
17442TIP3    H273818   6.187   0.471  11.008 -0.8590  1.5318 -1.6436
17443TIP3   OH273819   3.571   2.821   1.909 -0.0969 -0.3737 -0.1356
17443TIP3    H173820   3.534   2.910   1.913  1.2299  0.3279 -2.0910
17443TIP3    H273821   3.501   2.765   1.943 -1.6787  1.2284 -0.5402
17444TIP3   OH273822   2.584   1.280  12.930 -0.1918  0.5805 -0.7342
17444TIP3    H173823   2.510   1.315  12.880  0.1349  2.4134 -0.0204
17444TIP3    H273824   2.584   1.186  12.910 -1.6890  0.8068 -2.0390
17445TIP3   OH273825   1.115   6.084  15.362 -0.4433 -0.0509  0.9663
17445TIP3    H173826   1.102   6.168  15.406 -1.3425 -0.5297  1.6545
17445TIP3    H273827   1.115   6.020  15.433  0.8846 -0.5839  0.5128
17446TIP3   OH273828   1.626   2.085  14.932 -0.2987  0.1846  0.2971
17446TIP3    H173829   1.672   2.002  14.945 -0.1420  0.2576  0.2240
17446TIP3    H273830   1.685   2.135  14.875 -0.4887  0.2645  0.1715
17447TIP3   OH273831   1.269   4.620  11.490 -0.2688 -0.2022  0.1133
17447TIP3    H173832   1.196   4.576  11.447 -0.4254  0.5684 -0.4388
17447TIP3    H273833   1.282   4.700  11.439 -0.9502  1.1404  1.9627
17448TIP3   OH273834   1.267   0.221  13.195 -0.0296 -0.0233 -0.0519
17448TIP3    H173835   1.261   0.128  13.176  0.9894 -0.3225  1.0013
17448TIP3    H273836   1.178   0.254  13.183 -0.5213 -1.2519  0.1483
17449TIP3   OH273837   2.697   1.921   1.134 -0.7243 -0.0109 -0.0636
17449TIP3    H173838   2.613   1.887   1.103 -0.8046  0.5041 -0.4183
17449TIP3    H273839   2.694   2.014   1.113  0.2415 -0.1254 -0.7649
17450TIP3   OH273840   2.405   2.551  15.709 -0.0070 -0.2463 -0.0722
17450TIP3    H173841   2.466   2.536  15.636 -1.4209 -1.8150 -0.9885
17450TIP3    H273842   2.345   2.617  15.676 -0.1234 -0.3132  0.0057
17451TIP3   OH273843   2.840   2.720   1.963 -0.0713  0.2735  0.0067
17451TIP3    H173844   2.875   2.695   2.049 -1.2237 -0.0018  0.4159
17451TIP3    H273845   2.757   2.673   1.956 -0.0521  0.3813 -1.2200
17452TIP3   OH273846   6.566   5.208   1.834  0.0660 -0.0366 -0.2825
17452TIP3    H173847   6.584   5.148   1.762  0.5491 -1.4000  0.9300
17452TIP3    H273848   6.526   5.154   1.902  0.2707  1.0520  0.7519
17453TIP3   OH273849   5.670   5.947   3.539 -0.0089  0.4421  0.8095
17453TIP3    H173850   5.712   5.863   3.553  0.8588  0.8192  0.5154
17453TIP3    H273851   5.627   5.967   3.622  1.1132  0.4512  1.3962
17454TIP3   OH273852   2.526   6.793   5.965  0.0428  0.2383  0.2594
17454TIP3    H173853   2.618   6.792   5.993  1.2047  1.9083 -2.9541
17454TIP3    H273854   2.519   6.720   5.904 -0.8715 -0.0350  0.6820
17455TIP3   OH273855   5.252   0.759   1.897  0.2095 -0.0347  0.4190
17455TIP3    H173856   5.253   0.671   1.860 -0.3692  1.0421 -2.3758
17455TIP3    H273857   5.159   0.781   1.905  0.3493  0.3406  1.1412
17456TIP3   OH273858   2.745   6.302   4.599 -0.5197 -0.0951 -0.1697
17456TIP3    H173859   2.657   6.288   4.564 -1.8280  0.9336  2.4714
17456TIP3    H273860   2.762   6.224   4.652  0.3704 -0.4734 -0.9765
17457TIP3   OH273861   2.367   6.093  11.495 -0.2355 -0.1726 -0.1554
17457TIP3    H173862   2.324   6.011  11.520 -2.9388  0.1300 -3.1162
17457TIP3    H273863   2.303   6.161  11.515  1.4119  1.1347  0.9732
17458TIP3   OH273864   1.260   6.527   2.383  0.0557  0.0293 -0.2299
17458TIP3    H173865   1.343   6.567   2.359  0.3136 -0.7238 -0.6340
17458TIP3    H273866   1.278   6.483   2.467 -0.3773  1.2022  0.5012
17459TIP3   OH273867   2.950   0.910  13.751  0.3113  0.4143 -0.0540
17459TIP3    H173868   2.979   0.898  13.660 -0.4651  0.0902 -0.2686
17459TIP3    H273869   2.870   0.858  13.757  0.4048  0.3708  0.8434
17460TIP3   OH273870   1.182   4.595   4.184 -0.2610 -0.8896 -0.6537
17460TIP3    H173871   1.100   4.644   4.182 -0.5855 -1.4261 -0.7758
17460TIP3    H273872   1.167   4.524   4.247  0.3897 -0.5190 -0.0708
17461TIP3   OH273873   3.194   3.207   3.190  0.6535 -0.2071  0.2074
17461TIP3    H173874   3.237   3.132   3.230  0.5755 -0.1531  0.3918
17461TIP3    H273875   3.160   3.258   3.263  0.6918  0.0010  0.0835
17462TIP3   OH273876   6.129   1.325   5.906 -0.1977  0.4982  0.2555
17462TIP3    H173877   6.074   1.300   5.980 -1.6455 -1.3840 -1.3338
17462TIP3    H273878   6.067   1.341   5.835  1.2132  0.2411 -1.0888
17463TIP3   OH273879   5.783   0.758   4.122  0.5178  0.2944  0.0644
17463TIP3    H173880   5.865   0.710   4.132 -0.5062 -1.7686 -0.7134
17463TIP3    H273881   5.770   0.801   4.206  0.3727 -2.7638  1.7452
17464TIP3   OH273882   0.467   5.388  13.720  0.1016 -0.3822  0.1262
17464TIP3    H173883   0.385   5.415  13.762 -0.1935 -1.4799  0.2802
17464TIP3    H273884   0.475   5.446  13.644 -1.5425 -1.1483 -0.6788
17465TIP3   OH273885   0.739   4.516  13.306  0.0216  0.0792 -0.1319
17465TIP3    H173886   0.744   4.432  13.351 -0.7491  0.0874 -0.0289
17465TIP3    H273887   0.781   4.578  13.366  0.4088 -0.1911 -0.1206
17466TIP3   OH273888   1.631   3.325  17.067  0.3981  0.2194 -0.3793
17466TIP3    H173889   1.562   3.369  17.017 -0.6687  0.5265  1.2996
17466TIP3    H273890   1.639   3.239  17.026 -2.3598 -0.5465  0.5379
17467TIP3   OH273891   6.296   0.148   3.772  0.1689 -0.9877  0.4018
17467TIP3    H173892   6.263   0.151   3.862 -0.8959  1.2036  0.0146
17467TIP3    H273893   6.381   0.190   3.776  0.0119 -0.6629  0.3537
17468TIP3   OH273894   5.731   1.575  14.657  0.1829  0.1589 -0.3328
17468TIP3    H173895   5.730   1.637  14.584 -0.6566 -1.6570 -1.9486
17468TIP3    H273896   5.718   1.629  14.735 -1.1899  1.9548 -1.7213
17469TIP3   OH273897   5.946   5.193   1.896  0.1195  0.2751  0.1770
17469TIP3    H173898   5.885   5.124   1.921 -2.6580  2.6632  0.4655
17469TIP3    H273899   5.986   5.161   1.815  1.2125 -2.8785  1.8037
17470TIP3   OH273900   5.565   4.453   6.251  0.7449  0.0608  0.0971
17470TIP3    H173901   5.560   4.492   6.339 -0.1566  2.1330 -0.8070
17470TIP3    H273902   5.629   4.507   6.205  0.8382 -0.6911 -0.6636
17471TIP3   OH273903   0.243   6.468  11.301  0.0428  0.2251 -0.0602
17471TIP3    H173904   0.214   6.555  11.328 -1.6847 -0.0241 -0.9720
17471TIP3    H273905   0.279   6.482  11.213  1.8576  0.3534  0.6590
17472TIP3   OH273906   4.618   5.039  11.507  0.5344 -0.6340  0.5804
17472TIP3    H173907   4.635   4.951  11.473  1.1475  0.1610 -1.2837
17472TIP3    H273908   4.544   5.027  11.567 -1.2942 -2.0195 -1.7655
17473TIP3   OH273909   1.923   4.418  12.632  0.2615  0.8277  0.8074
17473TIP3    H173910   1.838   4.381  12.655 -0.4638  1.4752 -0.7383
17473TIP3    H273911   1.920   4.430  12.537  1.9773  1.1368  0.7527
17474TIP3   OH273912   5.306   1.172   2.784 -0.3632 -0.6128  0.1280
17474TIP3    H173913   5.323   1.173   2.878 -0.6667  0.9545  0.1973
17474TIP3    H273914   5.280   1.082   2.765  0.8766 -1.2572  1.3118
17475TIP3   OH273915   1.259   2.935   0.575  0.2850  0.1962  0.0269
17475TIP3    H173916   1.294   2.853   0.542 -0.4507 -0.0889 -0.0600
17475TIP3    H273917   1.186   2.956   0.516 -1.1353 -0.3895  1.5036
17476TIP3   OH273918   1.186   1.001  16.842  0.2852 -0.1502  0.6339
17476TIP3    H173919   1.129   0.941  16.890  2.8649 -0.9742  2.9562
17476TIP3    H273920   1.153   1.088  16.863 -1.6689 -0.6033 -0.3001
17477TIP3   OH273921   5.597   5.716   1.055 -0.3452 -0.1111 -0.2721
17477TIP3    H173922   5.540   5.787   1.084  0.7449  0.2617  1.0959
17477TIP3    H273923   5.541   5.638   1.056 -0.8533  0.2380  1.0338
17478TIP3   OH273924   5.426   3.042   5.871  0.2028 -0.1605 -0.6426
17478TIP3    H173925   5.353   2.982   5.889 -0.5372  0.9240  0.0779
17478TIP3    H273926   5.422   3.106   5.941  0.8557  0.8556 -1.5037
17479TIP3   OH273927   2.304   2.787  15.254 -0.2067 -0.1483  0.1179
17479TIP3    H173928   2.242   2.801  15.325 -0.2875  1.8783 -0.2885
17479TIP3    H273929   2.349   2.871  15.244 -0.6047 -0.1593 -2.5796
17480TIP3   OH273930   0.430   6.090  12.671 -0.2734 -0.6706 -0.2083
17480TIP3    H173931   0.523   6.078  12.690 -0.1340  0.4068 -0.1163
17480TIP3    H273932   0.384   6.036  12.735  0.2592  0.3332  1.0594
17481TIP3   OH273933   4.941   2.660   2.623  0.0397  0.1931 -0.5681
17481TIP3    H173934   4.997   2.582   2.625  1.4722  1.2023  0.3826
17481TIP3    H273935   4.947   2.692   2.533  2.3036  1.1617 -0.1262
17482TIP3   OH273936   5.481   1.069   4.193 -0.7026  0.5274  0.3859
17482TIP3    H173937   5.427   1.011   4.138 -0.1488 -1.7599  2.1187
17482TIP3    H273938   5.570   1.058   4.160 -0.3915 -0.7342  1.5963
17483TIP3   OH273939   2.605   0.490  14.455  1.1936  0.2422 -0.6013
17483TIP3    H173940   2.574   0.467  14.368  0.4269 -0.5177 -0.1565
17483TIP3    H273941   2.546   0.559  14.485 -0.3681 -1.4058  0.3605
17484TIP3   OH273942   5.383   3.040   0.428  0.0053  0.0173 -0.0683
17484TIP3    H173943   5.368   3.128   0.463  0.8934  1.5841 -3.2190
17484TIP3    H273944   5.477   3.026   0.437 -0.2155 -0.9393  0.9958
17485TIP3   OH273945   6.443   3.256  17.124  0.5010 -0.3247 -0.5488
17485TIP3    H173946   6.508   3.237  17.191 -0.3111 -0.4804  0.2042
17485TIP3    H273947   6.479   3.331  17.076  1.4046 -0.6513 -0.3927
17486TIP3   OH273948   2.652   2.697   0.213 -0.0226  0.3929 -0.6341
17486TIP3    H173949   2.626   2.656   0.130 -0.9666 -0.9199  0.2791
17486TIP3    H273950   2.744   2.672   0.224 -0.3742 -0.8782 -0.4637
17487TIP3   OH273951   0.511   0.858  16.197  0.2300 -0.0247  0.2138
17487TIP3    H173952   0.471   0.826  16.278 -0.1115 -2.4285 -0.8176
17487TIP3    H273953   0.594   0.812  16.192  0.5461  0.6059 -0.4997
17488TIP3   OH273954   0.382   6.776   2.492 -0.0405  0.3290 -0.4049
17488TIP3    H173955   0.404   6.752   2.402  1.4109 -1.5731  0.3954
17488TIP3    H273956   0.464   6.767   2.541 -1.1767 -0.6602  1.4744
17489TIP3   OH273957   6.405   0.464   5.884 -0.1857 -0.4298 -0.0803
17489TIP3    H173958   6.388   0.483   5.792 -1.1676  1.3852  0.4374
17489TIP3    H273959   6.426   0.548   5.923 -1.3648 -0.8822  1.6785
17490TIP3   OH273960   1.701   3.516   1.651  0.1330  0.1725  0.1507
17490TIP3    H173961   1.632   3.513   1.586 -0.1626 -1.1366  0.4980
17490TIP3    H273962   1.668   3.575   1.719 -0.4300 -0.0628  0.0830
17491TIP3   OH273963   3.391   1.395   4.187  0.0581  0.5990  0.2982
17491TIP3    H173964   3.366   1.479   4.148  0.4799  1.3968  1.6888
17491TIP3    H273965   3.397   1.412   4.281 -0.6899 -1.2034  0.7278
17492TIP3   OH273966   3.683   5.110  15.823 -0.1398  0.2307  0.0748
17492TIP3    H173967   3.607   5.089  15.768  1.5587 -2.0679 -1.5953
17492TIP3    H273968   3.739   5.033  15.816  2.5264  1.9670  0.9388
17493TIP3   OH273969   6.556   5.120  12.836  0.1967  0.3604  0.1551
17493TIP3    H173970   6.612   5.178  12.784 -0.8297  1.4508  0.2284
17493TIP3    H273971   6.522   5.057  12.772  1.7307 -0.5480  0.1642
17494TIP3   OH273972   5.233   0.636  11.713  0.3019 -0.4293  0.7134
17494TIP3    H173973   5.139   0.652  11.724 -0.3892 -1.4822 -2.4299
17494TIP3    H273974   5.248   0.650  11.619  3.9268  2.4731  1.5043
17495TIP3   OH273975   0.048   5.374  15.489  0.2221  0.2657  0.0788
17495TIP3    H173976   0.126   5.349  15.440  1.4015  2.2402  0.8138
17495TIP3    H273977   0.043   5.310  15.561  0.9184 -0.1320 -0.2205
17496TIP3   OH273978   3.713   3.538  15.428 -0.5078 -0.4638 -0.4305
17496TIP3    H173979   3.621   3.511  15.425 -0.6414 -0.0314 -0.2662
17496TIP3    H273980   3.711   3.627  15.464  0.0772 -0.9538  0.8789
17497TIP3   OH273981   2.196   3.121   0.301  0.2625 -0.2329  0.2685
17497TIP3    H173982   2.181   3.028   0.290  1.3172 -0.3361 -0.4281
17497TIP3    H273983   2.274   3.127   0.357 -0.3777  0.2500  1.1456
17498TIP3   OH273984   5.418   1.167   1.917 -0.4359  0.7615 -0.4273
17498TIP3    H173985   5.394   1.228   1.986 -0.6962 -0.1409  0.2900
17498TIP3    H273986   5.487   1.212   1.868 -0.1685  1.3563  0.4807
17499TIP3   OH273987   5.741   2.416  12.124 -0.0896  0.9061  0.3135
17499TIP3    H173988   5.784   2.331  12.117 -2.1068 -0.0423 -1.9707
17499TIP3    H273989   5.658   2.399  12.167 -1.0342  1.4562 -1.2126
17500TIP3   OH273990   4.860   2.396   2.375 -0.1545 -0.1437 -0.0867
17500TIP3    H173991   4.835   2.332   2.308 -0.5696 -0.2735  0.1863
17500TIP3    H273992   4.931   2.353   2.423 -1.5420 -1.1506  1.1857
17501TIP3   OH273993   6.054   5.429  14.504 -0.2144 -0.1508 -0.3202
17501TIP3    H173994   6.099   5.348  14.479  2.5959  1.5597 -1.1277
17501TIP3    H273995   6.110   5.468  14.571 -1.6257  1.0655  0.2003
17502TIP3   OH273996   4.079   5.693  16.256 -0.4964 -0.7788 -0.1084
17502TIP3    H173997   3.997   5.648  16.272  0.0985 -1.3515  1.5054
17502TIP3    H273998   4.133   5.674  16.333  0.9347  0.0660 -0.8492
17503TIP3   OH273999   1.600   0.299   0.518 -0.2040 -0.6000 -0.4615
17503TIP3    H174000   1.512   0.333   0.533 -0.4530 -1.6364  0.4639
17503TIP3    H274001   1.644   0.369   0.468 -0.7497  1.0279  1.2266
17504TIP3   OH274002   1.397   0.825  13.978 -0.3308 -0.3902  0.0785
17504TIP3    H174003   1.370   0.900  14.030 -0.2828  0.2104 -0.7350
17504TIP3    H274004   1.315   0.790  13.942 -0.2560 -0.0205 -0.4654
17505TIP3   OH274005   5.058   2.729   3.745  0.3130 -0.0878  0.7262
17505TIP3    H174006   5.076   2.784   3.668  2.0204 -2.3305 -0.6228
17505TIP3    H274007   5.040   2.791   3.815 -0.1221  2.1059 -1.1863
17506TIP3   OH274008   6.596   4.201   5.294 -0.6028 -0.7495 -0.1818
17506TIP3    H174009   6.570   4.222   5.204 -2.1955  1.5720  0.7433
17506TIP3    H274010   6.514   4.200   5.343  0.4510  0.4301  1.6986
17507TIP3   OH274011   6.343   3.284   3.637 -0.2827 -0.4839 -0.2317
17507TIP3    H174012   6.383   3.293   3.550 -0.2722 -1.3532 -0.3334
17507TIP3    H274013   6.298   3.199   3.633  0.9825 -1.2637  1.1017
17508TIP3   OH274014   2.617   2.674   3.758 -0.1188 -0.0182 -0.1942
17508TIP3    H174015   2.551   2.692   3.691 -0.0811 -1.6288 -0.6889
17508TIP3    H274016   2.696   2.718   3.727  0.0698 -1.2460 -1.5488
17509TIP3   OH274017   0.151   5.221  15.872  0.6955 -0.3426 -0.1181
17509TIP3    H174018   0.245   5.232  15.883  0.4580  0.1757  1.7756
17509TIP3    H274019   0.121   5.305  15.836  0.8679 -0.1875  0.0901
17510TIP3   OH274020   6.168   1.696   4.534 -0.1213 -0.0200 -0.1564
17510TIP3    H174021   6.251   1.726   4.572  0.0977  0.1469 -0.7600
17510TIP3    H274022   6.102   1.720   4.599 -0.0438  2.3950 -0.8784
17511TIP3   OH274023   1.113   5.041  15.359 -0.6678  0.0877  0.3024
17511TIP3    H174024   1.075   5.113  15.308  0.4232 -0.1338 -0.8821
17511TIP3    H274025   1.174   5.085  15.419 -0.1537  0.1921 -0.2791
17512TIP3   OH274026   5.949   0.172   5.221 -0.3266 -0.8097  0.3012
17512TIP3    H174027   5.881   0.107   5.204  0.9048 -1.8672 -0.8061
17512TIP3    H274028   5.906   0.237   5.277 -1.4968 -2.7533  1.8110
17513TIP3   OH274029   5.364   4.285  15.757 -0.2648 -0.0019 -0.1867
17513TIP3    H174030   5.298   4.220  15.781 -0.1875 -1.3545 -3.2395
17513TIP3    H274031   5.326   4.333  15.684  0.5609  1.9923  0.6085
17514TIP3   OH274032   4.895   3.268   4.879  0.2391  0.7462 -0.2977
17514TIP3    H174033   4.918   3.335   4.814 -0.4291  1.4897  0.2125
17514TIP3    H274034   4.941   3.295   4.959 -0.2710  0.7721 -0.0064
17515TIP3   OH274035   6.397   0.778   2.440 -0.4949 -0.1945 -0.3594
17515TIP3    H174036   6.405   0.789   2.535 -0.5208  1.0412 -0.4839
17515TIP3    H274037   6.336   0.847   2.413  0.6011  0.3837 -1.4544
17516TIP3   OH274038   6.266   5.085  17.260 -0.0045  0.2447 -0.0335
17516TIP3    H174039   6.185   5.129  17.237  1.1875  1.5599 -2.0138
17516TIP3    H274040   6.242   4.993  17.269 -1.8941  0.7660  0.5764
17517TIP3   OH274041   6.460   1.880   1.860  0.1449  0.1250 -0.3122
17517TIP3    H174042   6.382   1.840   1.897  1.2842 -0.8221  1.1967
17517TIP3    H274043   6.480   1.953   1.918  0.6248  0.1057 -0.4453
17518TIP3   OH274044   5.709   2.461  12.584  0.3751  0.4927  0.1673
17518TIP3    H174045   5.773   2.511  12.635  1.5416 -0.1953 -0.5885
17518TIP3    H274046   5.725   2.485  12.493  2.1668 -2.4583 -0.4242
17519TIP3   OH274047   2.268   5.516   5.810  0.2331  0.5342  0.1283
17519TIP3    H174048   2.288   5.607   5.830  1.0027  0.3551  0.1934
17519TIP3    H274049   2.348   5.468   5.832  0.2379  0.0005 -0.9811
17520TIP3   OH274050   6.678   5.564   5.212 -0.4146 -0.2827  0.1253
17520TIP3    H174051   6.770   5.577   5.187 -0.2318 -1.5293  0.1141
17520TIP3    H274052   6.635   5.538   5.130 -0.3255 -1.8300  0.5393
17521TIP3   OH274053   2.509   6.485   0.686 -0.5484 -0.2017  0.0964
17521TIP3    H174054   2.593   6.484   0.639  0.8338  1.7310  2.2986
17521TIP3    H274055   2.496   6.577   0.711 -3.4936 -0.4022 -0.3616
17522TIP3   OH274056   2.656   3.705   5.272 -0.2976  0.1705  0.1066
17522TIP3    H174057   2.583   3.743   5.223 -0.0910 -0.3582 -0.6268
17522TIP3    H274058   2.668   3.765   5.347  0.1428  1.6725 -1.1075
17523TIP3   OH274059   1.036   6.754   6.090 -0.4259  0.0776 -0.1317
17523TIP3    H174060   0.959   6.748   6.034 -0.3847  0.9360 -0.2943
17523TIP3    H274061   1.038   6.671   6.138 -1.4231  0.0341 -0.1530
17524TIP3   OH274062   1.744   0.997   0.520  0.1650  0.0002 -0.0050
17524TIP3    H174063   1.741   0.915   0.471  0.2852  0.3412 -0.6048
17524TIP3    H274064   1.836   1.026   0.513  0.1680  0.0872  0.3689
17525TIP3   OH274065   2.443   0.859  13.141  0.4747 -0.0666  0.4440
17525TIP3    H174066   2.394   0.894  13.067  1.9753  0.7935 -0.1939
17525TIP3    H274067   2.432   0.764  13.134  0.1731  0.0298 -0.5745
17526TIP3   OH274068   1.702   3.300   3.944 -0.2636  0.0991  0.2397
17526TIP3    H174069   1.613   3.332   3.926 -0.3643 -0.3657 -0.1016
17526TIP3    H274070   1.751   3.379   3.969 -0.3747  0.6052 -1.0617
17527TIP3   OH274071   0.482   4.428  15.376  0.4390  0.4840 -0.5953
17527TIP3    H174072   0.536   4.439  15.454 -0.4720  1.8774 -0.1027
17527TIP3    H274073   0.425   4.506  15.376 -1.7903 -1.0442 -0.8723
17528TIP3   OH274074   6.775   0.655   5.267  0.2892  0.1381  0.2404
17528TIP3    H174075   6.864   0.659   5.302  0.1996 -0.3184  0.5253
17528TIP3    H274076   6.740   0.573   5.301  0.4451 -0.6903 -1.4977
17529TIP3   OH274077   5.856   2.076  11.751 -0.0310  1.1502  0.0405
17529TIP3    H174078   5.877   2.014  11.682 -0.1104  0.9401  0.2021
17529TIP3    H274079   5.763   2.065  11.766  0.3783 -0.4655  1.7590
17530TIP3   OH274080   0.197   2.346   5.221  0.2258 -0.3880 -0.2131
17530TIP3    H174081   0.195   2.419   5.283  0.4708 -0.5801  0.0202
17530TIP3    H274082   0.152   2.275   5.266  0.8083 -0.6719 -0.0712
17531TIP3   OH274083   1.155   3.884  11.687  0.6210  0.1640 -0.0752
17531TIP3    H174084   1.094   3.812  11.673  0.1391  0.2295  1.5734
17531TIP3    H274085   1.154   3.932  11.604  1.1799 -1.8461 -1.3310
17532TIP3   OH274086   6.147   0.149  16.987  0.7040  0.0184 -0.3696
17532TIP3    H174087   6.214   0.203  17.028  0.1593  0.1180  0.3994
17532TIP3    H274088   6.105   0.103  17.059  0.2223 -0.3653 -0.8819
17533TIP3   OH274089   3.672   6.086  12.252  0.1041  0.3787  0.6233
17533TIP3    H174090   3.718   6.013  12.211  2.3599  1.3872  1.1947
17533TIP3    H274091   3.620   6.124  12.181 -1.3650 -1.8833  0.3823
17534TIP3   OH274092   2.788   3.823  10.074 -0.5725  0.4676 -0.3829
17534TIP3    H174093   2.696   3.800  10.061 -0.5592 -0.2631  0.7803
17534TIP3    H274094   2.787   3.918  10.090 -1.0953  0.4849 -0.5168
17535TIP3   OH274095   1.363   5.609   2.183 -0.5172  0.2237  0.7409
17535TIP3    H174096   1.368   5.535   2.122 -1.3475 -0.2926  1.2832
17535TIP3    H274097   1.332   5.682   2.130  1.1280  0.4396  0.0015
17536TIP3   OH274098   1.283   5.305   0.592  0.3375 -0.2749  0.1284
17536TIP3    H174099   1.284   5.216   0.559 -0.6025 -0.5304  0.7483
17536TIP3    H274100   1.201   5.342   0.560  0.8586  0.4669 -0.3698
17537TIP3   OH274101   3.999   4.691  11.686 -0.4399  0.3499 -0.0053
17537TIP3    H174102   4.012   4.596  11.678  1.0948  0.3093  2.1157
17537TIP3    H274103   4.076   4.729  11.644  0.1102  0.5517  1.1486
17538TIP3   OH274104   3.171   2.879  16.010  0.2288  0.0253  0.1982
17538TIP3    H174105   3.237   2.934  15.966  0.4903 -0.3461  0.1232
17538TIP3    H274106   3.176   2.905  16.102  0.7841 -0.3053  0.2626
17539TIP3   OH274107   1.951   5.381   3.490 -0.0327 -0.3681 -0.6037
17539TIP3    H174108   1.961   5.475   3.476 -0.8110 -0.1570  0.1328
17539TIP3    H274109   1.875   5.374   3.548 -0.5388 -1.5051 -1.3705
17540TIP3   OH274110   1.418   6.382  13.244  0.1065  0.5483 -0.4415
17540TIP3    H174111   1.370   6.329  13.307 -0.7104  0.8609 -0.7957
17540TIP3    H274112   1.351   6.426  13.193  0.7683  0.9727 -0.9634
17541TIP3   OH274113   5.383   3.568  13.108  0.0754 -0.1205  0.0331
17541TIP3    H174114   5.341   3.495  13.063  1.2372 -1.5813  1.2460
17541TIP3    H274115   5.358   3.557  13.200 -1.2493  2.1146  0.0282
17542TIP3   OH274116   4.506   0.478   2.313 -0.3571  0.1356 -0.3204
17542TIP3    H174117   4.528   0.407   2.252 -1.7690 -0.3507 -0.3051
17542TIP3    H274118   4.580   0.538   2.307  1.4733 -1.8900  0.5326
17543TIP3   OH274119   2.578   4.164   0.544  0.0452 -0.2012  0.3954
17543TIP3    H174120   2.549   4.210   0.623  0.2790  1.0854 -0.2507
17543TIP3    H274121   2.602   4.233   0.483  0.0970 -1.1808 -0.7306
17544TIP3   OH274122   0.129   0.035   3.009  0.2715  0.0812 -0.0230
17544TIP3    H174123   0.070   0.087   3.063  1.5372  0.1070  1.4023
17544TIP3    H274124   0.186   0.099   2.966 -1.7143  0.1814 -2.7496
17545TIP3   OH274125   2.003   1.835   3.706  0.1491 -0.3089  0.3419
17545TIP3    H174126   2.090   1.861   3.738  0.2387  1.5286 -1.2626
17545TIP3    H274127   2.021   1.796   3.620 -0.6534  0.7066 -0.3017
17546TIP3   OH274128   0.246   4.063   5.972  0.2293  0.2837 -0.5513
17546TIP3    H174129   0.176   4.128   5.963 -0.6959 -0.5328  0.5590
17546TIP3    H274130   0.312   4.091   5.909 -1.1897  0.9561 -1.8067
17547TIP3   OH274131   2.894   5.401  12.527  0.1387  0.3934  0.3658
17547TIP3    H174132   2.891   5.318  12.575 -0.5065 -0.2975 -0.8302
17547TIP3    H274133   2.906   5.467  12.595  1.3377 -0.7143  1.2907
17548TIP3   OH274134   4.060   0.783   0.992  0.1103 -0.5473 -0.0237
17548TIP3    H174135   3.966   0.792   1.009  0.5694 -0.3732  2.7941
17548TIP3    H274136   4.064   0.718   0.921 -2.1029 -1.5284  0.6403
17549TIP3   OH274137   3.349   2.803  16.962 -0.6389  0.0968 -0.3532
17549TIP3    H174138   3.276   2.856  16.930 -0.2635  3.1650  3.2115
17549TIP3    H274139   3.428   2.850  16.933 -0.2529  0.4676  1.2115
17550TIP3   OH274140   5.715   1.179  12.510  0.1772 -0.4886  0.0477
17550TIP3    H174141   5.751   1.242  12.447  0.8707 -0.5359  0.3866
17550TIP3    H274142   5.723   1.095  12.466  1.0865 -0.5792  0.3687
17551TIP3   OH274143   3.354   0.625  12.075  0.4483  0.0038  0.0381
17551TIP3    H174144   3.302   0.658  12.002  0.7759 -1.2280 -0.7833
17551TIP3    H274145   3.443   0.619  12.041  0.7705  0.2692  0.8228
17552TIP3   OH274146   6.021   2.381  14.247 -0.5809 -0.2721  0.8265
17552TIP3    H174147   5.970   2.347  14.174 -1.8121 -1.4980  2.1733
17552TIP3    H274148   6.071   2.306  14.279  0.2330  0.3341  1.0078
17553TIP3   OH274149   1.647   6.010  13.811  0.0477 -0.5187  0.2670
17553TIP3    H174150   1.581   6.025  13.878 -1.2310 -2.2224 -0.5306
17553TIP3    H274151   1.612   6.053  13.733  0.5341 -0.2941  0.1701
17554TIP3   OH274152   3.362   3.620  14.903 -0.2234  0.1926 -0.5544
17554TIP3    H174153   3.331   3.710  14.908 -1.5568 -0.2720 -0.0955
17554TIP3    H274154   3.455   3.628  14.882  0.0744  1.7142  1.1641
17555TIP3   OH274155   0.388   1.691   0.692  0.2196 -0.1160 -0.2411
17555TIP3    H174156   0.304   1.737   0.705 -0.9717 -1.9592 -0.9628
17555TIP3    H274157   0.420   1.723   0.608 -1.4044 -1.6671 -1.5229
17556TIP3   OH274158   6.281   1.526  15.465  0.5609  0.5927  0.2152
17556TIP3    H174159   6.313   1.524  15.374 -0.5648  2.2826 -0.2714
17556TIP3    H274160   6.300   1.615  15.494 -0.0104  0.3677  1.2998
17557TIP3   OH274161   4.027   0.549   0.808  0.4330 -0.0431  0.1536
17557TIP3    H174162   3.944   0.515   0.843  0.2927 -0.7128 -0.7954
17557TIP3    H274163   4.003   0.592   0.726  1.0259 -0.3060 -0.1664
17558TIP3   OH274164   4.275   5.390  12.774  1.0644 -0.3019 -0.5102
17558TIP3    H174165   4.296   5.484  12.770  0.4476 -0.1703 -0.6705
17558TIP3    H274166   4.296   5.358  12.686  1.2453 -0.3123 -0.4647
17559TIP3   OH274167   0.959   4.826   5.446  0.0153 -0.0707 -0.3918
17559TIP3    H174168   1.043   4.789   5.473 -0.8632 -2.1144 -0.3460
17559TIP3    H274169   0.930   4.770   5.375 -0.7936  1.3318 -1.2177
17560TIP3   OH274170   4.638   1.458  17.023 -0.3331  0.2725 -0.5232
17560TIP3    H174171   4.730   1.457  17.049 -0.6082 -2.8345  0.6813
17560TIP3    H274172   4.591   1.489  17.100 -0.3677  1.5911 -1.0481
17561TIP3   OH274173   2.820   1.365   4.374 -0.5204  0.1023  0.2574
17561TIP3    H174174   2.854   1.383   4.462 -0.8025  0.9064  0.2141
17561TIP3    H274175   2.764   1.289   4.384 -0.6620  0.2748  0.8048
17562TIP3   OH274176   4.134   3.759   6.556  0.5048 -0.1275  0.1603
17562TIP3    H174177   4.056   3.715   6.591 -1.4078  0.9644 -2.4142
17562TIP3    H274178   4.132   3.846   6.596  1.8924 -0.8797  1.9941
17563TIP3   OH274179   6.688   4.867  12.692 -0.0348 -0.2764 -0.0993
17563TIP3    H174180   6.644   4.837  12.772  0.9673  1.7426  1.3254
17563TIP3    H274181   6.772   4.821  12.692  1.2651  1.8168  1.7828
17564TIP3   OH274182   4.833   1.790   5.930 -0.5279 -0.1380 -0.1615
17564TIP3    H174183   4.921   1.793   5.968  0.1208  0.4257 -1.6437
17564TIP3    H274184   4.780   1.744   5.996  1.3912 -2.6527 -0.2149
17565TIP3   OH274185   4.217   3.088  14.677 -0.4393  0.0608  0.6725
17565TIP3    H174186   4.236   3.048  14.762 -1.1830 -1.2065  0.2755
17565TIP3    H274187   4.146   3.034  14.641  1.5355 -1.0630 -1.8508
17566TIP3   OH274188   3.167   2.245  10.846  0.3307  0.2238  0.1427
17566TIP3    H174189   3.082   2.205  10.861  0.2158  0.7785  1.0561
17566TIP3    H274190   3.161   2.284  10.758 -1.3329  2.5984  1.1968
17567TIP3   OH274191   4.497   5.459  10.991 -0.4382  0.2167  0.3010
17567TIP3    H174192   4.441   5.491  10.920  2.5649  0.6042 -2.0579
17567TIP3    H274193   4.468   5.508  11.068 -2.3541  1.4398 -1.1096
17568TIP3   OH274194   4.794   0.197  11.300  0.2584 -0.1751 -0.0545
17568TIP3    H174195   4.739   0.147  11.240 -1.1149  1.0876  0.0818
17568TIP3    H274196   4.831   0.132  11.360 -2.5004 -0.9508  0.9662
17569TIP3   OH274197   5.007   2.013   4.966 -0.1333 -0.1764  0.4277
17569TIP3    H174198   4.944   1.962   5.017  0.7176 -0.9663  0.7140
17569TIP3    H274199   5.003   1.974   4.878 -0.8887  0.5502  0.1223
17570TIP3   OH274200   1.648   6.582  11.396  0.2414 -0.3049  0.3630
17570TIP3    H174201   1.643   6.613  11.305 -0.3441 -1.4170 -0.0026
17570TIP3    H274202   1.679   6.658  11.446  0.9101  0.2188 -0.8124
17571TIP3   OH274203   0.299   1.829   3.379  0.2821 -0.2918 -0.2427
17571TIP3    H174204   0.321   1.744   3.341 -0.4826 -0.8457  0.5229
17571TIP3    H274205   0.251   1.874   3.309 -0.9757 -1.2434 -0.0237
17572TIP3   OH274206   2.253   0.530  17.021  0.5839 -0.0477  0.6621
17572TIP3    H174207   2.246   0.581  16.940  0.5346 -1.5112 -0.2992
17572TIP3    H274208   2.302   0.586  17.081  0.6521  1.0572 -0.4005
17573TIP3   OH274209   1.750   2.237   2.710  0.0263 -0.3895 -0.7855
17573TIP3    H174210   1.694   2.310   2.685 -0.7619 -0.6671  0.0923
17573TIP3    H274211   1.697   2.159   2.694  0.4037 -0.6955 -0.5745
17574TIP3   OH274212   3.157   5.855  13.120  0.2268 -0.0886  0.6279
17574TIP3    H174213   3.183   5.946  13.105  1.1776 -0.2351  1.2847
17574TIP3    H274214   3.105   5.858  13.201  1.7734 -0.3484  1.6669
17575TIP3   OH274215   1.041   1.424   5.776 -0.1150  0.1376  0.1247
17575TIP3    H174216   1.117   1.380   5.815 -1.0672 -0.5195  1.2826
17575TIP3    H274217   1.044   1.513   5.810 -0.9413 -0.4285  1.7789
17576TIP3   OH274218   4.259   6.089   3.166  0.6491 -0.0309 -0.0313
17576TIP3    H174219   4.183   6.131   3.125 -1.0498 -0.7272  2.2102
17576TIP3    H274220   4.258   6.000   3.131  0.6666  0.0643 -0.2793
17577TIP3   OH274221   4.413   3.260  14.892  0.0053  0.4151 -0.4412
17577TIP3    H174222   4.493   3.218  14.861 -1.9232 -3.4827 -0.6388
17577TIP3    H274223   4.386   3.208  14.968 -2.3577  1.6374 -0.3447
17578TIP3   OH274224   3.274   3.378  15.964  0.1320 -0.8810  0.3417
17578TIP3    H174225   3.336   3.446  15.991 -0.2843 -1.0307  1.7921
17578TIP3    H274226   3.254   3.398  15.873  2.2251 -0.7726 -0.1529
17579TIP3   OH274227   6.762   0.613  12.127 -0.6370 -0.3634  0.2991
17579TIP3    H174228   6.817   0.667  12.070  0.6687  0.7045  2.4397
17579TIP3    H274229   6.804   0.528  12.127  1.4751  0.5849  2.3329
17580TIP3   OH274230   5.313   0.493   1.796 -0.1728 -0.3772  0.4106
17580TIP3    H174231   5.383   0.448   1.844  1.9257  1.4865 -0.7515
17580TIP3    H274232   5.304   0.444   1.714  1.8493  0.9649 -0.6890
17581TIP3   OH274233   0.339   2.882  15.948  0.2964  0.2250  0.1259
17581TIP3    H174234   0.367   2.954  15.890  0.2235  0.3172  0.2045
17581TIP3    H274235   0.243   2.889  15.950  0.3449  0.7324  0.9132
17582TIP3   OH274236   1.173   0.982  13.077 -0.1956  0.3505  0.0370
17582TIP3    H174237   1.211   1.044  13.015  0.3047  1.2424  1.2032
17582TIP3    H274238   1.238   0.974  13.147 -0.5321 -1.0065  0.2231
17583TIP3   OH274239   3.912   1.817  12.530  0.7374  0.1255  0.1019
17583TIP3    H174240   3.883   1.756  12.598 -0.6899  2.0227  1.2771
17583TIP3    H274241   4.003   1.836  12.552  1.1798 -1.4210 -0.2245
17584TIP3   OH274242   1.236   2.129   1.074  0.7288  0.5499  0.2123
17584TIP3    H174243   1.311   2.103   1.126 -0.8767 -2.4207  1.3007
17584TIP3    H274244   1.160   2.096   1.122 -1.0888  0.8553 -2.2135
17585TIP3   OH274245   5.298   3.336   3.394  1.0006 -0.2917  0.4776
17585TIP3    H174246   5.313   3.254   3.348  0.9239  0.4253 -0.8720
17585TIP3    H274247   5.362   3.397   3.358  0.7201  0.3882  1.0847
17586TIP3   OH274248   6.632   5.848   5.496  0.4412  0.3000  0.5269
17586TIP3    H174249   6.557   5.902   5.474 -0.5496 -1.2754 -0.1032
17586TIP3    H274250   6.698   5.910   5.528 -0.6595  1.8435 -0.1016
17587TIP3   OH274251   0.037   6.298  11.418  0.6109  0.1562  0.8257
17587TIP3    H174252   0.066   6.358  11.486  3.7937  1.4355 -1.4283
17587TIP3    H274253   0.090   6.321  11.341 -0.0721 -3.6559 -1.0276
17588TIP3   OH274254   4.005   5.204   5.843  0.1907 -0.2934 -0.1616
17588TIP3    H174255   3.909   5.203   5.842  0.1312  0.7570  1.2918
17588TIP3    H274256   4.027   5.234   5.931  1.8512 -0.0816 -0.6287
17589TIP3   OH274257   4.917   0.805   2.410 -0.6262  0.5093 -0.5827
17589TIP3    H174258   4.888   0.728   2.362  0.9730 -0.7292  0.3496
17589TIP3    H274259   4.885   0.792   2.499 -0.2913  0.8814 -0.4039
17590TIP3   OH274260   5.491   2.117   3.219 -0.4341  0.3966 -0.7399
17590TIP3    H174261   5.516   2.208   3.205 -0.6047  0.1339 -3.1353
17590TIP3    H274262   5.408   2.123   3.267  1.5999  1.3256  3.0824
17591TIP3   OH274263   3.491   4.767  14.947  0.4704 -0.8051  0.2190
17591TIP3    H174264   3.530   4.724  15.024  0.0608  0.4609  1.1541
17591TIP3    H274265   3.448   4.845  14.981 -1.3605 -1.1979 -1.0428
17592TIP3   OH274266   5.945   2.147   1.102 -0.2897 -0.3199 -0.4624
17592TIP3    H174267   5.986   2.224   1.141  1.9870 -0.5392 -2.2572
17592TIP3    H274268   5.903   2.179   1.023 -0.1916 -0.7616 -0.6971
17593TIP3   OH274269   2.775   3.627  14.514 -0.0813 -0.3081  0.0628
17593TIP3    H174270   2.836   3.648  14.443 -0.3660  1.0702  0.1989
17593TIP3    H274271   2.691   3.613  14.469 -0.0894 -0.2317  0.0540
17594TIP3   OH274272   3.779   5.234  14.427 -0.1903 -0.4534 -0.4176
17594TIP3    H174273   3.829   5.315  14.421 -1.6422  0.5145 -0.0073
17594TIP3    H274274   3.743   5.221  14.339 -1.3096  0.2749 -0.0848
17595TIP3   OH274275   5.487   2.379  16.563  0.1891  0.3055  0.2095
17595TIP3    H174276   5.526   2.360  16.478  0.1347 -0.6541  0.3913
17595TIP3    H274277   5.412   2.436  16.543  1.5966  2.1407 -0.1456
17596TIP3   OH274278   5.900   6.364   2.848 -0.0316  0.5647 -0.0241
17596TIP3    H174279   5.888   6.451   2.810  0.7191  0.2066 -1.1445
17596TIP3    H274280   5.828   6.312   2.813 -0.0106  0.5320 -0.0193
17597TIP3   OH274281   2.120   4.409   2.153 -0.2966 -0.4529  0.5276
17597TIP3    H174282   2.114   4.336   2.215 -0.8679 -0.5266  0.3968
17597TIP3    H274283   2.105   4.369   2.067  0.6816 -0.3824  0.3106
17598TIP3   OH274284   5.749   1.805  11.176 -0.1608 -0.2308  0.2026
17598TIP3    H174285   5.820   1.869  11.175 -0.7147  0.3865 -0.1386
17598TIP3    H274286   5.729   1.790  11.083 -0.3362 -0.5571  0.2918
17599TIP3   OH274287   2.877   2.215   2.337 -0.2107  0.0186  0.2262
17599TIP3    H174288   2.857   2.187   2.247 -0.2554 -0.6068  0.4214
17599TIP3    H274289   2.819   2.289   2.353 -0.1924  0.1400 -0.2689
17600TIP3   OH274290   4.557   6.020   0.829 -0.1422 -0.1048 -0.2620
17600TIP3    H174291   4.584   5.929   0.814  1.2547 -0.0631  1.5662
17600TIP3    H274292   4.631   6.072   0.798 -2.3064  0.7766 -4.6570
17601TIP3   OH274293   2.963   4.655  13.888  0.4232 -0.2195 -0.1141
17601TIP3    H174294   3.057   4.668  13.885  0.3787  0.2768  0.4463
17601TIP3    H274295   2.947   4.578  13.833  1.0085  0.4304 -1.2217
17602TIP3   OH274296   5.136   5.648   1.246 -0.4344  0.2615 -0.1536
17602TIP3    H174297   5.076   5.664   1.320 -0.6273 -0.1575 -0.2124
17602TIP3    H274298   5.078   5.635   1.171 -0.2076  1.6744 -0.5902
17603TIP3   OH274299   6.076   2.716   1.788 -0.0078  0.7705  0.5325
17603TIP3    H174300   6.145   2.699   1.723  0.1545  0.0055  0.8980
17603TIP3    H274301   6.025   2.788   1.750 -0.4844 -0.2621 -0.8875
17604TIP3   OH274302   6.369   3.294   2.464  0.0210  0.3316  0.7669
17604TIP3    H174303   6.376   3.251   2.549  0.7260 -1.2788 -0.0630
17604TIP3    H274304   6.388   3.387   2.483 -0.2372  0.0863  2.4066
17605TIP3   OH274305   0.223   6.336  17.144 -0.3195 -0.0360  0.1814
17605TIP3    H174306   0.249   6.410  17.200 -1.5779 -1.4100  2.7849
17605TIP3    H274307   0.204   6.265  17.206  0.8002 -2.5755 -2.2012
17606TIP3   OH274308   5.245   3.165   3.145  0.1962 -0.2399  0.1568
17606TIP3    H174309   5.150   3.178   3.145  0.2931  0.5727 -0.5167
17606TIP3    H274310   5.277   3.221   3.074  1.1208 -0.9653 -0.0266
17607TIP3   OH274311   5.771   1.215  16.318  0.8224  0.7819  0.4085
17607TIP3    H174312   5.827   1.292  16.321 -0.0714  1.4785 -0.1843
17607TIP3    H274313   5.687   1.246  16.351  0.8293 -0.2913  1.4684
17608TIP3   OH274314   2.348   4.537   5.003 -0.3616 -0.2889  0.1177
17608TIP3    H174315   2.396   4.569   4.926 -1.4634 -0.6998 -0.7700
17608TIP3    H274316   2.297   4.613   5.032 -0.7202 -0.4094 -0.1872
17609TIP3   OH274317   3.659   1.688  16.859 -0.9610 -0.0659  0.2469
17609TIP3    H174318   3.731   1.694  16.796  0.0804 -1.4146  1.2318
17609TIP3    H274319   3.608   1.768  16.845  1.0198  1.2088 -0.1751
17610TIP3   OH274320   3.953   5.482   3.363 -0.0190 -0.3869 -0.1873
17610TIP3    H174321   3.985   5.392   3.356  0.5521 -0.2962  1.0030
17610TIP3    H274322   3.863   5.473   3.397 -0.3031 -0.5298 -0.9506
17611TIP3   OH274323   0.833   5.219  16.972  0.1700 -0.6733  0.2107
17611TIP3    H174324   0.848   5.222  17.066 -0.2226 -0.0036  0.2563
17611TIP3    H274325   0.790   5.302  16.951  0.1788 -0.8478 -0.5452
17612TIP3   OH274326   5.645   4.060  16.663  0.8514 -0.7135  0.5263
17612TIP3    H174327   5.594   4.012  16.728  0.4987  0.6085  1.2568
17612TIP3    H274328   5.728   4.079  16.706  0.6576  0.0713  0.5712
17613TIP3   OH274329   0.425   3.198  11.234  0.3626  0.1418  0.3384
17613TIP3    H174330   0.488   3.259  11.274  2.5173 -2.0795  0.5577
17613TIP3    H274331   0.473   3.157  11.163 -1.2683 -0.8198 -0.2671
17614TIP3   OH274332   0.437   3.306  14.236 -0.2913  0.6462  0.0099
17614TIP3    H174333   0.378   3.380  14.248 -1.0373  0.3002 -1.3296
17614TIP3    H274334   0.511   3.341  14.186 -0.0775  0.7369  0.3833
17615TIP3   OH274335   6.389   2.750  16.294 -0.3164 -0.1149  0.5450
17615TIP3    H174336   6.369   2.667  16.251  0.3942 -0.4676  0.8895
17615TIP3    H274337   6.363   2.817  16.230  0.8422 -0.6291 -0.5025
17616TIP3   OH274338   3.279   6.813   6.305 -0.6422  0.4342 -0.0233
17616TIP3    H174339   3.198   6.860   6.289  0.1748  2.2389  0.8895
17616TIP3    H274340   3.344   6.857   6.251  0.1908  0.5636  1.0418
17617TIP3   OH274341   6.464   6.741  14.085  0.1181  0.1310 -0.0417
17617TIP3    H174342   6.508   6.803  14.027 -0.3471  0.2526 -0.2753
17617TIP3    H274343   6.412   6.686  14.026 -1.7456  1.3638  0.3397
17618TIP3   OH274344   4.037   2.208   5.946 -0.2531 -0.3527 -0.5304
17618TIP3    H174345   4.089   2.185   6.023  0.0460 -2.1711 -1.2356
17618TIP3    H274346   3.949   2.175   5.967 -0.8867  1.5472  0.1038
17619TIP3   OH274347   0.562   5.009   2.261 -0.0283  0.6732 -0.6214
17619TIP3    H174348   0.643   5.050   2.230 -0.0172 -0.1384 -1.7048
17619TIP3    H274349   0.514   5.080   2.304  0.8776  1.3562 -0.7222
17620TIP3   OH274350   0.887   2.242   2.404 -0.0432  0.4133 -0.4732
17620TIP3    H174351   0.980   2.253   2.422 -0.2261  1.9554 -0.3883
17620TIP3    H274352   0.874   2.283   2.319 -0.8697  1.4154  0.1114
17621TIP3   OH274353   2.892   4.579   2.965  0.5776  0.5384 -0.0166
17621TIP3    H174354   2.928   4.506   2.915 -1.1031  0.5238 -1.3250
17621TIP3    H274355   2.906   4.555   3.056 -1.8950 -2.6187 -0.2717
17622TIP3   OH274356   3.642   1.619   4.053  0.4256  0.2773  0.4791
17622TIP3    H174357   3.700   1.678   4.005 -1.3566  0.6315 -1.3725
17622TIP3    H274358   3.690   1.598   4.133  3.1800  0.3706 -1.0251
17623TIP3   OH274359   5.272   5.853   3.938 -0.0514 -0.8289 -0.2475
17623TIP3    H174360   5.352   5.875   3.892  0.9373 -0.5653  1.4915
17623TIP3    H274361   5.247   5.934   3.982  0.5219 -1.6804  1.7576
17624TIP3   OH274362   4.255   2.523  13.542 -0.2692 -0.3778  0.1707
17624TIP3    H174363   4.205   2.551  13.619 -1.5989 -0.5684 -0.5983
17624TIP3    H274364   4.203   2.453  13.503 -0.1659  0.4379 -1.5099
17625TIP3   OH274365   6.515   6.650  13.538  0.0811 -0.0537 -0.1094
17625TIP3    H174366   6.563   6.594  13.477 -0.5139 -0.9519  0.2118
17625TIP3    H274367   6.582   6.705  13.578  0.4186  1.0203 -2.0040
17626TIP3   OH274368   3.397   0.913  15.214  0.2428 -0.0887 -0.1860
17626TIP3    H174369   3.391   0.972  15.289 -2.0408 -1.9250  1.2090
17626TIP3    H274370   3.458   0.845  15.241 -0.4126 -0.6312 -0.0211
17627TIP3   OH274371   0.334   6.813  14.462  0.0326 -0.1804  0.8897
17627TIP3    H174372   0.421   6.826  14.423 -0.0614 -1.3941  0.2346
17627TIP3    H274373   0.351   6.766  14.543 -0.0569 -1.1918  0.3384
17628TIP3   OH274374   0.780   3.407   0.439  0.7430  1.0752  0.1564
17628TIP3    H174375   0.766   3.478   0.376 -3.7678  0.0350 -0.3891
17628TIP3    H274376   0.692   3.383   0.468  2.1966 -2.6400  2.2356
17629TIP3   OH274377   2.364   6.255  11.072 -0.4693 -0.6012  0.0522
17629TIP3    H174378   2.352   6.164  11.045 -0.7250  0.1265 -2.5397
17629TIP3    H274379   2.312   6.306  11.009  0.9751  1.4315  0.4012
17630TIP3   OH274380   0.824   4.578  15.303 -0.0933 -0.1368 -0.1744
17630TIP3    H174381   0.757   4.624  15.355  1.8401  0.7971  1.6413
17630TIP3    H274382   0.846   4.501  15.356 -0.8824 -1.3759 -1.5803
17631TIP3   OH274383   4.480   2.116  12.514  0.3199  0.1934 -0.4713
17631TIP3    H174384   4.551   2.154  12.463 -0.0163  0.7693 -0.5114
17631TIP3    H274385   4.449   2.187  12.569 -1.7315  0.6277 -2.0587
17632TIP3   OH274386   2.139   1.481   6.068 -0.5280 -0.2087 -0.2957
17632TIP3    H174387   2.200   1.553   6.047 -1.2700  1.3605  2.4633
17632TIP3    H274388   2.195   1.410   6.097  0.1590 -0.3980 -1.9468
17633TIP3   OH274389   3.147   4.656   3.818 -0.6345 -0.3489  0.2922
17633TIP3    H174390   3.195   4.707   3.883 -0.9430 -0.4965  0.6458
17633TIP3    H274391   3.061   4.641   3.859 -0.4456 -1.4061  0.3311
17634TIP3   OH274392   2.623   2.816   4.429  0.2459 -0.2036  1.2425
17634TIP3    H174393   2.619   2.742   4.490 -1.2538 -0.0108  1.4247
17634TIP3    H274394   2.593   2.891   4.480 -2.7366 -0.3386 -0.0791
17635TIP3   OH274395   5.433   1.644  12.473 -0.0643  0.2344  0.0100
17635TIP3    H174396   5.465   1.642  12.382  0.7886 -2.5802  0.2850
17635TIP3    H274397   5.424   1.737  12.493  1.4720  0.9811 -2.3611
17636TIP3   OH274398   4.654   1.677   4.271  0.1034  0.5957 -0.3167
17636TIP3    H174399   4.719   1.609   4.287 -0.7462 -0.0780  0.4108
17636TIP3    H274400   4.702   1.746   4.226  1.2630  0.0336  0.0079
17637TIP3   OH274401   4.171   4.688   6.435 -0.1787  0.6251 -0.0453
17637TIP3    H174402   4.260   4.709   6.407 -0.6071  2.5238 -0.1057
17637TIP3    H274403   4.176   4.596   6.462  1.5228  0.3582 -1.0894
17638TIP3   OH274404   3.576   3.287   0.833 -0.2067  0.5933 -0.4018
17638TIP3    H174405   3.630   3.208   0.846 -1.3646 -0.2632 -0.6119
17638TIP3    H274406   3.490   3.253   0.808 -0.3346  1.9741 -2.0051
17639TIP3   OH274407   6.806   4.895   5.152 -0.3777 -0.3053 -0.0141
17639TIP3    H174408   6.721   4.876   5.112 -0.2284  0.1250 -0.5445
17639TIP3    H274409   6.824   4.986   5.130 -0.0687 -0.1981  0.6361
17640TIP3   OH274410   2.937   5.676  12.328 -0.1951  0.3025  0.2670
17640TIP3    H174411   2.911   5.607  12.389  0.9194  0.4041  0.8842
17640TIP3    H274412   3.029   5.657  12.310  0.2472  1.8702  0.7790
17641TIP3   OH274413   4.982   5.410  13.289  0.3336 -0.2003 -0.3586
17641TIP3    H174414   5.022   5.323  13.293  0.8141  0.0412  0.3016
17641TIP3    H274415   4.909   5.400  13.228  1.9258 -0.4337 -2.3511
17642TIP3   OH274416   4.957   4.951  11.600  0.5211  0.1897 -0.2725
17642TIP3    H174417   4.898   5.026  11.607 -1.8443 -1.5413 -0.2622
17642TIP3    H274418   4.994   4.941  11.688 -2.6980 -1.2370  1.1105
17643TIP3   OH274419   5.204   4.377  14.539  0.0095 -0.1827  0.3660
17643TIP3    H174420   5.270   4.307  14.540  0.2716 -0.0131  3.0685
17643TIP3    H274421   5.238   4.441  14.476  1.6142 -0.8447  0.5111
17644TIP3   OH274422   6.199   3.494   2.167 -0.1595  0.2280  0.7479
17644TIP3    H174423   6.139   3.426   2.197 -0.7414  0.3423 -0.1227
17644TIP3    H274424   6.280   3.447   2.147 -0.2811 -0.0780  0.9733
17645TIP3   OH274425   2.039   5.712  15.455 -0.2810 -0.0875  0.5882
17645TIP3    H174426   2.095   5.662  15.516  1.7821 -2.5911 -2.9617
17645TIP3    H274427   1.959   5.660  15.448  0.1093 -0.6427  0.1040
17646TIP3   OH274428   3.425   2.336   3.135 -0.4415 -0.3366  0.1295
17646TIP3    H174429   3.488   2.408   3.127  0.2735 -1.1115 -2.6376
17646TIP3    H274430   3.477   2.263   3.171 -0.8227  0.1138  1.6440
17647TIP3   OH274431   6.217   6.416   5.409 -0.1651  0.1492 -0.4820
17647TIP3    H174432   6.128   6.386   5.428 -0.2280  0.3636 -0.4445
17647TIP3    H274433   6.273   6.361   5.464 -0.2949  0.2249 -0.2748
17648TIP3   OH274434   3.641   2.690   5.273  0.6599 -0.2261  0.2696
17648TIP3    H174435   3.588   2.663   5.198  0.1427 -0.4227  0.7005
17648TIP3    H274436   3.711   2.625   5.278  0.4465 -0.4620  0.2169
17649TIP3   OH274437   3.402   6.309  11.868  0.2196  0.3646  0.2490
17649TIP3    H174438   3.419   6.381  11.808  0.7847  1.0927  1.2511
17649TIP3    H274439   3.320   6.270  11.837 -0.7002  2.1262  0.3351
17650TIP3   OH274440   4.375   2.348  11.693  0.0860 -0.0528 -0.5151
17650TIP3    H174441   4.449   2.337  11.633 -0.5638 -1.4546 -1.1175
17650TIP3    H274442   4.298   2.331  11.638 -0.6441  0.7148  0.2554
17651TIP3   OH274443   3.395   1.506  10.590  0.2677  0.4057 -0.1233
17651TIP3    H174444   3.316   1.467  10.550  0.0003  0.6166  0.1962
17651TIP3    H274445   3.363   1.584  10.636  0.6806  0.5517 -0.0764
17652TIP3   OH274446   1.302   2.408  10.449  0.1491  0.1185 -1.0587
17652TIP3    H174447   1.214   2.371  10.445  0.1206  0.2154 -1.3580
17652TIP3    H274448   1.360   2.333  10.437  0.1339 -0.1109  0.2271
17653TIP3   OH274449   4.025   1.458   2.509 -0.7306  0.3890 -0.5121
17653TIP3    H174450   4.035   1.458   2.414  0.5813 -0.0455 -0.4012
17653TIP3    H274451   3.975   1.379   2.529  0.9530 -0.7941 -0.7103
17654TIP3   OH274452   5.375   5.655  16.468  0.2413  0.2241  0.8314
17654TIP3    H174453   5.332   5.576  16.434  0.3000  0.9131 -0.9639
17654TIP3    H274454   5.452   5.622  16.515  0.1203 -0.7952  0.3437
17655TIP3   OH274455   4.022   6.548  13.087 -0.1746 -0.1026 -0.2081
17655TIP3    H174456   4.025   6.581  13.176  0.4200  0.7175 -0.5187
17655TIP3    H274457   4.107   6.571  13.049 -0.3073 -0.6874 -0.8976
17656TIP3   OH274458   0.863   0.825  14.197 -0.2554  0.1077 -0.2974
17656TIP3    H174459   0.892   0.757  14.259 -1.7539 -0.4108 -0.1102
17656TIP3    H274460   0.804   0.880  14.249  0.8083  1.4717 -0.5012
17657TIP3   OH274461   0.161   4.947  14.072  0.1500 -0.3129 -0.0463
17657TIP3    H174462   0.096   4.894  14.118 -0.0036  1.2103  1.6219
17657TIP3    H274463   0.126   5.036  14.075  1.1892  0.1669 -1.2471
17658TIP3   OH274464   3.183   3.193  15.519 -0.5046 -0.0344  0.3715
17658TIP3    H174465   3.089   3.211  15.529 -0.8653 -1.4328 -0.1241
17658TIP3    H274466   3.197   3.193  15.425  0.2944  1.4540  0.4755
17659TIP3   OH274467   1.226   5.261  16.842 -0.4478 -0.5121 -0.4351
17659TIP3    H174468   1.274   5.192  16.796  1.6429  1.3021 -1.1910
17659TIP3    H274469   1.236   5.240  16.935  1.0119 -0.7368 -0.6229
17660TIP3   OH274470   3.310   0.110   5.016  0.1476 -0.4089  0.3502
17660TIP3    H174471   3.282   0.019   5.025  0.5775 -0.6189 -0.3657
17660TIP3    H274472   3.341   0.135   5.103 -0.6981 -0.6934  0.7430
17661TIP3   OH274473   0.745   5.289  16.272  0.1485 -0.2488 -0.0047
17661TIP3    H174474   0.661   5.311  16.232  0.3145  0.0894 -0.1711
17661TIP3    H274475   0.727   5.284  16.366 -0.6225 -2.6964 -0.2082
17662TIP3   OH274476   5.351   3.637  15.938  0.1960 -0.1339 -0.5031
17662TIP3    H174477   5.401   3.593  15.869  1.6126 -3.1968  2.1539
17662TIP3    H274478   5.416   3.689  15.985  0.0619 -0.8823  0.5483
17663TIP3   OH274479   6.380   3.490   1.881  0.0193  0.0494 -0.3349
17663TIP3    H174480   6.390   3.466   1.973  0.3309  1.0366 -0.0943
17663TIP3    H274481   6.449   3.555   1.866 -1.0929  1.1442 -0.8087
17664TIP3   OH274482   0.941   6.252   4.728 -0.0430  0.1457 -0.3296
17664TIP3    H174483   0.911   6.304   4.803 -0.7423 -0.0840 -0.4375
17664TIP3    H274484   1.005   6.191   4.764 -0.8636 -0.4095  0.2121
17665TIP3   OH274485   0.661   6.388  11.543 -0.3207 -0.5927 -0.0743
17665TIP3    H174486   0.632   6.444  11.471 -3.5803 -1.1792  0.6490
17665TIP3    H274487   0.715   6.321  11.500 -0.5408  0.1860 -1.6655
17666TIP3   OH274488   0.530   2.494  16.189 -0.0673 -0.0020  0.0497
17666TIP3    H174489   0.456   2.453  16.233 -0.2525  0.0504 -0.2079
17666TIP3    H274490   0.494   2.525  16.106  0.4553 -0.8072 -0.4895
17667TIP3   OH274491   3.841   1.378  11.802 -0.5075 -0.0065 -0.4856
17667TIP3    H174492   3.837   1.286  11.828 -1.2419 -0.5027 -2.2162
17667TIP3    H274493   3.912   1.414  11.855  0.3480 -1.7600 -0.3413
17668TIP3   OH274494   1.747   0.999   5.996  0.1428 -0.0620 -0.2883
17668TIP3    H174495   1.661   1.031   6.024  0.5688  2.0653 -1.1887
17668TIP3    H274496   1.799   0.998   6.076 -0.1043  0.8931 -0.0995
17669TIP3   OH274497   4.082   3.699   5.231 -0.5847  0.1555  0.3083
17669TIP3    H174498   4.072   3.706   5.326 -2.6998  1.6039  0.0338
17669TIP3    H274499   4.001   3.735   5.195 -0.8823 -2.5617 -2.0374
17670TIP3   OH274500   4.387   6.671  10.727  0.3041  0.3770  0.1652
17670TIP3    H174501   4.342   6.696  10.807 -0.3716 -1.2736  0.3188
17670TIP3    H274502   4.472   6.639  10.756  0.9542  1.8556  0.0084
17671TIP3   OH274503   4.621   2.849   2.438  0.0860  0.2313 -0.4858
17671TIP3    H174504   4.634   2.895   2.521  0.5643 -0.3966 -0.2107
17671TIP3    H274505   4.641   2.915   2.371  1.1378  0.3214 -0.0907
17672TIP3   OH274506   6.330   5.832   2.634  0.2387  0.4344 -0.0356
17672TIP3    H174507   6.408   5.814   2.581  1.3980 -0.5444  1.9120
17672TIP3    H274508   6.276   5.888   2.578  1.8071  0.2140 -1.8776
17673TIP3   OH274509   3.418   0.781  13.018 -0.0348 -0.1891 -0.2128
17673TIP3    H174510   3.434   0.875  13.030 -1.5340 -0.0264  0.6236
17673TIP3    H274511   3.324   0.770  13.030  0.2632 -1.9753  0.8775
17674TIP3   OH274512   2.674   5.843   0.423 -0.1791 -0.6795 -0.0370
17674TIP3    H174513   2.727   5.767   0.447 -0.3660 -0.7163  0.2649
17674TIP3    H274514   2.706   5.868   0.336  1.5320  0.3207  0.8017
17675TIP3   OH274515   0.741   4.014  13.000  0.0025 -0.4086  0.3102
17675TIP3    H174516   0.728   4.041  13.091  1.5882  0.2604  0.3623
17675TIP3    H274517   0.819   3.958  13.002 -0.2028 -0.7542 -0.5827
17676TIP3   OH274518   0.502   4.174  16.767 -0.1451  0.6398  0.1403
17676TIP3    H174519   0.501   4.084  16.736  0.9857  0.9664 -0.9430
17676TIP3    H274520   0.432   4.217  16.718  0.0165  0.5849 -0.1403
17677TIP3   OH274521   3.930   2.011  16.989 -0.0017  0.0537 -0.1617
17677TIP3    H174522   3.897   2.010  16.900 -1.7335 -0.6237  0.4450
17677TIP3    H274523   3.852   1.998  17.044  0.8782  1.3466  1.4940
17678TIP3   OH274524   4.518   1.035  12.730  0.1353  0.1460 -0.1174
17678TIP3    H174525   4.461   0.958  12.730  1.5209 -0.9089 -0.0660
17678TIP3    H274526   4.570   1.027  12.809  0.7696  0.7743 -0.4603
17679TIP3   OH274527   0.900   3.871   6.015  0.0546 -0.6247 -0.5766
17679TIP3    H174528   0.928   3.786   5.979  3.6562  0.1097  0.1264
17679TIP3    H274529   0.897   3.929   5.939 -0.6540 -0.9662 -0.8144
17680TIP3   OH274530   1.882   4.900  11.317  1.0022  0.4083  0.5470
17680TIP3    H174531   1.811   4.955  11.284 -1.5934 -2.6292  0.6302
17680TIP3    H274532   1.920   4.860  11.238 -0.1197 -1.0114  0.6884
17681TIP3   OH274533   0.273   1.635   2.824 -0.1258  0.0354 -0.4858
17681TIP3    H174534   0.289   1.631   2.729  1.7324 -1.7298 -0.1876
17681TIP3    H274535   0.350   1.681   2.859  1.2661 -2.7107  0.4200
17682TIP3   OH274536   0.423   1.013   0.662 -0.2815 -0.0438 -0.3962
17682TIP3    H174537   0.516   1.038   0.666 -0.8254  1.9832  1.1249
17682TIP3    H274538   0.390   1.057   0.584 -0.3957  0.9540  0.1999
17683TIP3   OH274539   0.106   0.127  14.471 -0.7953  0.0632 -0.4375
17683TIP3    H174540   0.194   0.091  14.469 -0.4183  0.9483 -0.1791
17683TIP3    H274541   0.086   0.139  14.564 -1.2287 -0.2165 -0.4891
17684TIP3   OH274542   2.701   3.983  13.836  0.1837  0.3033  0.2199
17684TIP3    H174543   2.656   3.930  13.770  0.7168  0.7086 -0.4848
17684TIP3    H274544   2.650   4.064  13.840 -0.6578 -0.2684  1.3304
17685TIP3   OH274545   6.118   5.567  13.530  0.1366  0.3139 -0.6439
17685TIP3    H174546   6.049   5.524  13.479  0.5759 -1.6774  0.3435
17685TIP3    H274547   6.140   5.503  13.598  2.3273  1.2795 -0.3856
17686TIP3   OH274548   5.135   0.993  13.944  0.0754  0.0571 -0.3000
17686TIP3    H174549   5.090   0.944  13.875 -2.2894  2.4982 -0.6494
17686TIP3    H274550   5.225   1.003  13.912  0.2482 -2.6283 -0.8873
17687TIP3   OH274551   4.691   5.639  16.404  0.1781 -0.4320  0.2818
17687TIP3    H174552   4.727   5.559  16.365  1.2464 -0.0738  0.4968
17687TIP3    H274553   4.652   5.610  16.486 -2.5558 -1.2804 -1.1975
17688TIP3   OH274554   1.249   4.540  17.045  0.0121 -0.0804 -0.1733
17688TIP3    H174555   1.337   4.504  17.043  0.2819  0.5117  0.5393
17688TIP3    H274556   1.245   4.590  17.127 -0.6959  0.6081 -0.6041
17689TIP3   OH274557   3.653   0.131  14.796 -0.2962  0.0042  0.5710
17689TIP3    H174558   3.724   0.076  14.830 -0.1909 -0.8088 -0.8817
17689TIP3    H274559   3.630   0.091  14.712 -0.6131  1.8428 -0.2610
17690TIP3   OH274560   5.585   6.490   3.251  0.6861  0.2451  0.0893
17690TIP3    H174561   5.576   6.578   3.285 -1.2002  0.4338 -0.7737
17690TIP3    H274562   5.496   6.464   3.227  1.4412 -1.1970 -1.3562
17691TIP3   OH274563   3.487   3.785  10.964  0.0214  0.1600 -0.3496
17691TIP3    H174564   3.554   3.812  10.901 -0.6506  0.5705 -0.8948
17691TIP3    H274565   3.404   3.809  10.923 -0.4148  0.7558  0.8364
17692TIP3   OH274566   4.969   5.674  13.137 -0.4161 -0.1745  0.1864
17692TIP3    H174567   4.956   5.612  13.064  0.5036 -0.3851  0.1840
17692TIP3    H274568   5.051   5.718  13.116 -0.4692  0.2140  0.7820
17693TIP3   OH274569   1.254   0.606  12.896 -0.3298 -0.3015 -0.0801
17693TIP3    H174570   1.332   0.641  12.938 -0.5380 -1.4149  1.3322
17693TIP3    H274571   1.221   0.677  12.842  0.7808  0.7162  0.5509
17694TIP3   OH274572   2.684   1.869  12.668 -0.2741 -0.3404 -0.2724
17694TIP3    H174573   2.662   1.883  12.760 -2.0078  1.1486 -0.8439
17694TIP3    H274574   2.741   1.943  12.646  0.0644 -0.6425 -0.4028
17695TIP3   OH274575   2.716   5.060   0.329  0.0479  0.1796 -0.2020
17695TIP3    H174576   2.806   5.092   0.321  0.4479 -0.6045  0.8599
17695TIP3    H274577   2.721   4.990   0.395 -1.6177  1.2274  1.1232
17696TIP3   OH274578   5.181   1.777  11.024  0.0089  0.2021  0.0086
17696TIP3    H174579   5.257   1.769  11.081  0.3824  1.4981 -0.2817
17696TIP3    H274580   5.205   1.845  10.961 -0.2470 -1.3772 -1.9383
17697TIP3   OH274581   2.102   2.838  15.442 -0.8120  0.2404  0.5024
17697TIP3    H174582   2.033   2.775  15.461  1.3169 -2.8507 -1.0582
17697TIP3    H274583   2.172   2.817  15.503  0.2026  0.5981 -0.4877
17698TIP3   OH274584   6.667   6.683  12.311  0.0060  0.4932  0.4520
17698TIP3    H174585   6.586   6.733  12.310 -0.1316  0.2851 -0.8729
17698TIP3    H274586   6.736   6.749  12.314 -0.1812  0.7846 -0.9412
17699TIP3   OH274587   5.015   3.544   3.287 -0.2725  0.1736 -0.1824
17699TIP3    H174588   4.999   3.548   3.193 -0.7241 -2.1270 -0.2710
17699TIP3    H274589   5.097   3.593   3.300  0.1300 -0.0001 -1.8524
17700TIP3   OH274590   0.000   5.650  15.126 -0.2892 -0.0735 -0.0617
17700TIP3    H174591   0.047   5.567  15.127 -0.0150  0.0673 -0.6203
17700TIP3    H274592  -0.074   5.637  15.185 -1.3985 -1.4084 -1.6443
17701TIP3   OH274593   0.894   3.195  15.807 -0.0277  0.3547 -0.2946
17701TIP3    H174594   0.859   3.236  15.886  0.5505  1.8306 -0.7623
17701TIP3    H274595   0.818   3.177  15.752 -0.4706 -0.9892  0.6969
17702TIP3   OH274596   0.464   5.301   1.159 -0.2538 -0.1743  0.1859
17702TIP3    H174597   0.536   5.362   1.177 -1.5269  0.8720  2.0013
17702TIP3    H274598   0.463   5.243   1.235 -0.4091 -1.1618 -0.5464
17703TIP3   OH274599   5.336   2.067  10.280 -0.4178  0.2496 -0.1036
17703TIP3    H174600   5.332   1.971  10.286 -2.2590  0.3170  0.2840
17703TIP3    H274601   5.429   2.086  10.269  0.1328 -1.5105  1.0498
17704TIP3   OH274602   5.019   6.131   2.910 -0.1089  0.4058 -0.2406
17704TIP3    H174603   4.997   6.223   2.925  1.2224  0.6530  0.3524
17704TIP3    H274604   5.060   6.131   2.823 -1.0303  0.1825 -0.6941
17705TIP3   OH274605   4.571   3.357   4.833  0.3152 -0.3987 -0.2955
17705TIP3    H174606   4.490   3.325   4.873  0.4075  0.3474  0.5501
17705TIP3    H274607   4.622   3.279   4.816 -0.7304 -0.9172 -1.1974
17706TIP3   OH274608   1.124   1.268   0.945  0.5068  0.3108 -0.3039
17706TIP3    H174609   1.107   1.362   0.939 -1.4925  0.0492  0.3798
17706TIP3    H274610   1.095   1.232   0.862  2.4132  0.3949 -1.0549
17707TIP3   OH274611   5.824   5.915   2.107  0.3844  0.0360 -0.7186
17707TIP3    H174612   5.880   5.850   2.064  0.7341 -0.1780  0.0398
17707TIP3    H274613   5.735   5.884   2.090  0.5562 -0.9636  0.0995
17708TIP3   OH274614   5.803   0.538   5.670  0.6615 -0.2935  0.4744
17708TIP3    H174615   5.766   0.626   5.665  0.8758 -0.2789 -1.7174
17708TIP3    H274616   5.742   0.483   5.621  1.4560 -1.0281  0.2788
17709TIP3   OH274617   2.215   5.680  12.421 -0.2825  0.4841  0.1074
17709TIP3    H174618   2.248   5.602  12.376  0.1293  0.0227  1.1772
17709TIP3    H274619   2.220   5.749  12.356  0.5252 -0.1180 -0.4897
17710TIP3   OH274620   0.608   6.344   6.951 -0.1864  0.4422 -0.0426
17710TIP3    H174621   0.570   6.338   6.863  1.5415  0.0806 -0.7948
17710TIP3    H274622   0.658   6.426   6.950  0.9142 -0.2164  0.1462
17711TIP3   OH274623   4.569   2.086   1.441 -0.3268 -0.1891  0.8100
17711TIP3    H174624   4.594   2.178   1.434 -1.8533  0.1553 -0.8000
17711TIP3    H274625   4.649   2.042   1.469  0.7477  1.4766  0.5082
17712TIP3   OH274626   1.621   5.401  11.802  0.2917 -0.2530  0.1693
17712TIP3    H174627   1.663   5.484  11.781  0.7301 -0.4533  0.2361
17712TIP3    H274628   1.592   5.367  11.717 -1.2778  0.6798  0.2870
17713TIP3   OH274629   2.175   5.624  14.782 -0.3623  0.1275 -0.7618
17713TIP3    H174630   2.135   5.573  14.712 -0.4566 -2.1520  0.8221
17713TIP3    H274631   2.269   5.618  14.764 -0.4043 -0.0930 -0.9155
17714TIP3   OH274632   5.815   4.841   4.718 -0.4745  0.3065  0.6808
17714TIP3    H174633   5.805   4.791   4.637 -0.3677  0.6930  0.4263
17714TIP3    H274634   5.908   4.838   4.738 -0.4626  0.4333  0.6455
17715TIP3   OH274635   3.296   1.364   3.859  0.1557  0.1545 -0.2024
17715TIP3    H174636   3.318   1.452   3.888  0.3296  0.7708 -2.1017
17715TIP3    H274637   3.376   1.313   3.872  0.2050  0.3816  0.4247
17716TIP3   OH274638   5.143   3.481  12.370 -0.1061  0.3926 -0.1820
17716TIP3    H174639   5.120   3.433  12.290  1.0742  1.0471 -0.9508
17716TIP3    H274640   5.187   3.416  12.425 -2.9377 -0.6904  1.0120
17717TIP3   OH274641   6.226   5.644   0.802 -0.3282 -0.3927 -0.0890
17717TIP3    H174642   6.308   5.656   0.850 -1.1954 -1.7372  1.8478
17717TIP3    H274643   6.178   5.725   0.816 -0.1744 -0.4041  0.5435
17718TIP3   OH274644   3.320   4.959   5.115 -0.5898 -0.0626 -0.3474
17718TIP3    H174645   3.287   5.036   5.162 -0.3701 -1.1091  1.6502
17718TIP3    H274646   3.247   4.898   5.116 -0.8798  0.2209 -2.2350
17719TIP3   OH274647   3.071   1.354   2.521  0.2052  0.2164  0.5846
17719TIP3    H174648   3.124   1.369   2.599  0.4583 -1.2624  0.7246
17719TIP3    H274649   3.018   1.276   2.543 -0.7086  0.5908 -0.2171
17720TIP3   OH274650   1.583   3.288   2.920  0.0034 -0.4219  0.5389
17720TIP3    H174651   1.665   3.265   2.876  1.6822  0.2695  3.0814
17720TIP3    H274652   1.574   3.223   2.989 -2.1368 -1.0149 -0.1973
17721TIP3   OH274653   4.111   1.865  11.012  0.8203 -0.3034 -0.4883
17721TIP3    H174654   4.171   1.802  10.971  1.4400 -0.4691  0.6198
17721TIP3    H274655   4.127   1.854  11.106  0.7737  1.3649 -0.2719
17722TIP3   OH274656   5.247   1.548   5.564  0.3031  0.2371  0.1078
17722TIP3    H174657   5.196   1.483   5.613  1.1911 -1.6622 -1.3462
17722TIP3    H274658   5.324   1.500   5.533  0.4566  1.6781 -1.9593
17723TIP3   OH274659   6.116   2.496   1.937 -0.2975 -0.5406  0.2614
17723TIP3    H174660   6.200   2.468   1.902  0.3191 -0.0619  1.3089
17723TIP3    H274661   6.100   2.581   1.896  0.8833  0.4700  1.7631
17724TIP3   OH274662   4.967   0.777  16.713 -0.0897  0.2244 -0.0920
17724TIP3    H174663   4.942   0.745  16.799 -0.9918 -1.8460 -1.0439
17724TIP3    H274664   4.896   0.749  16.655  0.7710  1.0174 -1.6253
17725TIP3   OH274665   4.924   2.878   4.239 -0.3330  0.2546 -0.4486
17725TIP3    H174666   5.014   2.908   4.245 -0.6891  1.4266 -0.6440
17725TIP3    H274667   4.924   2.815   4.166  0.6898 -1.3090  0.8242
17726TIP3   OH274668   1.401   3.009   5.328  0.0552 -0.5596 -0.0471
17726TIP3    H174669   1.468   2.967   5.275 -0.0556  2.0271 -2.4358
17726TIP3    H274670   1.403   3.101   5.302 -2.0207  0.2983  2.3922
17727TIP3   OH274671   2.142   2.149  15.206 -0.2305 -0.2550  0.1922
17727TIP3    H174672   2.054   2.137  15.172 -0.7077  0.0114  1.2966
17727TIP3    H274673   2.154   2.244  15.209 -0.3875 -0.2604  1.2253
17728TIP3   OH274674   1.720   6.371   4.967 -0.3678  0.2129  0.8284
17728TIP3    H174675   1.802   6.397   5.010  0.8262 -1.3023 -0.4284
17728TIP3    H274676   1.659   6.442   4.989  0.9134  0.8171  2.7691
17729TIP3   OH274677   6.435   1.607   1.662 -0.4282  0.3548 -0.4436
17729TIP3    H174678   6.493   1.629   1.735  2.9165 -0.9265 -2.4397
17729TIP3    H274679   6.445   1.680   1.601 -1.2111  0.2526 -0.7036
17730TIP3   OH274680   2.049   0.065  12.386  0.3301 -0.1478 -0.4642
17730TIP3    H174681   2.106  -0.003  12.352 -0.4573 -2.1639  1.9732
17730TIP3    H274682   2.099   0.146  12.375  2.1499 -1.3511 -1.5487
17731TIP3   OH274683   5.210   5.885   5.185 -0.2724 -0.4546  0.0001
17731TIP3    H174684   5.293   5.931   5.201 -0.2464 -0.3775 -0.3620
17731TIP3    H274685   5.203   5.824   5.259  0.1441 -0.5167 -0.0074
17732TIP3   OH274686   4.070   4.116  15.788  0.0645  0.4458  0.2729
17732TIP3    H174687   4.017   4.149  15.715  2.0324  1.1796 -0.8872
17732TIP3    H274688   4.069   4.021  15.777 -1.5166  0.3915  0.6674
17733TIP3   OH274689   3.948   5.478  13.387 -0.6867  0.3294 -0.6149
17733TIP3    H174690   3.970   5.385  13.384  0.6717  0.6004  0.2883
17733TIP3    H274691   3.877   5.487  13.324  1.1757 -0.7754 -3.0551
17734TIP3   OH274692   2.662   5.454  12.357 -0.0340 -0.2377 -0.0635
17734TIP3    H174693   2.697   5.475  12.271 -0.0922 -1.3635 -0.3727
17734TIP3    H274694   2.736   5.419  12.406  0.3542  1.7405  0.8576
17735TIP3   OH274695   1.673   0.448   3.893  0.1237  0.2471  0.1938
17735TIP3    H174696   1.652   0.440   3.986 -2.3755 -1.2508 -0.4075
17735TIP3    H274697   1.595   0.489   3.854  1.1508  0.9167 -1.2343
17736TIP3   OH274698   5.717   5.537   5.260 -0.8051  0.5742  0.3137
17736TIP3    H174699   5.741   5.512   5.171  2.4312  0.4054  1.1390
17736TIP3    H274700   5.621   5.544   5.257 -0.8150  0.9518 -3.2418
17737TIP3   OH274701   2.464   6.380   0.040 -0.3263  0.6310  0.6611
17737TIP3    H174702   2.375   6.400   0.012  0.0155  1.5094  0.1795
17737TIP3    H274703   2.508   6.351  -0.040 -0.6143 -1.5014  1.1959
17738TIP3   OH274704   1.596   2.044   5.294  0.4539 -0.1797 -0.1241
17738TIP3    H174705   1.543   2.059   5.372  0.4623  0.6114 -0.2643
17738TIP3    H274706   1.684   2.026   5.327  0.6685  1.0862  0.0289
17739TIP3   OH274707   2.764   1.643  14.562  0.2330  0.2800  0.2874
17739TIP3    H174708   2.761   1.721  14.507  1.5840  0.0831 -0.1001
17739TIP3    H274709   2.816   1.670  14.638  2.6307 -0.7888 -0.8536
17740TIP3   OH274710   0.718   5.400   1.902  0.4095  0.0684  0.2418
17740TIP3    H174711   0.726   5.493   1.881  1.1566  0.2767  1.3800
17740TIP3    H274712   0.714   5.397   1.998  0.1691 -1.0607  0.2128
17741TIP3   OH274713   0.799   1.969   4.632 -0.0454 -0.0915  0.7620
17741TIP3    H174714   0.864   2.026   4.672  0.6724 -0.1143 -0.3444
17741TIP3    H274715   0.848   1.894   4.600 -0.4643  0.2368 -0.7559
17742TIP3   OH274716   1.288   0.094  13.476  0.6285 -0.5049 -0.1915
17742TIP3    H174717   1.225   0.062  13.412  0.3546  0.6350 -0.5287
17742TIP3    H274718   1.315   0.017  13.525 -0.9716 -1.0357 -0.0885
17743TIP3   OH274719   0.086   6.749  15.774 -0.0656 -0.1026 -0.4090
17743TIP3    H174720  -0.002   6.745  15.813  0.2775 -1.5776  0.2890
17743TIP3    H274721   0.138   6.689  15.827  1.6268  1.4570 -0.2168
17744TIP3   OH274722   3.815   3.119  11.093 -0.4672  0.3980 -0.3101
17744TIP3    H174723   3.813   3.213  11.111 -0.3206  0.2515  0.4792
17744TIP3    H274724   3.898   3.089  11.129  0.9601  0.4724 -3.2201
17745TIP3   OH274725   6.141   4.187  13.181 -0.1813  0.4423  0.0331
17745TIP3    H174726   6.157   4.152  13.269  1.6155 -0.0655 -0.4478
17745TIP3    H274727   6.119   4.279  13.196  0.1059  0.3659  1.0321
17746TIP3   OH274728   1.621   2.932  15.706  0.0168  0.6325 -0.5273
17746TIP3    H174729   1.649   2.841  15.713 -2.1157 -0.2241 -2.0362
17746TIP3    H274730   1.551   2.931  15.640  0.1180  3.4159 -0.8105
17747TIP3   OH274731   2.294   1.458  12.371 -0.1002  0.4039  0.3159
17747TIP3    H174732   2.305   1.364  12.353  1.4461  0.7620 -0.8648
17747TIP3    H274733   2.277   1.462  12.465  0.8880 -1.0087  0.6053
17748TIP3   OH274734   1.261   4.255  15.107  0.0782 -0.6705 -0.3149
17748TIP3    H174735   1.195   4.237  15.174  0.0934 -1.5961 -0.5417
17748TIP3    H274736   1.336   4.202  15.132  0.9529  0.7652  0.2224
17749TIP3   OH274737   5.867   0.395  16.471  0.0658  0.0505  0.0899
17749TIP3    H174738   5.944   0.375  16.523  0.8001  3.7374  0.6537
17749TIP3    H274739   5.885   0.356  16.385  2.0891 -0.0192  0.5060
17750TIP3   OH274740   5.968   1.340   1.023  0.0818  0.3276  0.1203
17750TIP3    H174741   6.025   1.352   1.098  0.5365  1.3014 -0.3668
17750TIP3    H274742   5.879   1.341   1.060  0.3437 -1.2332  0.8810
17751TIP3   OH274743   2.922   5.078   4.820  0.3156 -0.0506  0.5736
17751TIP3    H174744   3.009   5.116   4.816  0.2394  0.1060  0.4006
17751TIP3    H274745   2.863   5.154   4.818  0.1178 -0.2070 -1.1061
17752TIP3   OH274746   5.009   1.063  14.354  0.4038 -0.0607 -0.0251
17752TIP3    H174747   5.092   1.020  14.377  1.4765  2.1174  0.5043
17752TIP3    H274748   5.028   1.156  14.363 -2.4581  0.5048  1.2291
17753TIP3   OH274749   0.282   5.971   2.884 -0.0967  0.3995  0.8221
17753TIP3    H174750   0.261   5.901   2.945  1.7169  0.3240  1.4142
17753TIP3    H274751   0.347   5.933   2.825 -0.3958  1.0586  0.0461
17754TIP3   OH274752   4.787   6.733  14.296 -0.5875 -0.3864  0.1528
17754TIP3    H174753   4.720   6.766  14.236 -2.7098 -2.0077  1.4927
17754TIP3    H274754   4.791   6.639  14.279  1.0538 -0.3903  0.4284
17755TIP3   OH274755   1.452   3.003   1.163 -0.3468 -0.1267  0.1241
17755TIP3    H174756   1.387   3.024   1.096  2.7131  0.5879 -2.8793
17755TIP3    H274757   1.452   3.079   1.221 -2.1181 -0.1756  0.2581
17756TIP3   OH274758   5.855   2.216  13.625  0.0783  0.0493 -0.2090
17756TIP3    H174759   5.897   2.153  13.567  0.9800 -0.3701  0.8634
17756TIP3    H274760   5.842   2.294  13.571  0.8192 -0.3570 -0.9822
17757TIP3   OH274761   5.730   0.118   3.016 -0.4804 -0.9232 -0.2917
17757TIP3    H174762   5.821   0.130   2.987 -0.7825 -0.7780 -1.2106
17757TIP3    H274763   5.738   0.091   3.108  0.5116 -1.6016 -0.5593
17758TIP3   OH274764   6.797   2.952  12.139  0.0584 -0.3188  0.1434
17758TIP3    H174765   6.881   2.990  12.162  0.1085 -0.0776 -0.4171
17758TIP3    H274766   6.799   2.864  12.177  0.9312 -0.6465 -0.6172
17759TIP3   OH274767   0.918   6.679  11.903  0.7717  0.1813 -0.5013
17759TIP3    H174768   0.866   6.751  11.939  1.4827  0.9540 -0.9710
17759TIP3    H274769   0.854   6.616  11.871  0.1254  0.8873 -0.6366
17760TIP3   OH274770   1.928   2.641  14.364 -0.1579 -0.5572 -0.9112
17760TIP3    H174771   1.836   2.667  14.376  0.5999  1.5027  1.5876
17760TIP3    H274772   1.969   2.717  14.323  1.1337  0.3169  1.7577
17761TIP3   OH274773   0.951   5.144  13.079  0.2839 -0.0953 -0.1338
17761TIP3    H174774   0.947   5.074  13.144 -0.5420  0.0614 -0.0073
17761TIP3    H274775   0.860   5.155  13.049  0.7952 -0.9950 -2.2060
17762TIP3   OH274776   5.642   5.752   3.145  0.0265  0.2242 -1.0350
17762TIP3    H174777   5.561   5.749   3.095 -2.4183  0.3978  2.5937
17762TIP3    H274778   5.631   5.688   3.214  1.9714  1.8863  0.9863
17763TIP3   OH274779   5.469   5.133   2.630  0.9991  0.1173  0.0203
17763TIP3    H174780   5.483   5.190   2.555  0.2171  0.5159  0.1680
17763TIP3    H274781   5.546   5.147   2.685  0.1685  2.2058  0.7807
17764TIP3   OH274782   5.382   4.795   6.411 -0.2304 -0.0684 -0.0876
17764TIP3    H174783   5.406   4.785   6.319  4.0920 -2.3557  1.0171
17764TIP3    H274784   5.397   4.888   6.429  0.5390  0.0743 -1.3016
17765TIP3   OH274785   2.603   3.947  15.194 -0.0520 -0.3688  0.3852
17765TIP3    H174786   2.674   3.958  15.257  0.0341  0.1833  0.1957
17765TIP3    H274787   2.635   3.986  15.113 -1.1465  1.3858  0.7265
17766TIP3   OH274788   3.935   5.056  13.156 -0.3466 -0.7323 -0.7097
17766TIP3    H174789   4.005   5.050  13.091 -0.2356 -2.3489 -0.4654
17766TIP3    H274790   3.889   4.972  13.150 -1.3512 -0.2634  0.1659
17767TIP3   OH274791   1.473   2.143   1.217  0.7244 -0.4693  0.0623
17767TIP3    H174792   1.505   2.098   1.295  1.7046 -2.2690 -1.3158
17767TIP3    H274793   1.543   2.132   1.153  0.2709  1.6312 -0.8903
17768TIP3   OH274794   4.467   0.208  15.820 -0.3829  0.2767 -0.4961
17768TIP3    H174795   4.469   0.267  15.895 -0.2589 -0.8161  0.3886
17768TIP3    H274796   4.390   0.236  15.771  0.1166  1.6706 -0.5388
17769TIP3   OH274797   2.363   1.043   2.599 -0.1665 -0.1519 -1.0358
17769TIP3    H174798   2.363   1.139   2.599 -0.8220 -0.1447 -1.3337
17769TIP3    H274799   2.271   1.019   2.594 -0.1281 -0.8160  0.7239
17770TIP3   OH274800   1.297   4.569   3.460  0.3689  1.0773  0.0201
17770TIP3    H174801   1.387   4.600   3.451  0.1513  1.3451 -1.5497
17770TIP3    H274802   1.251   4.607   3.385 -0.5642 -0.7536 -0.3846
17771TIP3   OH274803   1.889   2.976   3.517  0.2000 -0.0061  0.0309
17771TIP3    H174804   1.879   3.004   3.425 -0.4630 -0.2682  0.0153
17771TIP3    H274805   1.911   3.057   3.564  0.0883  0.2165 -0.2914
17772TIP3   OH274806   0.323   5.155   2.311 -0.5384 -0.3915 -0.0534
17772TIP3    H174807   0.360   5.243   2.304  0.0043 -0.7510 -3.6364
17772TIP3    H274808   0.231   5.166   2.286 -0.2736 -0.8924 -1.3402
17773TIP3   OH274809   4.210   2.679  12.198 -0.1338 -0.0230  0.2244
17773TIP3    H174810   4.162   2.650  12.121  0.2045 -0.7126  0.2619
17773TIP3    H274811   4.219   2.600  12.252 -1.6665  0.7385  1.6946
17774TIP3   OH274812   1.625   2.287   0.092 -0.2027  0.3836  0.0504
17774TIP3    H174813   1.641   2.225   0.021 -1.0359  0.9406 -0.6481
17774TIP3    H274814   1.536   2.267   0.121 -1.0027  2.0269 -1.0445
17775TIP3   OH274815   4.953   1.128   0.076 -0.3150 -0.0888 -0.0537
17775TIP3    H174816   4.919   1.137  -0.012 -1.9192 -0.2392  0.5221
17775TIP3    H274817   5.019   1.059   0.070  0.8094  1.0666 -1.4343
17776TIP3   OH274818   3.317   3.072  15.142  0.7947  0.0515  0.2292
17776TIP3    H174819   3.289   3.022  15.066  1.0872 -2.2085  1.5245
17776TIP3    H274820   3.265   3.153  15.138 -0.1753 -0.6071 -1.6073
17777TIP3   OH274821   0.889   2.273  13.261 -0.0225 -0.9111 -0.6103
17777TIP3    H174822   0.937   2.192  13.241  1.4076 -1.0911  2.8102
17777TIP3    H274823   0.957   2.340  13.268 -0.8748 -0.0146 -0.6707
17778TIP3   OH274824   5.573   3.619  12.079  0.2230 -0.1277  0.0923
17778TIP3    H174825   5.498   3.561  12.093 -0.5047  0.7787 -0.0080
17778TIP3    H274826   5.546   3.703  12.116  0.7608  0.5173 -0.9607
17779TIP3   OH274827   1.345   5.996   5.793 -1.0354  0.4264 -0.0395
17779TIP3    H174828   1.440   6.006   5.789 -0.8075 -0.6234  1.9753
17779TIP3    H274829   1.324   5.939   5.719  0.2566 -1.5567  1.0537
17780TIP3   OH274830   5.207   3.086  13.146 -0.3202  0.1741  1.1082
17780TIP3    H174831   5.208   3.179  13.172 -2.4132  0.5449  0.0535
17780TIP3    H274832   5.270   3.081  13.073  0.0461  0.6784  1.3806
17781TIP3   OH274833   5.067   3.265   2.943  0.1143  0.2886  0.0597
17781TIP3    H174834   5.102   3.352   2.963  2.4720 -0.9442  1.8152
17781TIP3    H274835   5.026   3.275   2.857 -0.5943  3.3331  0.6339
17782TIP3   OH274836   0.500   6.360   0.377  0.4219  0.2938 -0.4374
17782TIP3    H174837   0.408   6.366   0.352  0.9789 -0.2171 -2.9305
17782TIP3    H274838   0.532   6.283   0.330  2.0022  0.1122  0.8560
17783TIP3   OH274839   5.828   4.816  14.586  0.2777 -0.4848 -0.3154
17783TIP3    H174840   5.884   4.894  14.575  0.4496 -0.8693 -2.8770
17783TIP3    H274841   5.872   4.764  14.652  0.8194  1.0278  0.5690
17784TIP3   OH274842   1.987   4.943   3.274 -0.3644 -0.2146  0.0129
17784TIP3    H174843   2.020   5.008   3.337 -0.4563 -0.6787  0.5491
17784TIP3    H274844   1.918   4.896   3.322  0.5007 -1.4999  0.0460
17785TIP3   OH274845   4.300   0.507   2.716  0.0809 -0.3845  0.2300
17785TIP3    H174846   4.275   0.578   2.657 -0.7971  0.9578  2.0895
17785TIP3    H274847   4.225   0.448   2.714  0.3512 -0.7063 -0.5107
17786TIP3   OH274848   3.155   0.054  14.404  0.1257  0.2484  0.0244
17786TIP3    H174849   3.153   0.124  14.469 -0.4196 -1.2586  1.7216
17786TIP3    H274850   3.186  -0.023  14.452 -2.2059 -1.4320 -0.9606
17787TIP3   OH274851   4.979   5.018  13.878 -0.5426 -0.6398  0.1062
17787TIP3    H174852   5.068   5.016  13.841 -0.8878 -0.4633 -0.7435
17787TIP3    H274853   4.990   4.983  13.967  0.7176  1.2445  0.7577
17788TIP3   OH274854   1.243   2.326   0.884  0.3462  0.3211 -0.1643
17788TIP3    H174855   1.190   2.386   0.936  0.0098 -0.6679  0.6867
17788TIP3    H274856   1.232   2.241   0.928  0.5509 -0.4242 -1.4908
17789TIP3   OH274857   5.383   6.117   1.727 -0.7201 -0.2656 -0.9823
17789TIP3    H174858   5.303   6.101   1.777 -0.5543 -1.4609 -1.0672
17789TIP3    H274859   5.354   6.114   1.636 -0.6789 -0.1488 -0.9980
17790TIP3   OH274860   5.527   1.338   4.146 -0.5524 -0.0339  0.0890
17790TIP3    H174861   5.473   1.395   4.201 -0.9680 -0.3072 -0.0310
17790TIP3    H274862   5.480   1.254   4.144  0.1303 -0.4275  0.3829
17791TIP3   OH274863   3.597   6.501  11.300  0.3907  0.0745 -0.3401
17791TIP3    H174864   3.610   6.467  11.211 -1.0844 -0.3178 -0.4442
17791TIP3    H274865   3.666   6.566  11.312  1.8184 -1.2628 -1.0394
17792TIP3   OH274866   3.355   2.060  15.252 -0.4568  0.4651  0.9202
17792TIP3    H174867   3.275   2.012  15.231 -1.3230  0.2882  4.1652
17792TIP3    H274868   3.326   2.136  15.301  1.2830  1.5328  0.3938
17793TIP3   OH274869   4.704   0.983  16.230  0.0840  0.4910 -0.3022
17793TIP3    H174870   4.778   0.923  16.218 -0.9983 -0.7364 -1.0814
17793TIP3    H274871   4.730   1.062  16.182  0.1150 -0.6544 -2.2945
17794TIP3   OH274872   2.360   0.828   1.473 -0.5015 -0.4229  0.5918
17794TIP3    H174873   2.384   0.737   1.458 -0.4869 -0.0663 -2.0961
17794TIP3    H274874   2.265   0.826   1.490 -0.2027 -1.0464  2.3761
17795TIP3   OH274875   5.730   5.108  16.972  0.5547  0.0988  0.3348
17795TIP3    H174876   5.761   5.097  16.882 -0.4571 -0.0473 -0.0099
17795TIP3    H274877   5.767   5.033  17.018  2.2658  0.9321  0.3978
17796TIP3   OH274878   6.328   1.613  16.676  0.3197 -0.0184  0.4946
17796TIP3    H174879   6.376   1.673  16.733  0.6184  0.0496  0.1740
17796TIP3    H274880   6.239   1.648  16.674  0.7922  1.1868 -0.7372
17797TIP3   OH274881   5.211   3.694  11.271  0.5554  0.2357 -0.4168
17797TIP3    H174882   5.289   3.664  11.225  0.9808  0.1757  0.3290
17797TIP3    H274883   5.242   3.767  11.326 -0.1701  1.0936 -1.1061
17798TIP3   OH274884   2.878   1.089  13.429 -0.4832 -0.2353 -0.0681
17798TIP3    H174885   2.929   1.008  13.440  1.7537  1.2402  1.1382
17798TIP3    H274886   2.818   1.069  13.356 -0.4128 -3.1226  0.5222
17799TIP3   OH274887   3.548   2.854  14.728  0.6840  0.5808 -0.0531
17799TIP3    H174888   3.483   2.784  14.717  0.6638  0.5384  0.3342
17799TIP3    H274889   3.512   2.928  14.678  0.4976  0.4532 -0.1095
17800TIP3   OH274890   5.629   4.629  12.004  0.3111  0.2412  0.1101
17800TIP3    H174891   5.586   4.706  11.967 -1.2818  0.5247  2.3405
17800TIP3    H274892   5.561   4.586  12.056  1.1056 -2.8447 -1.2360
17801TIP3   OH274893   1.197   0.097   5.389 -0.5959 -0.0871  0.9413
17801TIP3    H174894   1.181   0.003   5.388 -1.6708  0.0450  2.1610
17801TIP3    H274895   1.177   0.126   5.300 -1.7620 -0.8016  0.9489
17802TIP3   OH274896   5.284   2.235  16.225 -0.0631  0.7724  0.2920
17802TIP3    H174897   5.333   2.154  16.243 -2.2256 -0.3230  1.6927
17802TIP3    H274898   5.254   2.225  16.134 -0.4764 -0.1009  0.5173
17803TIP3   OH274899   0.247   3.396   0.893  0.6935  0.3654  0.2084
17803TIP3    H174900   0.293   3.446   0.825  1.5254  1.8992  1.8105
17803TIP3    H274901   0.274   3.437   0.975 -1.1491 -0.6999  1.4190
17804TIP3   OH274902   2.600   1.381   0.524  0.0368  0.1544  0.5949
17804TIP3    H174903   2.641   1.366   0.609  1.2998 -0.7047 -0.1291
17804TIP3    H274904   2.510   1.407   0.544 -0.6885 -3.0595  2.1673
17805TIP3   OH274905   2.234   0.124   2.489  0.6794  0.7812 -0.5305
17805TIP3    H174906   2.275   0.195   2.539 -0.0975  1.8099 -1.2995
17805TIP3    H274907   2.217   0.163   2.403 -0.8868  0.0477 -0.5752
17806TIP3   OH274908   2.276   2.636  13.607  0.0104  0.2198  0.2934
17806TIP3    H174909   2.193   2.674  13.580 -0.2184 -1.2229 -1.1845
17806TIP3    H274910   2.338   2.661  13.538  0.0983 -1.1047 -0.1495
17807TIP3   OH274911   2.361   5.154   6.048 -0.2843  0.1355 -0.1980
17807TIP3    H174912   2.375   5.233   5.997  0.9166  0.8015  1.0901
17807TIP3    H274913   2.437   5.098   6.029 -0.5881 -0.2541 -0.2884
17808TIP3   OH274914   6.820   6.598  11.522 -0.0890  0.5377 -0.2417
17808TIP3    H174915   6.887   6.621  11.587 -0.9293  0.0339  0.8387
17808TIP3    H274916   6.767   6.677  11.512 -1.7932 -0.2041  2.0107
17809TIP3   OH274917   0.060   1.138   5.068 -0.1519 -0.5784 -0.3103
17809TIP3    H174918   0.092   1.173   4.985 -2.5857  1.6150 -0.4390
17809TIP3    H274919  -0.020   1.091   5.045 -0.0006 -1.3087  0.6170
17810TIP3   OH274920   1.606   0.659  12.192  0.5155 -0.9785 -0.2789
17810TIP3    H174921   1.638   0.707  12.116  1.8026  1.4257  1.6275
17810TIP3    H274922   1.535   0.714  12.226  1.5388 -0.6889  1.5456
17811TIP3   OH274923   4.783   1.710  11.671 -0.2499 -0.3090 -0.2628
17811TIP3    H174924   4.850   1.651  11.705 -0.1135  0.3417  0.6072
17811TIP3    H274925   4.745   1.662  11.596  0.0786 -1.3582  0.2262
17812TIP3   OH274926   4.474   0.517  12.563  0.7000 -0.4222 -0.6139
17812TIP3    H174927   4.408   0.582  12.588  2.9536  2.7396 -2.3058
17812TIP3    H274928   4.518   0.496  12.646 -0.2947 -0.1030  0.0250
17813TIP3   OH274929   0.073   2.217  14.645  0.5953  0.5811 -0.8325
17813TIP3    H174930   0.068   2.274  14.568 -0.6995 -0.7488 -1.7731
17813TIP3    H274931   0.164   2.225  14.674  0.8730  1.8204 -1.9380
17814TIP3   OH274932   0.478   2.069   0.589  0.1623 -0.2237 -0.0634
17814TIP3    H174933   0.532   2.000   0.628 -0.7593  0.5101  2.7319
17814TIP3    H274934   0.388   2.037   0.597 -0.1185  0.2884 -0.9745
17815TIP3   OH274935   2.860   5.282   4.486 -0.8427 -0.1838  0.8486
17815TIP3    H174936   2.822   5.231   4.415  0.7029 -1.3034  0.7950
17815TIP3    H274937   2.951   5.253   4.492  0.2024  2.6507  0.7062
17816TIP3   OH274938   2.747   0.531  11.272  0.4036 -0.1361  0.3915
17816TIP3    H174939   2.717   0.453  11.225 -1.8428  0.9406 -0.0791
17816TIP3    H274940   2.774   0.498  11.358 -1.9077 -1.2985  0.7465
17817TIP3   OH274941   3.215   6.643   1.442 -0.0064  0.0305  0.0425
17817TIP3    H174942   3.222   6.719   1.501  1.5837 -0.0387 -0.0265
17817TIP3    H274943   3.240   6.677   1.357  0.0059 -0.4247 -0.1343
17818TIP3   OH274944   2.408   0.690   3.806 -0.4477  0.1410  0.0139
17818TIP3    H174945   2.460   0.752   3.753  0.4298 -1.3301 -0.9108
17818TIP3    H274946   2.390   0.617   3.747 -1.2046 -0.6387  1.1709
17819TIP3   OH274947   0.826   5.509   4.967 -0.0609 -0.0561  0.2576
17819TIP3    H174948   0.765   5.547   5.029  1.3876  1.4136  0.8407
17819TIP3    H274949   0.770   5.459   4.907 -1.5134 -1.5327  2.6546
17820TIP3   OH274950   5.442   0.449   4.665 -0.1185 -0.0521 -0.5589
17820TIP3    H174951   5.390   0.374   4.637 -2.7717  1.2667  0.5102
17820TIP3    H274952   5.435   0.511   4.593 -0.8053  0.4757 -0.0480
17821TIP3   OH274953   4.414   2.064  11.447  0.0796  0.4981 -0.0688
17821TIP3    H174954   4.503   2.091  11.471  0.4612 -0.7151 -0.0270
17821TIP3    H274955   4.410   1.972  11.474 -0.9098  0.3128 -0.8273
17822TIP3   OH274956   1.513   0.442   5.088 -0.2976  0.1399 -0.1538
17822TIP3    H174957   1.474   0.495   5.018  1.3771  1.0630 -0.4625
17822TIP3    H274958   1.572   0.503   5.133  0.2349 -0.9968  0.7230
17823TIP3   OH274959   3.734   6.453   0.603  0.5899  0.0279  0.3535
17823TIP3    H174960   3.669   6.383   0.602 -0.4564  0.9642  0.3986
17823TIP3    H274961   3.801   6.423   0.665  0.3169 -1.0584  0.1278
17824TIP3   OH274962   6.282   2.330   4.718  0.0776 -0.1324  0.3854
17824TIP3    H174963   6.259   2.261   4.780  0.5529 -0.6286  0.0225
17824TIP3    H274964   6.364   2.300   4.678  0.1479  0.5145  0.0282
17825TIP3   OH274965   0.249   1.203  10.485 -0.3857  0.3185 -0.2162
17825TIP3    H174966   0.332   1.247  10.503  1.1547 -1.5965 -2.0707
17825TIP3    H274967   0.201   1.263  10.428 -0.1665  1.3006  0.5991
17826TIP3   OH274968   0.581   1.160  12.538 -0.0897  0.0115 -0.7432
17826TIP3    H174969   0.660   1.122  12.499  1.3322  1.9308  0.1086
17826TIP3    H274970   0.581   1.126  12.628 -0.2548 -0.0185 -0.7548
17827TIP3   OH274971   1.210   2.199   5.365 -0.4206 -0.3814 -0.3892
17827TIP3    H174972   1.214   2.128   5.429  1.4204  0.6329  0.7117
17827TIP3    H274973   1.133   2.250   5.390  0.2165 -0.0635  0.9791
17828TIP3   OH274974   0.771   2.534  16.316 -0.3737 -0.2976  0.2814
17828TIP3    H174975   0.778   2.448  16.357  0.7072 -1.3082 -1.8403
17828TIP3    H274976   0.680   2.541  16.290 -0.4831 -0.7934  0.5227
17829TIP3   OH274977   5.669   0.202  16.468 -0.7405  0.1707  0.1503
17829TIP3    H174978   5.728   0.276  16.478 -0.3035  0.0076 -1.0354
17829TIP3    H274979   5.657   0.193  16.373 -3.4663  0.8198  0.3441
17830TIP3   OH274980   0.034   5.087   2.805 -0.5240 -0.0787  0.0144
17830TIP3    H174981  -0.032   5.056   2.867 -1.0304  2.4527  0.8899
17830TIP3    H274982   0.049   5.013   2.746 -1.2178 -2.0647  2.1641
17831TIP3   OH274983   5.884   0.317   4.140  0.3953  0.0011  0.0908
17831TIP3    H174984   5.911   0.283   4.225 -0.2496 -1.2299 -0.1751
17831TIP3    H274985   5.965   0.346   4.099  0.6229  1.3857  1.4363
17832TIP3   OH274986   5.461   5.386   6.236 -0.1219 -0.1100  0.0818
17832TIP3    H174987   5.405   5.396   6.313 -2.6620  0.8111 -1.7410
17832TIP3    H274988   5.472   5.475   6.202 -0.4687 -0.6301 -1.4995
17833TIP3   OH274989   3.027   1.350   4.027 -0.2972  0.1745  0.2923
17833TIP3    H174990   3.053   1.268   4.069  0.1832 -0.4127 -1.0861
17833TIP3    H274991   3.096   1.366   3.962 -0.4594  1.5992  0.4556
17834TIP3   OH274992   3.177   1.630  11.848  0.1582  0.0684  0.0380
17834TIP3    H174993   3.125   1.631  11.928 -1.8225 -0.3726 -1.1977
17834TIP3    H274994   3.248   1.567  11.867  0.4520  0.8686  1.8270
17835TIP3   OH274995   5.570   5.586  15.767  0.2150 -0.0408  0.3476
17835TIP3    H174996   5.531   5.499  15.775 -0.6668  0.4941  3.3034
17835TIP3    H274997   5.631   5.592  15.841  1.2801  1.3811 -0.5931
17836TIP3   OH274998   2.744   5.301  10.537 -0.0525  0.0491 -0.3192
17836TIP3    H174999   2.724   5.208  10.532  1.0976 -0.3186  1.0353
17836TIP3    H275000   2.659   5.345  10.533 -0.7143 -1.1344  0.2091
17837TIP3   OH275001   0.747   5.767  16.709 -0.5984  0.2824 -0.0946
17837TIP3    H175002   0.798   5.806  16.637 -2.5749  1.2164 -1.0779
17837TIP3    H275003   0.702   5.693  16.669  0.4450 -0.9261  0.9194
17838TIP3   OH275004   0.417   3.431  14.690 -0.3968 -0.1502 -0.3833
17838TIP3    H175005   0.447   3.442  14.780 -1.7487  0.7053 -0.0024
17838TIP3    H275006   0.407   3.336  14.680 -0.3502 -0.2475  0.4080
17839TIP3   OH275007   2.299   0.296   4.731 -0.3621  0.3263 -0.0753
17839TIP3    H175008   2.268   0.206   4.743 -1.8932  0.9088  0.5110
17839TIP3    H275009   2.359   0.290   4.656 -0.0929 -1.2414  0.2185
17840TIP3   OH275010   1.268   3.242   4.601  0.1213  0.6124  0.1855
17840TIP3    H175011   1.329   3.192   4.546  1.8291  1.6987  1.0066
17840TIP3    H275012   1.230   3.176   4.659 -0.9216 -0.3790 -1.5251
17841TIP3   OH275013   1.656   2.677  14.389 -0.4776  0.0423 -0.3143
17841TIP3    H175014   1.635   2.770  14.383 -0.2174  0.2268  1.1725
17841TIP3    H275015   1.630   2.653  14.478 -0.2111 -1.2290 -0.5632
17842TIP3   OH275016   0.387   0.663   0.482  0.0639 -0.6522  0.3460
17842TIP3    H175017   0.384   0.753   0.451  1.0911 -0.1581  1.5985
17842TIP3    H275018   0.475   0.633   0.459  0.8827 -0.2488  2.7369
17843TIP3   OH275019   3.999   3.204   0.278 -0.5582 -0.2968 -0.3521
17843TIP3    H175020   4.041   3.221   0.362  2.2666 -1.3723 -1.4312
17843TIP3    H275021   3.951   3.123   0.292 -0.5479 -0.1955  0.3406
17844TIP3   OH275022   2.723   4.191  11.810 -0.0973 -0.6629  0.0900
17844TIP3    H175023   2.646   4.189  11.754  1.1947 -1.9374 -1.7469
17844TIP3    H275024   2.700   4.137  11.885 -0.6277 -1.9717 -0.9866
17845TIP3   OH275025   5.218   0.267  15.057 -0.0116 -0.3156  0.2732
17845TIP3    H175026   5.129   0.232  15.052 -0.0859 -0.1042  0.1197
17845TIP3    H275027   5.214   0.350  15.010  0.4279 -0.6236 -0.3234
17846TIP3   OH275028   2.174   3.192   3.307 -0.1696 -0.5539 -0.8331
17846TIP3    H175029   2.143   3.109   3.270 -3.1739 -0.9221  2.0358
17846TIP3    H275030   2.114   3.257   3.271  0.5842 -0.0030 -1.1037
17847TIP3   OH275031   4.000   3.071  12.816 -0.4576 -0.4153 -0.0273
17847TIP3    H175032   4.044   3.066  12.731 -0.9926  3.0597 -0.6631
17847TIP3    H275033   4.053   3.133  12.867 -2.7844  1.4523  0.2976
17848TIP3   OH275034   1.548   4.268   5.616 -0.8293 -0.3108 -0.2372
17848TIP3    H175035   1.487   4.323   5.665  0.5866  1.2791 -0.1553
17848TIP3    H275036   1.493   4.225   5.550 -2.0199  1.1508 -0.2569
17849TIP3   OH275037   3.558   3.160   3.095 -0.2966  0.2798  0.1306
17849TIP3    H175038   3.557   3.114   3.179  1.4967  2.1920  1.3019
17849TIP3    H275039   3.650   3.184   3.082 -0.8559  1.7809 -1.3949
17850TIP3   OH275040   4.940   6.305  11.297 -0.4730  0.2019  0.1557
17850TIP3    H175041   4.997   6.331  11.223 -0.8895  0.2553 -0.1487
17850TIP3    H275042   4.947   6.378  11.359 -0.0040  0.0916  0.2391
17851TIP3   OH275043   3.037   0.741  15.688  0.4859 -0.2394  0.3185
17851TIP3    H175044   3.092   0.703  15.619 -0.8855 -1.4478 -0.1648
17851TIP3    H275045   3.088   0.815  15.721  0.5763  1.3805 -3.0033
17852TIP3   OH275046   3.745   3.006   3.508  0.5213  0.5519 -0.1908
17852TIP3    H175047   3.698   3.046   3.435  0.6513  2.5638  0.7604
17852TIP3    H275048   3.678   2.955   3.555 -1.2207  4.2084  1.7648
17853TIP3   OH275049   6.582   2.223  14.649  0.5983  0.3368 -0.2027
17853TIP3    H175050   6.540   2.305  14.675  1.0483  0.9496 -1.3048
17853TIP3    H275051   6.645   2.249  14.582 -1.3136 -1.2170 -2.7990
17854TIP3   OH275052   4.796   4.518   3.160  0.3273 -0.6219  0.1102
17854TIP3    H175053   4.765   4.602   3.196  0.7944 -0.4621  0.1421
17854TIP3    H275054   4.851   4.543   3.086 -0.5291 -0.9463 -0.6476
17855TIP3   OH275055   1.276   3.638  16.431  0.0040  0.8475  0.3682
17855TIP3    H175056   1.321   3.681  16.358 -1.0022  0.7066 -0.3519
17855TIP3    H275057   1.347   3.611  16.490  0.8262  1.0462 -0.4984
17856TIP3   OH275058   1.295   1.016   4.353  0.2096 -0.5746  0.2112
17856TIP3    H175059   1.357   0.958   4.307 -0.0925 -0.0763 -0.8699
17856TIP3    H275060   1.268   1.079   4.286 -1.4243 -0.7517  0.6691
17857TIP3   OH275061   4.054   5.187  13.371  0.3261  0.0015  0.2099
17857TIP3    H175062   4.007   5.122  13.318  1.3776 -0.9981  0.4729
17857TIP3    H275063   4.106   5.237  13.307  1.0813 -0.7631  0.2235
17858TIP3   OH275064   6.276   3.496   4.451 -0.3882  0.0289 -0.1233
17858TIP3    H175065   6.219   3.438   4.401  0.0782 -0.0456 -0.5766
17858TIP3    H275066   6.355   3.444   4.466  1.2048  1.4178 -2.9394
17859TIP3   OH275067   5.445   1.839  11.737 -0.3794  0.3079 -0.6564
17859TIP3    H175068   5.533   1.834  11.699  1.2053  0.7237  2.5627
17859TIP3    H275069   5.427   1.933  11.743 -0.9215  0.2303 -1.0593
17860TIP3   OH275070   0.687   3.211  15.627  0.5214  0.0960 -0.1229
17860TIP3    H175071   0.603   3.254  15.610  1.8619  3.0959  0.1514
17860TIP3    H275072   0.704   3.159  15.549  0.1093  2.5108 -1.9357
17861TIP3   OH275073   0.819   6.261  16.529 -0.1976 -0.7485 -0.5782
17861TIP3    H175074   0.843   6.289  16.617  0.8544  0.3389 -1.1934
17861TIP3    H275075   0.723   6.265  16.528 -0.2889 -1.7316  0.7984
17862TIP3   OH275076   4.214   3.493   4.850  0.2544  0.2982 -0.3974
17862TIP3    H175077   4.253   3.422   4.799  0.9504  0.1115  0.3779
17862TIP3    H275078   4.123   3.468   4.861 -0.0182  0.5412 -1.8905
17863TIP3   OH275079   6.413   6.141   0.463  0.4166 -0.3787  0.2891
17863TIP3    H175080   6.477   6.188   0.409 -0.2772 -1.8604 -1.9933
17863TIP3    H275081   6.436   6.049   0.453  0.0507 -0.7495  2.3779
17864TIP3   OH275082   1.044   0.433  16.227 -0.3509 -0.1222  0.4680
17864TIP3    H175083   1.104   0.437  16.152  1.7897 -0.8699  2.0603
17864TIP3    H275084   0.957   0.433  16.187  0.6585  0.8842 -1.9497
17865TIP3   OH275085   2.565   0.288  15.058  0.0242  0.3755 -0.2534
17865TIP3    H175086   2.500   0.247  15.000 -1.0695 -0.1571  1.2788
17865TIP3    H275087   2.533   0.270  15.146  2.3310  0.0064  0.5833
17866TIP3   OH275088   2.342   0.121   3.096  0.2492  0.0209 -0.4193
17866TIP3    H175089   2.383   0.206   3.109 -1.4182  0.7478  0.2891
17866TIP3    H275090   2.414   0.058   3.104  1.2511  1.2534  0.5654
17867TIP3   OH275091   5.084   5.549   4.692 -0.6195  0.1510 -0.3583
17867TIP3    H175092   5.131   5.481   4.740  0.0703 -0.2433 -1.5696
17867TIP3    H275093   5.122   5.631   4.724  1.8835 -0.1710 -2.1954
17868TIP3   OH275094   0.034   2.175   5.379 -0.6464  0.7568 -0.0434
17868TIP3    H175095  -0.019   2.210   5.451  1.4405  0.5428  1.6908
17868TIP3    H275096   0.066   2.091   5.411  0.2874  0.6326 -1.2391
17869TIP3   OH275097   0.656   0.134   1.449 -0.0579  0.1984 -0.5354
17869TIP3    H175098   0.656   0.181   1.366 -2.0862 -1.3577 -1.5136
17869TIP3    H275099   0.717   0.061   1.435 -0.5557 -0.1824 -0.7604
17870TIP3   OH275100   6.385   3.827  10.780 -0.4012  0.2736 -0.2236
17870TIP3    H175101   6.307   3.771  10.784 -0.1280 -0.0471  1.9233
17870TIP3    H275102   6.351   3.915  10.768 -1.3780  0.4682  2.9933
17871TIP3   OH275103   2.757   1.821   5.493 -0.4685 -0.0406 -0.6523
17871TIP3    H175104   2.710   1.817   5.576 -0.7176  0.9131 -0.7330
17871TIP3    H275105   2.689   1.839   5.427  0.0574  2.2657 -0.6551
17872TIP3   OH275106   5.006   0.235   3.918  0.4906  0.2196  0.0166
17872TIP3    H175107   5.073   0.206   3.981 -0.6583  0.0592  1.2104
17872TIP3    H275108   4.983   0.155   3.870  2.2678  0.5797 -1.5440
17873TIP3   OH275109   0.824   4.550  14.323  0.2085 -0.0944  0.3235
17873TIP3    H175110   0.803   4.457  14.324  0.7361 -0.2068  1.0825
17873TIP3    H275111   0.743   4.592  14.293 -0.4368 -0.6939  1.1920
17874TIP3   OH275112   5.505   4.738  11.523  0.4211  0.4521  0.3252
17874TIP3    H175113   5.417   4.706  11.504  0.2715  0.8831  0.2855
17874TIP3    H275114   5.494   4.800  11.594  1.1316 -2.0360  2.7818
17875TIP3   OH275115   6.539   4.686  16.167  0.0989 -0.1561 -0.1735
17875TIP3    H175116   6.628   4.720  16.180  0.4619 -0.7241 -1.1148
17875TIP3    H275117   6.536   4.659  16.075 -0.4796 -1.7903  0.2949
17876TIP3   OH275118   6.190   1.578  12.031 -0.2218  0.4095 -0.1142
17876TIP3    H175119   6.139   1.659  12.022 -0.8950 -0.0060 -0.1803
17876TIP3    H275120   6.196   1.563  12.125  2.2381  1.9436  0.0576
17877TIP3   OH275121   3.320   4.153  15.121 -0.3173 -0.6980  1.1733
17877TIP3    H175122   3.246   4.211  15.102 -0.9543 -2.3034 -2.0870
17877TIP3    H275123   3.282   4.065  15.116  1.7610 -1.5624 -0.5924
17878TIP3   OH275124   3.057   5.919  17.056  0.0834  0.0971 -0.5023
17878TIP3    H175125   3.073   5.977  17.131 -2.3218 -0.1665  0.3158
17878TIP3    H275126   3.129   5.856  17.058  1.7753  1.9155 -0.3364
17879TIP3   OH275127   4.284   4.883  16.157  0.0748 -0.1001 -0.0964
17879TIP3    H175128   4.306   4.878  16.064 -2.2715 -1.5425 -0.6799
17879TIP3    H275129   4.231   4.963  16.164 -0.5500 -0.4969 -0.2192
17880TIP3   OH275130   0.436   2.316   2.866  0.2084  0.4535 -0.3239
17880TIP3    H175131   0.435   2.350   2.777  2.0281  0.7230 -0.2816
17880TIP3    H275132   0.515   2.261   2.870 -0.2002 -0.0834  0.9266
17881TIP3   OH275133   3.875   0.338   0.590  0.0015  0.0851  0.8005
17881TIP3    H175134   3.795   0.351   0.642 -0.3143  0.8733  0.1495
17881TIP3    H275135   3.883   0.243   0.582 -1.2052 -0.0034  0.3853
17882TIP3   OH275136   2.177   6.202   1.235  0.1580 -0.0082 -0.7935
17882TIP3    H175137   2.218   6.216   1.320  0.7267  1.1382 -1.2389
17882TIP3    H275138   2.251   6.187   1.176 -0.1837  0.0694 -1.2415
17883TIP3   OH275139   6.356   0.394   4.509  0.5369  0.5185  0.0526
17883TIP3    H175140   6.354   0.313   4.561  2.1947  0.8800  0.7270
17883TIP3    H275141   6.323   0.461   4.569  1.5814  0.7719  0.3628
17884TIP3   OH275142   5.009   1.872  14.235  0.1234  0.3475 -0.1099
17884TIP3    H175143   5.001   1.795  14.180  1.3581 -0.0454  0.2386
17884TIP3    H275144   4.955   1.852  14.312  2.0688 -1.0820  0.9448
17885TIP3   OH275145   1.232   4.070  14.680  0.4417  0.0164 -0.2479
17885TIP3    H175146   1.303   4.134  14.678  0.5294 -0.0960 -1.7588
17885TIP3    H275147   1.164   4.111  14.733  0.2743  1.6329 -1.6390
17886TIP3   OH275148   4.451   5.775   0.704  0.1687  0.7683  0.0219
17886TIP3    H175149   4.424   5.683   0.715  2.3632 -0.1171 -1.3032
17886TIP3    H275150   4.542   5.776   0.734  0.3761  2.3814 -0.6271
17887TIP3   OH275151   0.078   1.219   1.486 -0.1409  0.0477  0.2289
17887TIP3    H175152   0.055   1.311   1.491  0.4624  0.1678  1.1462
17887TIP3    H275153   0.072   1.188   1.577  0.9813 -0.4668  0.1529
17888TIP3   OH275154   0.782   5.271   1.395  0.8649 -1.1128  0.4200
17888TIP3    H175155   0.707   5.213   1.408  0.6656 -1.2698 -1.2180
17888TIP3    H275156   0.762   5.348   1.448 -0.8450 -0.8406 -0.5423
17889TIP3   OH275157   0.009   0.340   1.005 -0.0496  0.0020  0.1059
17889TIP3    H175158   0.024   0.377   0.918 -0.4692  0.1063  0.0751
17889TIP3    H275159   0.062   0.260   1.007  0.1996  0.1593 -0.1327
17890TIP3   OH275160   5.371   1.566   2.373  0.2523 -0.5252 -0.1218
17890TIP3    H175161   5.276   1.577   2.383  0.1713 -1.5203  0.2870
17890TIP3    H275162   5.387   1.588   2.281 -0.0604  1.5953  0.2695
17891TIP3   OH275163   0.809   5.714  15.764  0.7226  0.2547 -0.6918
17891TIP3    H175164   0.768   5.638  15.806 -1.2981  2.1142  0.9691
17891TIP3    H275165   0.869   5.676  15.700  0.1585 -2.7268  0.3523
17892TIP3   OH275166   0.157   1.789  13.868  0.3045 -0.0225 -0.8094
17892TIP3    H175167   0.227   1.763  13.807 -0.0055 -2.9411 -0.0767
17892TIP3    H275168   0.181   1.749  13.951 -2.7897 -2.2688 -0.8220
17893TIP3   OH275169   6.121   1.165  12.388  0.2000  0.5738  0.3679
17893TIP3    H175170   6.058   1.227  12.423  0.7811  2.7056 -2.0923
17893TIP3    H275171   6.194   1.168  12.450 -0.6280  0.7115  1.3784
17894TIP3   OH275172   3.599   1.937   2.952 -0.3570  0.1134 -0.2029
17894TIP3    H175173   3.676   1.943   3.009  0.4640 -0.7564 -1.1731
17894TIP3    H275174   3.634   1.904   2.869 -1.8499 -0.8416 -0.4896
17895TIP3   OH275175   4.387   5.484   3.220  0.4988 -0.1228 -0.1630
17895TIP3    H175176   4.318   5.431   3.180  0.1255  0.4917 -0.3478
17895TIP3    H275177   4.345   5.526   3.295  1.3950 -1.8781  1.3975
17896TIP3   OH275178   0.342   6.553  12.439 -0.0767 -0.2657  0.0557
17896TIP3    H175179   0.328   6.534  12.346  0.5696  0.5985 -0.2312
17896TIP3    H275180   0.308   6.642  12.451  0.9706  0.1125  0.3490
17897TIP3   OH275181   3.414   5.597   5.844 -0.6076  0.3144  0.3083
17897TIP3    H175182   3.396   5.690   5.857  0.9418  0.6573  0.2049
17897TIP3    H275183   3.494   5.581   5.895 -0.6644 -0.8839  0.0485
17898TIP3   OH275184   4.923   3.012  12.950 -0.2716  0.0237 -0.7616
17898TIP3    H175185   4.997   3.073  12.945  0.2146 -0.6649 -2.9563
17898TIP3    H275186   4.923   2.982  13.041  3.7513 -1.8238 -1.1429
17899TIP3   OH275187   6.658   1.033   3.313  0.4822 -0.4514  0.5996
17899TIP3    H175188   6.612   0.983   3.381  1.5443 -1.0574  0.8994
17899TIP3    H275189   6.730   0.976   3.287 -0.5407 -0.7532 -1.8880
17900TIP3   OH275190   5.753   2.377   2.858 -0.4047 -0.1956 -0.0538
17900TIP3    H175191   5.785   2.326   2.933  1.6904  0.8098 -0.2003
17900TIP3    H275192   5.696   2.443   2.898 -2.5816 -2.0818  0.2002
17901TIP3   OH275193   6.003   2.926   0.534 -0.1986 -0.0045 -0.3418
17901TIP3    H175194   5.974   2.906   0.623  0.0015 -2.2235 -0.7114
17901TIP3    H275195   6.009   3.021   0.532 -2.9116  0.2987  1.1466
17902TIP3   OH275196   0.241   1.677   1.857 -0.0163  0.8384  0.2282
17902TIP3    H175197   0.276   1.732   1.786 -1.4060  0.3365 -0.8890
17902TIP3    H275198   0.213   1.597   1.814  1.9583 -0.8185  1.8358
17903TIP3   OH275199   5.369   3.346  13.874 -0.5296  0.6356 -0.7268
17903TIP3    H175200   5.429   3.389  13.814 -0.8256  0.3727 -1.2259
17903TIP3    H275201   5.317   3.416  13.912  1.1132  1.0426  0.9083
17904TIP3   OH275202   5.139   6.655   1.937  0.3209  0.3689  0.3845
17904TIP3    H175203   5.050   6.658   1.971 -0.6870  0.6720 -2.0590
17904TIP3    H275204   5.193   6.693   2.006 -1.4630  0.4559  1.7966
17905TIP3   OH275205   5.110   0.510   5.291 -0.0129  0.1886 -0.0228
17905TIP3    H175206   5.112   0.508   5.196 -0.7820  0.6079 -0.0541
17905TIP3    H275207   5.081   0.423   5.317  2.1727 -0.6369 -0.0729
17906TIP3   OH275208   3.779   3.406   0.114  0.4066  0.4121 -0.0322
17906TIP3    H175209   3.814   3.407   0.203 -1.9639 -0.1695  0.9815
17906TIP3    H275210   3.715   3.476   0.112 -0.9437 -0.7936 -0.6636
17907TIP3   OH275211   6.340   1.195   2.821 -0.2290  0.0366 -0.2065
17907TIP3    H175212   6.341   1.184   2.726 -0.0031 -1.1589 -0.0830
17907TIP3    H275213   6.422   1.154   2.851  0.4681  1.7631  0.3810
17908TIP3   OH275214   4.066   5.325  14.713  0.2123 -0.5057 -0.0406
17908TIP3    H175215   4.037   5.302  14.625 -0.4746 -2.8490  0.7226
17908TIP3    H275216   3.985   5.344  14.761  0.5294  0.0655  0.2921
17909TIP3   OH275217   3.055   2.346  15.580 -0.2510  0.1340 -0.0356
17909TIP3    H175218   3.043   2.422  15.636 -0.5755  0.5122 -0.6055
17909TIP3    H275219   2.966   2.318  15.558 -0.1323 -0.2632 -0.0263
17910TIP3   OH275220   4.009   3.819   5.539  0.1645 -0.4702 -0.2487
17910TIP3    H175221   3.970   3.897   5.501  1.0323  0.8140  1.3566
17910TIP3    H275222   4.103   3.840   5.547  0.3579 -1.5281  0.5180
17911TIP3   OH275223   5.537   0.911  16.802 -0.1073  0.3935  0.1911
17911TIP3    H175224   5.488   0.841  16.760 -1.7996  0.3703  2.0362
17911TIP3    H275225   5.621   0.872  16.825 -1.7853 -1.8986  3.2241
17912TIP3   OH275226   3.462   2.442  13.936  0.1288 -0.1820 -0.7511
17912TIP3    H175227   3.509   2.360  13.924  0.7051 -0.0677  0.5548
17912TIP3    H275228   3.375   2.416  13.966 -0.1253 -0.3393 -1.5914
17913TIP3   OH275229   5.260   0.956  16.925  0.0076 -0.2017  0.9994
17913TIP3    H175230   5.209   0.888  16.969  0.5782 -1.2271  0.1135
17913TIP3    H275231   5.300   0.912  16.850 -0.1591  1.2687 -0.0084
17914TIP3   OH275232   4.397   4.301  13.633  0.1740  0.0543 -0.2774
17914TIP3    H175233   4.427   4.263  13.551 -1.9507 -0.8991 -0.6939
17914TIP3    H275234   4.318   4.251  13.654  1.0578 -0.2433  2.7628
17915TIP3   OH275235   0.160   1.294  14.508  0.3711  0.6533  0.1843
17915TIP3    H175236   0.214   1.239  14.451 -1.0853 -1.9178  1.0695
17915TIP3    H275237   0.083   1.239  14.527 -0.2972  2.2894  2.7319
17916TIP3   OH275238   5.107   3.465  14.287 -1.0663 -0.4830 -0.7086
17916TIP3    H175239   5.068   3.395  14.339 -0.5591 -0.2637 -0.0260
17916TIP3    H275240   5.150   3.522  14.350 -0.5775 -0.1193 -1.3508
17917TIP3   OH275241   5.064   1.146  17.097  0.2453 -0.3595 -0.4084
17917TIP3    H175242   4.974   1.122  17.076  0.5421 -0.7766 -1.2345
17917TIP3    H275243   5.110   1.063  17.108  0.8646 -0.1862 -1.4851
17918TIP3   OH275244   3.675   2.740   0.184  0.0936  0.4498  0.2606
17918TIP3    H175245   3.586   2.708   0.198 -0.1140  0.6621 -0.5160
17918TIP3    H275246   3.687   2.807   0.251  0.3807 -0.9250  1.6353
17919TIP3   OH275247   2.571   6.420   1.475 -0.0533  0.1040 -0.6325
17919TIP3    H175248   2.491   6.366   1.477  0.3113 -0.5335 -1.9334
17919TIP3    H275249   2.571   6.459   1.388  0.7615  0.5656 -0.4314
17920TIP3   OH275250   1.157   2.990   1.292  0.7412 -0.3817  0.3224
17920TIP3    H175251   1.132   3.082   1.288  0.9316 -0.2750  1.3410
17920TIP3    H275252   1.176   2.966   1.201  1.5025  0.8173  0.1455
17921TIP3   OH275253   4.485   5.827   3.025  0.3284 -0.5253 -0.0998
17921TIP3    H175254   4.390   5.815   3.020  0.2917  0.1521 -1.6753
17921TIP3    H275255   4.513   5.831   2.934  2.1915 -2.9237  0.2678
17922TIP3   OH275256   2.527   1.147  12.086 -0.0411 -0.7435  0.0633
17922TIP3    H175257   2.456   1.173  12.027  0.8511  0.2458 -0.6261
17922TIP3    H275258   2.486   1.139  12.172 -0.7567  1.1940 -0.0441
17923TIP3   OH275259   4.716   6.669  12.501 -0.2291 -0.5380 -0.2427
17923TIP3    H175260   4.705   6.761  12.525  0.8989 -0.6638  0.8594
17923TIP3    H275261   4.696   6.621  12.581  2.0615 -1.0604  0.1051
17924TIP3   OH275262   5.183   4.291  12.823  0.3416  0.3916  0.2008
17924TIP3    H175263   5.118   4.308  12.754 -0.7444 -0.2071  1.0435
17924TIP3    H275264   5.248   4.235  12.781  0.2742  0.9128 -0.6318
17925TIP3   OH275265   4.889   6.438  13.578  0.4249 -0.0462  0.1871
17925TIP3    H175266   4.831   6.506  13.543  2.0555  1.0236 -0.5366
17925TIP3    H275267   4.943   6.483  13.643 -0.1979 -1.2528  1.5936
17926TIP3   OH275268   2.766   3.655  14.073  0.0694  0.8744 -0.1020
17926TIP3    H175269   2.730   3.743  14.060  1.5410  1.5014 -0.1373
17926TIP3    H275270   2.807   3.658  14.159 -0.6402 -0.0704  0.2840
17927TIP3   OH275271   3.981   0.490  15.329  0.4029 -0.4172  0.0217
17927TIP3    H175272   4.021   0.540  15.400  3.0092 -1.9056 -0.2798
17927TIP3    H275273   4.044   0.495  15.257  0.3710 -3.3604 -0.3150
17928TIP3   OH275274   2.813   0.828  11.586  0.0821  0.4616  0.3891
17928TIP3    H175275   2.794   0.808  11.495  0.4729  1.1727  0.1424
17928TIP3    H275276   2.767   0.760  11.636 -0.5559  0.3702 -0.3069
17929TIP3   OH275277   0.420   4.001   0.905 -0.5461  0.4629  0.0100
17929TIP3    H175278   0.356   3.930   0.898 -0.7967  0.7260 -0.4269
17929TIP3    H275279   0.469   3.996   0.822  0.3758 -0.0947  0.5719
17930TIP3   OH275280   5.079   3.350  15.776 -0.0286  0.5234  0.5915
17930TIP3    H175281   5.065   3.361  15.681  0.6736  1.0011  0.5413
17930TIP3    H275282   5.174   3.346  15.786 -0.0805 -3.4853  0.8436
17931TIP3   OH275283   3.906   2.984   2.977  0.0222 -0.5706 -0.4303
17931TIP3    H175284   3.877   2.977   2.886 -1.3362 -0.6721 -0.0102
17931TIP3    H275285   3.855   2.919   3.024  1.0617 -0.8556  0.3480
17932TIP3   OH275286   1.813   1.264  13.977 -0.5518 -0.7305  0.0235
17932TIP3    H175287   1.805   1.259  13.882 -2.2767  1.0065  0.0129
17932TIP3    H275288   1.812   1.172  14.005  1.6814 -1.3664 -1.6696
17933TIP3   OH275289   6.522   4.058  11.015  0.5084  0.0161  0.0633
17933TIP3    H175290   6.490   3.972  11.040  0.0129 -0.1318 -1.0312
17933TIP3    H275291   6.449   4.097  10.966  1.4684  0.2618 -1.1930
17934TIP3   OH275292   0.757   1.543   0.333  0.3682 -0.0853  0.4852
17934TIP3    H175293   0.803   1.561   0.251  0.3213 -0.7880  0.2999
17934TIP3    H275294   0.790   1.609   0.394  0.0574  0.7348 -0.2246
17935TIP3   OH275295   6.561   4.780   5.073 -0.8057 -0.0996  0.3602
17935TIP3    H175296   6.486   4.751   5.125  0.2089 -0.7988  1.4693
17935TIP3    H275297   6.607   4.700   5.050 -0.8410  0.2652 -1.0262
17936TIP3   OH275298   0.324   4.072  13.071 -0.2623 -0.8709 -0.2578
17936TIP3    H175299   0.396   4.049  13.013 -0.0918 -1.3698  0.1325
17936TIP3    H275300   0.288   4.153  13.036 -0.1458 -1.1513 -1.0350
17937TIP3   OH275301   6.176   5.063   3.166  0.1624  0.3067 -0.4839
17937TIP3    H175302   6.245   5.095   3.224  0.4824  0.1305 -0.7656
17937TIP3    H275303   6.094   5.085   3.211  0.3823  1.2447 -0.5315
17938TIP3   OH275304   3.528   1.994  13.348 -0.0309 -0.2782 -0.8755
17938TIP3    H175305   3.446   1.945  13.354  1.1410 -2.1674  3.4076
17938TIP3    H275306   3.504   2.083  13.372 -0.8321 -0.9703  1.1297
17939TIP3   OH275307   6.642   5.509   3.614  0.1023  0.3170  0.4651
17939TIP3    H175308   6.643   5.581   3.550  0.9822  1.0260  1.2542
17939TIP3    H275309   6.549   5.495   3.633 -0.2538 -0.4417 -1.5301
17940TIP3   OH275310   2.254   1.193   1.836 -0.0864  0.2576 -0.3995
17940TIP3    H175311   2.265   1.108   1.792  0.2523 -0.3798  0.8691
17940TIP3    H275312   2.189   1.176   1.903 -1.8160  1.6289 -1.6546
17941TIP3   OH275313   5.431   3.760  11.820 -0.1957 -0.0158 -0.2873
17941TIP3    H175314   5.357   3.808  11.782  0.0148  0.0861 -0.5620
17941TIP3    H275315   5.485   3.827  11.860  0.6857  0.1069 -1.6387
17942TIP3   OH275316   3.937   5.878  16.928 -0.3157  0.7761 -0.2313
17942TIP3    H175317   4.014   5.888  16.984  0.0744 -1.0959 -0.3542
17942TIP3    H275318   3.948   5.944  16.860  0.2799  1.6838  0.7126
17943TIP3   OH275319   0.895   2.691  11.720 -0.2865 -0.3696 -0.4866
17943TIP3    H175320   0.954   2.616  11.728 -0.0767 -0.2990 -1.2367
17943TIP3    H275321   0.841   2.670  11.644 -2.2152 -1.0782  1.0002
17944TIP3   OH275322   6.743   1.017  14.399  0.3224  0.2105 -0.2439
17944TIP3    H175323   6.656   1.028  14.435  0.6101  0.6571  0.3291
17944TIP3    H275324   6.737   1.051  14.309 -0.5505 -1.4806 -0.8654
17945TIP3   OH275325   3.473   2.595  11.125 -0.2813  0.6486  0.1607
17945TIP3    H175326   3.467   2.515  11.177 -0.7023  0.1253 -0.6685
17945TIP3    H275327   3.417   2.578  11.049  0.3649  1.3664 -0.4896
17946TIP3   OH275328   0.254   6.728  16.870 -0.1251 -1.0946  0.0095
17946TIP3    H175329   0.312   6.707  16.943 -0.9535 -1.0000  0.7094
17946TIP3    H275330   0.303   6.791  16.817  0.5277 -1.2613  0.4133
17947TIP3   OH275331   3.136   2.175  16.613  0.5976  0.0870 -0.1858
17947TIP3    H175332   3.112   2.085  16.633  0.8774 -0.0521 -0.4644
17947TIP3    H275333   3.215   2.168  16.559 -0.6135  0.3902 -2.0971
17948TIP3   OH275334   5.905   1.397  13.508 -0.3152  0.3434  0.1576
17948TIP3    H175335   5.988   1.368  13.545 -1.1744 -1.0487  1.0806
17948TIP3    H275336   5.852   1.422  13.583 -0.8437  0.9348 -0.3993
17949TIP3   OH275337   5.126   2.320  11.868  0.1969  0.2965 -0.4775
17949TIP3    H175338   5.147   2.411  11.847  3.2835 -0.0091  0.7470
17949TIP3    H275339   5.135   2.314  11.963  2.2053 -1.6483 -0.6817
17950TIP3   OH275340   1.728   2.298  14.289  0.5623 -0.6952 -0.4809
17950TIP3    H175341   1.704   2.382  14.250 -0.1982 -0.6532  0.0539
17950TIP3    H275342   1.779   2.321  14.366  0.8341 -0.7385 -0.6481
17951TIP3   OH275343   3.053   2.076   0.882  0.0619  0.4893  0.2079
17951TIP3    H175344   2.973   2.128   0.872 -0.1829  0.2781  1.0010
17951TIP3    H275345   3.023   1.995   0.923  0.3168 -0.5913 -1.5853
17952TIP3   OH275346   1.247   1.829   5.400  0.3074 -0.3669  0.4801
17952TIP3    H175347   1.218   1.756   5.455  1.0667  0.2852  1.7788
17952TIP3    H275348   1.335   1.805   5.372  1.1315  0.6170  2.0602
17953TIP3   OH275349   2.939   5.154   2.710 -0.4648 -0.4100  0.4567
17953TIP3    H175350   2.892   5.210   2.773 -1.0729 -1.3294  0.8377
17953TIP3    H275351   2.907   5.182   2.625  1.0183  1.4632  0.4489
17954TIP3   OH275352   3.262   6.598  14.499 -0.7788  0.3328 -0.0977
17954TIP3    H175353   3.202   6.525  14.481  0.7404 -1.2463  0.8694
17954TIP3    H275354   3.341   6.556  14.533 -0.0925  2.5114  1.1892
17955TIP3   OH275355   3.408   4.811   0.290  0.1735 -0.0533  0.0835
17955TIP3    H175356   3.394   4.875   0.220  1.7736 -0.2154 -0.4441
17955TIP3    H275357   3.401   4.861   0.371 -1.4682  0.1865 -0.1815
17956TIP3   OH275358   1.643   4.173   2.072  0.4880 -0.7273 -0.8679
17956TIP3    H175359   1.655   4.219   1.990 -0.3843  0.7905 -0.1830
17956TIP3    H275360   1.558   4.130   2.063  0.5918 -0.9294 -0.9084
17957TIP3   OH275361   3.667   1.177   4.501  0.2732  0.2757 -0.1454
17957TIP3    H175362   3.752   1.158   4.539  0.8282  1.2963 -0.8287
17957TIP3    H275363   3.677   1.264   4.462 -1.2003  0.5868  0.1149
17958TIP3   OH275364   6.696   2.549  14.781  0.3024  0.4399  0.2761
17958TIP3    H175365   6.725   2.638  14.800  3.2401 -0.5624  0.9220
17958TIP3    H275366   6.721   2.534  14.689 -1.5460  0.7024 -0.3252
17959TIP3   OH275367   4.002   0.160  15.957 -0.0942  0.0988 -0.3333
17959TIP3    H175368   4.085   0.168  16.003 -0.2076  0.6744 -0.2165
17959TIP3    H275369   3.954   0.093  16.006  0.0287  0.2697  0.0270
17960TIP3   OH275370   0.369   3.288  12.488 -0.0264  0.6025  0.1847
17960TIP3    H175371   0.390   3.296  12.394  1.5486  2.5427  0.6398
17960TIP3    H275372   0.352   3.378  12.516 -0.6959  0.0109  1.7232
17961TIP3   OH275373   6.815   0.868   1.215 -0.5941 -0.7037 -0.0340
17961TIP3    H175374   6.734   0.819   1.210 -0.1807 -1.3419 -0.6654
17961TIP3    H275375   6.806   0.937   1.150  0.2990 -2.2234 -1.8600
17962TIP3   OH275376   2.227   2.050  11.928  0.0899  0.5256 -0.0961
17962TIP3    H175377   2.132   2.056  11.936  0.1472  1.4102  0.0238
17962TIP3    H275378   2.242   1.990  11.854 -0.5328 -0.9168  0.9143
17963TIP3   OH275379   6.700   0.165  10.812 -0.1515 -0.0688 -0.2087
17963TIP3    H175380   6.609   0.188  10.831  0.0030  0.2687  0.1405
17963TIP3    H275381   6.719   0.208  10.729 -0.0179  0.6727  0.1969
17964TIP3   OH275382   5.476   5.161  13.947 -0.0325  0.1009  0.3404
17964TIP3    H175383   5.492   5.108  13.869  1.0870  0.1767  0.5105
17964TIP3    H275384   5.400   5.215  13.923 -2.9318 -3.2936  1.0554
17965TIP3   OH275385   1.308   5.776  17.104 -0.3194 -0.2796 -0.1454
17965TIP3    H175386   1.258   5.858  17.105 -1.7061 -1.1047  1.0426
17965TIP3    H275387   1.375   5.790  17.037  0.1972  2.2404  0.7913
17966TIP3   OH275388   5.625   4.193   0.307  0.2619 -0.0278 -0.3375
17966TIP3    H175389   5.615   4.288   0.299  1.3119  0.0496 -0.7654
17966TIP3    H275390   5.714   4.180   0.337 -0.1249 -0.8552  0.5118
17967TIP3   OH275391   4.067   2.334  12.176 -0.7068 -0.1342  0.3272
17967TIP3    H175392   3.980   2.366  12.155 -0.4165  1.5476  1.4452
17967TIP3    H275393   4.125   2.379  12.115 -0.4630  0.1498  0.7589
17968TIP3   OH275394   1.573   4.189  13.877  0.4588  0.5791  0.1554
17968TIP3    H175395   1.632   4.241  13.933 -0.6737  0.7781  1.2058
17968TIP3    H275396   1.628   4.118  13.844  0.7101 -0.9085  3.3649
17969TIP3   OH275397   2.579   4.466   0.997  0.5460  0.4275 -0.0619
17969TIP3    H175398   2.597   4.534   1.063  4.0579  0.2126 -0.5788
17969TIP3    H275399   2.510   4.412   1.036 -0.0550  2.3868  1.8000
17970TIP3   OH275400   3.909   6.459  12.152 -0.4955 -0.4731 -0.0073
17970TIP3    H175401   3.833   6.455  12.210  1.4428 -0.3450  2.7484
17970TIP3    H275402   3.947   6.371  12.157  0.1411 -0.2282 -0.4617
17971TIP3   OH275403   6.700   5.391  14.068  0.0202 -0.1324  0.6061
17971TIP3    H175404   6.628   5.344  14.025 -0.4622 -0.5327  1.8222
17971TIP3    H275405   6.716   5.466  14.011 -1.9552  0.4609  0.7385
17972TIP3   OH275406   3.745   0.210  10.908  0.2042  0.0602  0.0603
17972TIP3    H175407   3.829   0.171  10.885  0.0967 -0.7875  1.0303
17972TIP3    H275408   3.682   0.164  10.853 -0.0262 -1.8134  1.7481
17973TIP3   OH275409   5.854   4.882  11.818  1.0333 -0.0414  0.0227
17973TIP3    H175410   5.764   4.910  11.831  1.0618  0.3155 -0.5370
17973TIP3    H275411   5.891   4.878  11.907  1.1176  2.0059  0.1190
17974TIP3   OH275412   3.140   0.610   1.385 -0.4796 -0.0155  0.0198
17974TIP3    H175413   3.110   0.544   1.324 -1.6625 -0.8019  1.4027
17974TIP3    H275414   3.098   0.588   1.468 -1.5844  2.9129  0.3647
17975TIP3   OH275415   3.825   0.694   2.911 -0.3228 -0.8861  0.1257
17975TIP3    H175416   3.775   0.696   2.992 -1.2500 -1.1616 -0.4136
17975TIP3    H275417   3.794   0.615   2.866 -0.2296 -0.4600 -0.7236
17976TIP3   OH275418   3.591   4.441   4.250  0.0574  0.1401  1.0026
17976TIP3    H175419   3.663   4.463   4.191 -0.8488 -1.6829 -0.9343
17976TIP3    H275420   3.633   4.414   4.331  1.5169 -0.1695  0.1778
17977TIP3   OH275421   3.907   4.547   3.232 -0.6107  0.1819  0.5444
17977TIP3    H175422   3.970   4.603   3.187  1.2275 -1.7870  0.5047
17977TIP3    H275423   3.855   4.607   3.286  0.2904  2.0441 -0.5632
17978TIP3   OH275424   6.647   1.644   2.405 -0.5456  0.4169  0.0901
17978TIP3    H175425   6.662   1.714   2.342 -1.1718  0.8036  0.3616
17978TIP3    H275426   6.584   1.680   2.467  1.7625  0.9131  2.3292
17979TIP3   OH275427   5.427   1.791  16.379 -0.4921 -0.1664 -0.5477
17979TIP3    H175428   5.354   1.739  16.344  0.0498 -1.3809  0.0404
17979TIP3    H275429   5.492   1.725  16.405  0.2407  0.8270  0.1954
17980TIP3   OH275430   4.417   4.865   0.817 -0.1359 -0.2761  0.4378
17980TIP3    H175431   4.469   4.864   0.737  0.5020 -1.5226  0.8299
17980TIP3    H275432   4.327   4.855   0.787 -0.0855  1.0937 -0.2066
17981TIP3   OH275433   3.642   0.936   5.961  0.2661 -0.2528 -0.9075
17981TIP3    H175434   3.715   0.877   5.983  0.2488  0.2190  0.5570
17981TIP3    H275435   3.644   1.002   6.031 -2.6905 -1.2536  0.2587
17982TIP3   OH275436   5.808   0.895   5.052 -0.2648 -0.0121 -0.6435
17982TIP3    H175437   5.889   0.848   5.033  0.5743  1.6809 -1.5586
17982TIP3    H275438   5.791   0.877   5.145  1.9311  0.6478 -0.0452
17983TIP3   OH275439   2.718   1.267  13.179 -0.1491 -0.3384  0.2168
17983TIP3    H175440   2.670   1.306  13.106  1.3778 -0.0800 -0.7086
17983TIP3    H275441   2.808   1.297  13.167  0.0844  0.0445  2.4680
17984TIP3   OH275442   3.417   6.583   2.035  0.2934  0.4393 -0.4470
17984TIP3    H175443   3.359   6.520   1.994 -2.4752  2.0553  0.7153
17984TIP3    H275444   3.457   6.535   2.107 -1.7190 -0.0816  0.3930
17985TIP3   OH275445   4.983   3.789  11.127 -0.0296  0.0437 -0.2704
17985TIP3    H175446   4.903   3.794  11.179 -1.8073 -0.5478 -2.7376
17985TIP3    H275447   5.043   3.735  11.179 -2.2706 -1.8983  0.4604
17986TIP3   OH275448   1.937   0.759  14.518  0.1296 -0.2622  0.1743
17986TIP3    H175449   1.930   0.663  14.519  1.5889 -0.3801  0.8212
17986TIP3    H275450   1.876   0.789  14.585 -1.3079 -0.6338 -0.9079
17987TIP3   OH275451   3.702   0.196   3.829  0.5398  0.5011  0.2340
17987TIP3    H175452   3.688   0.251   3.752  0.9047  1.9370  1.1487
17987TIP3    H275453   3.617   0.195   3.873  0.3115 -0.3785 -0.2086
17988TIP3   OH275454   6.498   4.042  11.754  0.6738  0.1630  0.4245
17988TIP3    H175455   6.473   3.979  11.822 -0.4618 -0.6199 -0.6854
17988TIP3    H275456   6.447   4.121  11.775 -1.5104 -0.8334 -0.7899
17989TIP3   OH275457   5.855   1.453   3.209 -0.5964 -0.0566  0.1946
17989TIP3    H175458   5.893   1.368   3.230 -1.3064 -0.2780  0.6308
17989TIP3    H275459   5.834   1.492   3.294  2.4123  1.8740  0.1957
17990TIP3   OH275460   0.619   6.685   0.221 -0.2167  0.1118  0.0634
17990TIP3    H175461   0.652   6.661   0.308  0.2048 -4.1433 -1.0464
17990TIP3    H275462   0.529   6.654   0.221  0.8242 -3.5932 -1.9895
17991TIP3   OH275463   1.522   0.724   4.602  0.4416  0.2872  0.0847
17991TIP3    H175464   1.428   0.715   4.620  0.5612 -1.1243  0.0912
17991TIP3    H275465   1.536   0.677   4.520  0.8343  2.1464 -0.9631
17992TIP3   OH275466   4.110   3.195  16.317  0.2696  0.5268  0.2778
17992TIP3    H175467   4.048   3.189  16.391  1.1730  0.9078  1.0821
17992TIP3    H275468   4.169   3.121  16.330 -0.8567 -0.7302 -1.3229
17993TIP3   OH275469   6.256   6.453   1.558 -0.6006  0.3841  0.4066
17993TIP3    H175470   6.231   6.400   1.634 -0.2782  0.9060  0.8829
17993TIP3    H275471   6.349   6.469   1.570 -0.5419  0.4438 -0.1185
17994TIP3   OH275472   0.438   2.365   3.151  0.6968  0.3759  0.1421
17994TIP3    H175473   0.448   2.271   3.167  0.1118  0.2428 -0.2528
17994TIP3    H275474   0.385   2.371   3.072  0.4477  1.0407  0.3503
17995TIP3   OH275475   1.355   0.055  12.092  0.0375  0.5825  0.0855
17995TIP3    H175476   1.303  -0.014  12.051  1.2640 -0.1456 -0.2835
17995TIP3    H275477   1.357   0.126  12.028 -0.0400  0.3988 -0.1203
17996TIP3   OH275478   2.393   2.389  10.766  0.4589  0.2633  0.0539
17996TIP3    H175479   2.453   2.349  10.829 -0.2383  1.5426  1.6321
17996TIP3    H275480   2.317   2.331  10.765  0.2367  0.5205  0.8687
17997TIP3   OH275481   3.981   6.108  10.845  0.4668  0.1656  0.3831
17997TIP3    H175482   3.901   6.057  10.832  0.3884  0.4362 -0.1852
17997TIP3    H275483   3.952   6.198  10.859  0.7518  0.8458 -2.7328
17998TIP3   OH275484   3.707   1.481  17.060  0.4976 -0.4782  0.4021
17998TIP3    H175485   3.782   1.430  17.029 -0.1966 -1.3506  0.1416
17998TIP3    H275486   3.706   1.559  17.004  0.6634 -0.9013 -0.1942
17999TIP3   OH275487   4.351   2.857  12.595 -0.2293  0.0727  0.6493
17999TIP3    H175488   4.301   2.922  12.546  0.7001 -1.1445 -2.1499
17999TIP3    H275489   4.368   2.898  12.680 -1.2402  2.6897 -0.3057
18000TIP3   OH275490   1.238   3.014  14.559 -0.2869 -0.3901 -0.0903
18000TIP3    H175491   1.225   2.924  14.531 -1.9282  0.1350 -1.1508
18000TIP3    H275492   1.159   3.060  14.531  0.3658  1.3169  0.7126
18001TIP3   OH275493   0.158   0.961   4.632 -0.6498 -0.1086  0.8084
18001TIP3    H175494   0.100   0.965   4.707  1.2394  0.6285  2.3106
18001TIP3    H275495   0.130   1.035   4.577 -1.4018 -0.0279  1.2850
18002TIP3   OH275496   6.366   1.542   0.638  0.1861  0.4526 -0.0324
18002TIP3    H175497   6.389   1.556   0.546  0.5626  0.0012 -0.0095
18002TIP3    H275498   6.404   1.618   0.683 -0.9747  1.2768 -0.3827
18003TIP3   OH275499   1.832   5.154  12.401 -0.0911 -0.0996  0.1909
18003TIP3    H175500   1.739   5.142  12.386 -0.1051 -0.7704  0.7812
18003TIP3    H275501   1.837   5.229  12.461 -0.2802 -0.4579  0.6535
18004TIP3   OH275502   1.359   3.772   5.079  1.2068 -0.2496  1.4776
18004TIP3    H175503   1.420   3.825   5.027  0.2492  1.7189  2.2495
18004TIP3    H275504   1.409   3.695   5.104  1.9164 -0.9951 -1.7782
18005TIP3   OH275505   1.914   4.147   6.294 -0.7913  0.4931  0.4460
18005TIP3    H175506   1.874   4.234   6.299  0.3223  1.0608 -0.1567
18005TIP3    H275507   1.980   4.147   6.364 -0.7649  0.1470  0.4238
18006TIP3   OH275508   2.029   0.908  16.229  0.3997 -0.1621 -0.7043
18006TIP3    H175509   1.947   0.867  16.201 -0.5096  0.8999  0.2945
18006TIP3    H275510   2.095   0.840  16.216 -0.8225 -1.4730 -0.4047
18007TIP3   OH275511   3.984   1.014   2.501 -0.1096  0.3575  0.2051
18007TIP3    H175512   3.959   0.940   2.445 -1.0034  0.1922  0.7952
18007TIP3    H275513   3.953   0.989   2.589  0.3997  1.0332  0.5864
18008TIP3   OH275514   5.090   4.699   6.486  0.8238 -0.5854  0.3854
18008TIP3    H175515   5.039   4.774   6.456 -0.2292 -1.7284 -0.7968
18008TIP3    H275516   5.171   4.738   6.519  0.6907  1.0188 -0.9970
18009TIP3   OH275517   5.608   5.746  12.570 -0.2360 -0.0977  0.3870
18009TIP3    H175518   5.662   5.822  12.549 -0.8206  0.6040  1.2799
18009TIP3    H275519   5.664   5.690  12.623  0.1009 -0.1203  0.0035
18010TIP3   OH275520   6.000   2.360  12.993 -0.1848  0.1880  0.4437
18010TIP3    H175521   6.057   2.352  12.917  2.4539 -1.0056  2.3862
18010TIP3    H275522   5.981   2.454  13.000  0.2003  0.4095 -1.1778
18011TIP3   OH275523   1.906   5.820   1.638 -0.0010 -0.1515  0.6916
18011TIP3    H175524   1.959   5.765   1.696  0.2984 -1.5048 -0.8274
18011TIP3    H275525   1.867   5.760   1.576 -0.5497  1.2386 -0.3599
18012TIP3   OH275526   1.064   6.221  12.113 -0.1371  0.0674 -0.4551
18012TIP3    H175527   1.003   6.286  12.079 -0.8603 -0.8257 -0.9185
18012TIP3    H275528   1.108   6.265  12.185  0.4775  1.5701 -1.6937
18013TIP3   OH275529   3.421   5.557  12.222 -0.4326 -0.2672  0.0642
18013TIP3    H175530   3.363   5.566  12.146 -0.0378 -1.0500 -0.3371
18013TIP3    H275531   3.481   5.487  12.199 -1.4077 -1.7726  1.7909
18014TIP3   OH275532   2.277   3.479  17.018  0.5546  0.2558  0.4727
18014TIP3    H175533   2.210   3.412  17.031  0.9911 -0.1938  0.4340
18014TIP3    H275534   2.233   3.547  16.968  0.3030 -0.3181 -0.0958
18015TIP3   OH275535   1.641   0.190   4.668 -0.1830  0.7739 -0.1538
18015TIP3    H175536   1.600   0.104   4.664 -1.5817  1.4608 -1.0087
18015TIP3    H275537   1.733   0.173   4.646  0.6418 -1.0999  3.8793
18016TIP3   OH275538   4.812   6.612  13.319 -0.5345  0.3243  0.8565
18016TIP3    H175539   4.838   6.522  13.300 -1.7827  0.5721 -2.6041
18016TIP3    H275540   4.891   6.663  13.306 -0.5666  0.0542 -0.5603
18017TIP3   OH275541   1.116   1.500   4.337  0.2965 -0.0556  1.2548
18017TIP3    H175542   1.149   1.588   4.358  3.1884 -0.9844  1.0629
18017TIP3    H275543   1.112   1.498   4.241  1.5136 -0.4973  1.1931
18018TIP3   OH275544   2.384   2.820   2.530  0.1884  0.0970 -0.3533
18018TIP3    H175545   2.380   2.863   2.615  2.3314 -0.3014 -0.0005
18018TIP3    H275546   2.313   2.860   2.480 -0.3063  1.2561  1.1876
18019TIP3   OH275547   5.739   1.023   4.076 -0.3193  0.1934 -0.1187
18019TIP3    H175548   5.769   0.932   4.067 -3.8148 -1.0953 -0.2750
18019TIP3    H275549   5.695   1.042   3.993 -1.5356  1.2274  0.7197
18020TIP3   OH275550   3.809   2.550   0.048 -0.0153  0.2233  0.1213
18020TIP3    H175551   3.804   2.567  -0.046 -1.2164  0.0516  0.1382
18020TIP3    H275552   3.761   2.623   0.088 -0.1680 -0.1086  0.5501
18021TIP3   OH275553   0.466   5.800   2.741 -0.1096 -0.1804  0.2271
18021TIP3    H175554   0.482   5.725   2.797  0.2672  0.3612  0.8630
18021TIP3    H275555   0.454   5.763   2.654 -0.0817 -0.9814  0.5553
18022TIP3   OH275556   1.807   2.956   4.666 -0.4454  0.2735  0.3704
18022TIP3    H175557   1.770   2.987   4.584  0.9415 -0.1197 -0.4298
18022TIP3    H275558   1.852   2.876   4.643 -0.0381  0.1586  1.5273
18023TIP3   OH275559   1.389   1.338   1.410 -0.2843 -0.7950 -0.1220
18023TIP3    H175560   1.372   1.349   1.503 -0.9859 -1.6893 -0.1229
18023TIP3    H275561   1.484   1.348   1.401  0.3410 -4.0341  1.2574
18024TIP3   OH275562   1.100   1.258   4.718 -0.1879 -0.1886 -0.1120
18024TIP3    H175563   1.130   1.267   4.627 -2.9659  1.1321 -1.0051
18024TIP3    H275564   1.092   1.348   4.749  0.7548 -0.6269  1.5213
18025TIP3   OH275565   2.265   4.908   4.852 -0.1354 -0.2857  0.1477
18025TIP3    H175566   2.248   4.862   4.933 -1.8042 -0.1715 -0.1111
18025TIP3    H275567   2.188   4.891   4.797  0.4831  0.4792 -1.0133
18026TIP3   OH275568   1.712   0.354  15.364  0.2268 -0.5767  0.4688
18026TIP3    H175569   1.733   0.422  15.299  2.3453  1.1493  2.7716
18026TIP3    H275570   1.617   0.344  15.357  0.0509  1.3482 -1.1671
18027TIP3   OH275571   3.661   0.435   3.122  0.2812  0.4211  0.7401
18027TIP3    H175572   3.740   0.479   3.152  0.6390 -0.9454  1.8994
18027TIP3    H275573   3.648   0.468   3.033  3.6201 -1.1118 -0.5111
18028TIP3   OH275574   0.355   4.549  14.377 -0.1669  0.1562 -0.6508
18028TIP3    H175575   0.333   4.589  14.461 -1.6737  3.6869 -2.5119
18028TIP3    H275576   0.340   4.455  14.390 -0.7343  0.6098  2.8541
18029TIP3   OH275577   0.042   4.861   0.574 -0.0633  0.3223  0.0707
18029TIP3    H175578   0.131   4.865   0.611  0.0094  0.2771 -0.0996
18029TIP3    H275579  -0.015   4.883   0.647 -0.0396 -1.5063  0.6904
18030TIP3   OH275580   6.668   4.282  12.502  0.6219  0.5836  0.0920
18030TIP3    H175581   6.586   4.260  12.544  0.8379 -1.1610 -0.3539
18030TIP3    H275582   6.686   4.372  12.531 -0.6791  0.4659  1.3587
18031TIP3   OH275583   5.271   4.175  11.096  0.2138  0.1481  0.3315
18031TIP3    H175584   5.273   4.195  11.003  1.2658 -2.7008 -0.3549
18031TIP3    H275585   5.187   4.130  11.109  1.4304 -2.3698 -0.0175
18032TIP3   OH275586   1.406   6.082   1.475 -0.2994 -0.2214 -0.0089
18032TIP3    H175587   1.469   6.061   1.406  1.8209 -0.0616  1.7651
18032TIP3    H275588   1.365   5.999   1.497 -1.0274 -0.2699 -1.4204
18033TIP3   OH275589   1.184   0.329   3.336  0.3421 -0.1807 -0.1556
18033TIP3    H175590   1.128   0.252   3.342 -0.3505  0.3092 -0.1014
18033TIP3    H275591   1.151   0.376   3.259  0.4364  0.2984  0.0914
18034TIP3   OH275592   0.713   5.902  13.730  0.2501  0.7540  0.5096
18034TIP3    H175593   0.765   5.888  13.808 -0.6350  0.6426  1.0922
18034TIP3    H275594   0.622   5.903  13.761 -0.2883 -1.5706 -0.8011
18035TIP3   OH275595   5.977   3.092   2.451  0.4224  0.2279  0.2281
18035TIP3    H175596   5.932   3.111   2.533  2.0203 -1.9555  1.7301
18035TIP3    H275597   5.921   3.029   2.407  0.4130  0.0495  0.4949
18036TIP3   OH275598   6.493   2.484  14.004 -0.2744 -0.2672  0.0437
18036TIP3    H175599   6.467   2.574  13.983  0.7578  0.0676  0.1457
18036TIP3    H275600   6.558   2.494  14.074  1.3753 -0.9546 -1.3243
18037TIP3   OH275601   4.092   2.257  16.703  0.0869 -0.8777  0.1744
18037TIP3    H175602   4.128   2.254  16.792  2.7088  0.0998 -0.7502
18037TIP3    H275603   4.153   2.312  16.654 -2.7725  0.9504 -1.6232
18038TIP3   OH275604   4.295   6.022  11.775  0.3753 -0.0514  0.1298
18038TIP3    H175605   4.226   6.039  11.840 -0.2636  0.1088 -0.5793
18038TIP3    H275606   4.350   6.100  11.778 -0.7319  0.8055 -0.8464
18039TIP3   OH275607   4.621   6.121  13.080  0.1168 -0.5533  0.0451
18039TIP3    H175608   4.594   6.121  12.988  1.5373 -1.2147 -0.4081
18039TIP3    H275609   4.688   6.052  13.085  2.2343  1.4269  0.8989
18040TIP3   OH275610   4.251   2.953  12.239 -0.2303 -0.6716  0.0409
18040TIP3    H175611   4.258   2.968  12.333 -1.2945  0.8732 -0.0920
18040TIP3    H275612   4.248   2.858  12.230  1.6594 -0.9126  1.4057
18041TIP3   OH275613   5.451   6.466  13.684 -0.2479 -0.8968  0.1424
18041TIP3    H175614   5.453   6.535  13.751 -0.5420 -1.0402  0.2986
18041TIP3    H275615   5.519   6.492  13.622  0.8453 -1.3545  1.0888
18042TIP3   OH275616   0.358   1.261   4.456  0.1521 -0.2042 -0.0633
18042TIP3    H175617   0.422   1.194   4.432 -1.8891 -2.5181  0.5706
18042TIP3    H275618   0.361   1.263   4.551 -2.5933 -2.5143  0.2138
18043TIP3   OH275619   4.064   2.836   4.328  0.0606  0.2546  0.3971
18043TIP3    H175620   4.059   2.780   4.251  0.6398 -0.1198  0.6262
18043TIP3    H275621   4.058   2.925   4.293 -4.6813  0.1567  0.2717
18044TIP3   OH275622   3.186   5.997   5.662  1.1254  0.2726 -0.3235
18044TIP3    H175623   3.278   6.015   5.680  0.6848  1.4952  0.9220
18044TIP3    H275624   3.147   6.083   5.646 -0.0932 -0.0193  0.7705
18045TIP3   OH275625   3.284   3.200   3.925  0.2525  0.5394  0.0313
18045TIP3    H175626   3.207   3.148   3.949  1.3371 -0.8983  0.5937
18045TIP3    H275627   3.275   3.280   3.976 -0.2201 -0.1777  1.1269
18046TIP3   OH275628   6.059   4.160   0.986 -0.0713 -0.6822  0.0565
18046TIP3    H175629   6.140   4.186   0.944 -0.2058  0.3953  0.4475
18046TIP3    H275630   5.989   4.201   0.935 -0.3324 -0.9028  0.2252
18047TIP3   OH275631   0.510   5.579  13.554  0.4565  0.1406 -0.8025
18047TIP3    H175632   0.553   5.656  13.517 -0.2157  1.2084  0.5241
18047TIP3    H275633   0.416   5.599  13.548  0.3073 -0.0031  0.6647
18048TIP3   OH275634   0.938   6.002  12.919  0.3651  0.3147  0.3400
18048TIP3    H175635   0.860   5.965  12.961  1.0089  0.5634  1.8317
18048TIP3    H275636   1.006   5.994  12.985  1.4865  0.5834 -0.7494
18049TIP3   OH275637   6.679   0.305  15.078  0.3909  0.2465  0.1866
18049TIP3    H175638   6.693   0.213  15.101  0.2060  0.3253  0.6348
18049TIP3    H275639   6.636   0.342  15.155 -3.2937 -0.2117 -1.4652
18050TIP3   OH275640   3.435   0.066   4.743 -0.4092 -0.3424  0.4972
18050TIP3    H175641   3.398   0.055   4.831 -1.5643 -0.7533 -0.0217
18050TIP3    H275642   3.359   0.078   4.686  0.3800  1.5254 -0.2438
18051TIP3   OH275643   4.445   1.426   1.869 -0.1807  0.2070  0.0809
18051TIP3    H175644   4.521   1.441   1.813 -1.1909  2.4102 -0.7909
18051TIP3    H275645   4.443   1.501   1.928 -2.4428  0.9551 -0.8503
18052TIP3   OH275646   3.046   2.820  17.028 -0.1699  0.3638  0.0290
18052TIP3    H175647   2.955   2.827  17.058 -0.6541  0.0506 -1.2990
18052TIP3    H275648   3.074   2.733  17.057  0.2225  1.0116  1.7177
18053TIP3   OH275649   3.240   1.350  13.462 -0.1662 -0.8257 -0.4686
18053TIP3    H175650   3.275   1.397  13.386 -0.7207  0.9782  0.3422
18053TIP3    H275651   3.316   1.339  13.520  0.2177 -2.0424 -1.1697
18054TIP3   OH275652   4.611   1.610  16.084  0.2039 -0.5187  0.1624
18054TIP3    H175653   4.526   1.652  16.097 -0.5829 -1.9041 -0.2556
18054TIP3    H275654   4.675   1.676  16.109 -0.8019  2.0157 -3.1938
18055TIP3   OH275655   0.826   5.322   0.323 -0.5744  0.2013  0.6309
18055TIP3    H175656   0.764   5.352   0.257  1.1156  1.0352 -0.6810
18055TIP3    H275657   0.907   5.308   0.274  1.3206  2.6603  2.7447
18056TIP3   OH275658   2.369   1.957   2.869 -0.1866  0.1228 -0.1027
18056TIP3    H175659   2.387   1.874   2.913 -0.4374 -0.4794 -1.1107
18056TIP3    H275660   2.288   1.989   2.909 -0.3714 -0.3810 -0.0741
18057TIP3   OH275661   6.680   3.717   3.638  0.2826 -0.0614 -0.7068
18057TIP3    H175662   6.656   3.634   3.681  0.0233 -0.9125 -2.4027
18057TIP3    H275663   6.621   3.782   3.677  0.9483 -0.5165  1.1459
18058TIP3   OH275664   3.462   6.769  11.892 -0.0506  0.0410 -0.7893
18058TIP3    H175665   3.504   6.762  11.978  0.8020 -0.7183 -1.2573
18058TIP3    H275666   3.404   6.844  11.900  0.3028  0.2110  0.3369
18059TIP3   OH275667   4.239   6.505   5.979 -0.4068 -0.1078  0.0303
18059TIP3    H175668   4.269   6.575   6.037  2.1619 -1.0250 -0.0805
18059TIP3    H275669   4.180   6.548   5.917  2.6752  2.4462 -1.3657
18060TIP3   OH275670   1.005   1.418   3.063 -0.0652  0.2620 -0.2066
18060TIP3    H175671   0.958   1.456   3.137  1.3829  2.7152 -0.4449
18060TIP3    H275672   1.088   1.388   3.100 -0.5772 -1.4331 -0.3174
18061TIP3   OH275673   2.191   6.248  12.219  0.5732  0.1586  0.2295
18061TIP3    H175674   2.260   6.252  12.286  0.2895 -1.2265  0.6277
18061TIP3    H275675   2.109   6.247  12.268  0.3301 -0.0462 -0.1770
18062TIP3   OH275676   0.359   0.329   1.216 -0.0695  0.2821 -0.6570
18062TIP3    H175677   0.391   0.251   1.171 -0.3404  0.2436 -0.7794
18062TIP3    H275678   0.413   0.400   1.181 -1.0550  0.4485 -1.9316
18063TIP3   OH275679   4.726   6.048  17.038 -0.6367  0.0284 -0.0090
18063TIP3    H175680   4.645   6.099  17.047 -0.3629  0.4758 -0.0682
18063TIP3    H275681   4.720   5.982  17.107 -0.7084  0.5281  0.4708
18064TIP3   OH275682   3.018   4.964   4.393  0.0898 -0.8513 -0.5525
18064TIP3    H175683   3.059   5.043   4.427 -0.3798 -1.5570  1.8722
18064TIP3    H275684   3.071   4.893   4.428 -1.0381 -1.6509 -0.4085
18065TIP3   OH275685   4.671   1.587  13.851  0.5903 -0.2943  0.1182
18065TIP3    H175686   4.757   1.626  13.835 -0.0577  0.4993 -1.6292
18065TIP3    H275687   4.644   1.551  13.767 -3.0248  4.0961 -1.0506
18066TIP3   OH275688   2.511   5.125   1.343 -0.0636 -0.4840  0.0309
18066TIP3    H175689   2.589   5.071   1.332  0.6493  0.0066  2.1652
18066TIP3    H275690   2.461   5.081   1.412 -0.4519  0.5316  0.4144
18067TIP3   OH275691   4.155   1.806  17.206  0.5598 -0.1299  0.6015
18067TIP3    H175692   4.060   1.799  17.215  0.4585  0.7655  0.3997
18067TIP3    H275693   4.189   1.719  17.225 -0.4622 -1.0642 -1.5425
18068TIP3   OH275694   5.744   4.719  13.206  0.0004 -0.4386  0.2250
18068TIP3    H175695   5.721   4.628  13.225  1.2859 -0.6833  0.7541
18068TIP3    H275696   5.661   4.762  13.185 -0.9661 -1.1570  2.3061
18069TIP3   OH275697   2.402   5.385   1.043  0.0569  0.0070 -0.7446
18069TIP3    H175698   2.357   5.459   1.002  0.8700  0.1227 -1.4299
18069TIP3    H275699   2.495   5.401   1.028  0.4082  0.0907  1.2098
18070TIP3   OH275700   1.698   5.499   0.547 -0.3987 -0.5150 -0.0754
18070TIP3    H175701   1.774   5.493   0.488  0.3418 -3.6168  0.9899
18070TIP3    H275702   1.733   5.540   0.627 -0.6808  0.9179 -0.6473
18071TIP3   OH275703   3.484   3.112  14.671 -0.2673 -0.3206 -0.0002
18071TIP3    H175704   3.506   3.188  14.727 -0.3491  0.5863 -1.1563
18071TIP3    H275705   3.394   3.127  14.644  0.2583  0.1219 -1.6555
18072TIP3   OH275706   4.406   1.812  15.168  0.0912  0.3802 -0.4892
18072TIP3    H175707   4.319   1.772  15.169  0.4529 -0.5251 -2.0002
18072TIP3    H275708   4.448   1.775  15.091  2.4799 -0.5462  1.1797
18073TIP3   OH275709   2.795   4.078   0.338 -0.4547 -0.2642  0.6906
18073TIP3    H175710   2.703   4.090   0.314  0.0111  0.6189 -0.8252
18073TIP3    H275711   2.835   4.163   0.320  0.6397 -0.6054  1.4540
18074TIP3   OH275712   6.595   5.760  10.556 -0.0790 -0.3069  0.2903
18074TIP3    H175713   6.626   5.731  10.642 -0.4913  0.5946  0.7587
18074TIP3    H275714   6.528   5.825  10.576 -0.3215 -0.2383 -0.7214
18075TIP3   OH275715   3.891   4.330   2.495 -0.0722  0.5624  0.4833
18075TIP3    H175716   3.799   4.312   2.518 -0.5595  2.4449  0.2191
18075TIP3    H275717   3.935   4.338   2.580 -0.3669  0.6112  0.6368
18076TIP3   OH275718   2.230   0.662  13.224  0.3394  0.1571 -0.1723
18076TIP3    H175719   2.269   0.669  13.311  1.1012  0.1466 -0.5041
18076TIP3    H275720   2.137   0.677  13.238  0.3681 -0.4398  0.7245
18077TIP3   OH275721   3.689   0.462  13.798 -0.6324 -0.9038  0.1155
18077TIP3    H175722   3.772   0.418  13.779 -0.1781  0.2094 -0.5647
18077TIP3    H275723   3.714   0.552  13.820 -1.5680 -0.8652  1.0837
18078TIP3   OH275724   1.490   3.393   0.524 -0.3155  0.1446 -0.8306
18078TIP3    H175725   1.515   3.301   0.516 -0.5605  0.1187 -1.3477
18078TIP3    H275726   1.398   3.391   0.552 -1.1960  0.1848 -3.4624
18079TIP3   OH275727   6.129   1.924   5.177  0.4182  0.1967 -0.4150
18079TIP3    H175728   6.127   1.864   5.252 -0.6073 -0.4744 -0.9692
18079TIP3    H275729   6.159   1.871   5.104 -0.2037  0.4340 -0.8461
18080TIP3   OH275730   2.876   4.400  16.465 -0.2009 -0.3477 -0.1363
18080TIP3    H175731   2.819   4.460  16.513  0.8807 -0.9465  1.9917
18080TIP3    H275732   2.908   4.451  16.391 -0.5114  1.2161  0.7714
18081TIP3   OH275733   2.433   3.886  14.850 -0.2914 -0.0250  0.3509
18081TIP3    H175734   2.338   3.900  14.844  0.1417  2.6435 -2.5438
18081TIP3    H275735   2.442   3.819  14.918 -4.1864 -0.0304  1.1338
18082TIP3   OH275736   4.168   0.519   1.649  0.1728  0.6564 -0.1345
18082TIP3    H175737   4.115   0.595   1.625  0.4144  0.8687  0.0004
18082TIP3    H275738   4.182   0.528   1.743 -1.4320 -0.5841  0.2806
18083TIP3   OH275739   6.363   3.961   4.997 -0.5015  0.4011  0.0365
18083TIP3    H175740   6.371   3.958   4.902  0.6759 -1.8856  0.1289
18083TIP3    H275741   6.291   3.901   5.017 -0.1978  0.2184  0.6173
18084TIP3   OH275742   4.911   2.094  16.588  0.5631 -0.0243  0.2200
18084TIP3    H175743   4.911   2.184  16.557  2.2837 -0.2753 -0.6085
18084TIP3    H275744   4.967   2.047  16.526 -1.9617 -2.1415 -0.6297
18085TIP3   OH275745   2.864   4.799   1.871 -0.4027 -0.2799  0.0882
18085TIP3    H175746   2.938   4.757   1.916 -0.2803 -0.5058 -0.3159
18085TIP3    H275747   2.834   4.733   1.809 -0.2633  0.1952 -0.4967
18086TIP3   OH275748   6.131   2.288  15.087 -0.0561 -0.0927 -0.4654
18086TIP3    H175749   6.054   2.235  15.110  0.3596 -0.1499  0.8380
18086TIP3    H275750   6.134   2.356  15.153  1.4575 -0.5456 -0.0355
18087TIP3   OH275751   5.562   5.354   3.070 -0.2750  0.0723 -0.3822
18087TIP3    H175752   5.522   5.416   3.010 -0.0178 -0.4825 -1.1382
18087TIP3    H275753   5.558   5.270   3.025 -0.8368 -0.5211  0.7195
18088TIP3   OH275754   3.259   2.788   0.924 -0.2743 -0.2044  0.3183
18088TIP3    H175755   3.332   2.823   0.975 -1.7859  1.0684  1.6972
18088TIP3    H275756   3.292   2.705   0.890  2.2538  0.8862 -0.1738
18089TIP3   OH275757   2.696   0.914  17.280  0.4858  0.3718  0.3820
18089TIP3    H175758   2.764   0.879  17.338 -0.1048  1.4810  1.8193
18089TIP3    H275759   2.722   1.005  17.266  0.2952  0.2762 -0.6334
18090TIP3   OH275760   1.711   4.308   4.705  0.1493 -0.3073  0.2894
18090TIP3    H175761   1.780   4.319   4.640  0.4803 -2.6584  0.1594
18090TIP3    H275762   1.663   4.230   4.677 -1.0963 -0.0942  1.6694
18091TIP3   OH275763   2.302   3.611  11.016 -0.1662 -0.0991 -0.9640
18091TIP3    H175764   2.232   3.612  10.951  0.9308  1.8124 -2.2090
18091TIP3    H275765   2.342   3.698  11.010  0.6114 -0.1935  1.6008
18092TIP3   OH275766   4.225   4.120   2.711  0.6621  0.2302 -0.3122
18092TIP3    H175767   4.312   4.154   2.733 -0.3533  1.7107  1.7864
18092TIP3    H275768   4.169   4.198   2.705 -0.5329 -0.6795 -1.6802
18093TIP3   OH275769   6.553   1.840   5.597  0.0299 -0.1672  0.0144
18093TIP3    H175770   6.608   1.764   5.582 -0.1681 -0.1085 -1.0866
18093TIP3    H275771   6.522   1.865   5.510 -0.6943  0.5790  0.4709
18094TIP3   OH275772   1.775   2.747   0.442  0.1396  0.2221 -0.4963
18094TIP3    H175773   1.720   2.821   0.417 -0.1567  0.0118 -0.4737
18094TIP3    H275774   1.714   2.682   0.477  0.5859  0.7666  1.4191
18095TIP3   OH275775   1.839   1.180   4.980 -0.5865 -0.1583  0.3516
18095TIP3    H175776   1.751   1.182   5.017 -0.5789  1.9730  0.3924
18095TIP3    H275777   1.884   1.110   5.027 -2.7572 -2.6548 -1.0254
18096TIP3   OH275778   5.589   1.395  13.878  0.3931 -0.4685  0.1216
18096TIP3    H175779   5.581   1.305  13.910  0.3408 -0.2268  0.8079
18096TIP3    H275780   5.504   1.435  13.896 -0.0911 -0.6734 -1.4971
18097TIP3   OH275781   4.171   5.742  11.113  0.3244  0.1529 -0.5937
18097TIP3    H175782   4.265   5.754  11.096  0.1562  1.5591 -0.6455
18097TIP3    H275783   4.128   5.801  11.051 -0.4804  1.8141  1.4241
18098TIP3   OH275784   5.394   2.854   0.837  0.2143 -0.1998 -0.4854
18098TIP3    H175785   5.371   2.798   0.762  0.5032 -3.0637  1.4167
18098TIP3    H275786   5.320   2.846   0.896  0.4587  1.1406  0.0245
18099TIP3   OH275787   0.973   6.443   2.458 -0.0168 -0.0850 -0.0584
18099TIP3    H175788   0.982   6.450   2.553 -1.2013  0.2359  0.0516
18099TIP3    H275789   0.994   6.352   2.438  1.7979  0.2153  0.2942
18100TIP3   OH275790   5.866   0.287  12.331  1.1187  0.7204 -0.7595
18100TIP3    H175791   5.775   0.291  12.303  0.9521  1.1802 -0.1710
18100TIP3    H275792   5.871   0.346  12.407  0.8687 -2.6240  2.1180
18101TIP3   OH275793   0.408   5.305  15.885 -0.2058 -0.2599  0.0914
18101TIP3    H175794   0.491   5.287  15.929  0.0973 -0.6883 -0.6243
18101TIP3    H275795   0.401   5.400  15.885  0.4607 -0.2028 -0.1265
18102TIP3   OH275796   2.591   3.101  10.979 -0.1625  0.0274 -0.1543
18102TIP3    H175797   2.686   3.101  10.973 -0.1156  1.3172  0.2550
18102TIP3    H275798   2.570   3.026  11.035  0.6496  0.0750  0.2228
18103TIP3   OH275799   1.784   2.235   4.563  0.0742 -0.0994  0.2628
18103TIP3    H175800   1.708   2.242   4.622 -0.4526  0.9202 -0.5010
18103TIP3    H275801   1.860   2.242   4.621 -0.4312  0.7410  0.8481
18104TIP3   OH275802   3.677   4.726  17.051 -0.3164 -0.2383  0.3350
18104TIP3    H175803   3.626   4.647  17.036  1.6186 -1.5415  0.2088
18104TIP3    H275804   3.718   4.714  17.136  1.5506 -0.3478 -0.5064
18105TIP3   OH275805   5.017   3.323   5.784  0.3529 -0.1336  0.5856
18105TIP3    H175806   4.944   3.380   5.759 -0.8272 -1.6757  0.3921
18105TIP3    H275807   5.056   3.366   5.860 -0.5130  0.9079  0.4674
18106TIP3   OH275808   6.713   4.830   4.782  0.4740  0.0380 -0.0582
18106TIP3    H175809   6.667   4.748   4.763 -0.2491  0.6289 -0.9330
18106TIP3    H275810   6.804   4.813   4.760  1.0693 -1.6273  3.0657
18107TIP3   OH275811   3.735   1.102   1.285 -0.0959 -0.0341 -0.4251
18107TIP3    H175812   3.771   1.079   1.199 -0.0344  1.6735 -0.9035
18107TIP3    H275813   3.783   1.047   1.347 -1.0214 -2.2057 -1.5686
18108TIP3   OH275814   2.273   1.902   1.992 -0.2969  1.1053 -0.3232
18108TIP3    H175815   2.237   1.844   1.925  0.9243 -0.6473  0.4437
18108TIP3    H275816   2.223   1.881   2.071 -0.3369  1.6484 -0.2002
18109TIP3   OH275817   5.603   3.448   1.268  0.4566 -0.0493  0.0097
18109TIP3    H175818   5.541   3.503   1.220  0.7863 -0.1720 -0.5754
18109TIP3    H275819   5.549   3.384   1.315 -0.0241  1.5917  1.8061
18110TIP3   OH275820   3.346   6.435   1.212  0.9746  0.1791  0.1040
18110TIP3    H175821   3.358   6.343   1.188  1.7420  0.0090  1.0531
18110TIP3    H275822   3.379   6.441   1.301 -0.2696  1.1214  0.5325
18111TIP3   OH275823   6.009   4.081   3.776 -0.2001 -0.5521 -0.4576
18111TIP3    H175824   6.080   4.145   3.781 -0.5160 -0.3098  2.5902
18111TIP3    H275825   5.934   4.133   3.746 -0.1493  0.2496  0.7497
18112TIP3   OH275826   4.522   5.012   5.436  0.2412 -0.3000 -0.4429
18112TIP3    H175827   4.550   4.955   5.364  0.9140  0.3409 -0.7021
18112TIP3    H275828   4.543   5.100   5.406 -0.7661  0.0934 -0.0342
18113TIP3   OH275829   1.348   6.756  14.749 -0.6340 -0.0174 -0.4594
18113TIP3    H175830   1.353   6.767  14.844 -1.2941  2.8260 -0.6609
18113TIP3    H275831   1.439   6.746  14.721 -0.3302  0.3029  0.3711
18114TIP3   OH275832   4.862   4.214   3.646  0.0918 -0.1951  0.3261
18114TIP3    H175833   4.849   4.245   3.735 -0.1643  1.6986 -0.3167
18114TIP3    H275834   4.827   4.284   3.591  2.2081 -0.2798 -1.2847
18115TIP3   OH275835   0.151   1.969   2.268 -0.1893  0.6991 -0.6697
18115TIP3    H175836   0.226   2.027   2.258  0.7553 -0.2546  0.6044
18115TIP3    H275837   0.184   1.882   2.248 -0.5246  0.0476  1.3194
18116TIP3   OH275838   4.680   6.779   0.271  0.1149  0.4569  0.1172
18116TIP3    H175839   4.757   6.729   0.298 -1.2381 -1.2330  1.1079
18116TIP3    H275840   4.643   6.811   0.353 -0.2084  1.3037 -0.3539
18117TIP3   OH275841   1.348   5.916  12.808 -0.1996 -0.6778  0.0926
18117TIP3    H175842   1.278   5.863  12.843 -0.2337 -0.6668  0.0420
18117TIP3    H275843   1.312   6.005  12.805 -0.5287 -0.8262 -0.8453
18118TIP3   OH275844   0.147   5.617   2.201  0.3159 -0.4949  0.3601
18118TIP3    H175845   0.085   5.546   2.216 -0.5788  0.9909  5.5205
18118TIP3    H275846   0.229   5.586   2.239  0.9424 -0.0190 -0.5502
18119TIP3   OH275847   1.210   4.124   0.790  0.6944 -0.0367 -0.4222
18119TIP3    H175848   1.243   4.157   0.874 -0.2782  0.4589 -0.2232
18119TIP3    H275849   1.216   4.029   0.798 -0.0806 -0.0231  0.5054
18120TIP3   OH275850   1.103   3.200  12.469  0.4962 -0.1748  0.3757
18120TIP3    H175851   1.039   3.247  12.523  0.0075 -0.0330 -0.3089
18120TIP3    H275852   1.050   3.146  12.411  1.0505 -1.6048  1.1550
18121TIP3   OH275853   0.724   2.844  13.721 -0.0620  0.4000  0.3130
18121TIP3    H175854   0.716   2.893  13.803 -1.1296  0.3655  0.2414
18121TIP3    H275855   0.740   2.754  13.749 -1.4604  0.1939  0.5301
18122TIP3   OH275856   1.785   1.877  14.219 -0.4236 -0.3240  0.7025
18122TIP3    H175857   1.715   1.942  14.222  0.0052  0.1307  1.3419
18122TIP3    H275858   1.782   1.835  14.306 -0.7186 -1.1901  0.2866
18123TIP3   OH275859   6.069   1.302   3.982  0.1787 -0.0689 -0.6172
18123TIP3    H175860   6.152   1.332   4.019  0.9850 -0.6175 -1.9079
18123TIP3    H275861   6.049   1.221   4.029 -0.5820  0.9633  0.9375
18124TIP3   OH275862   0.880   5.991  14.230 -0.2851 -0.2661 -0.1656
18124TIP3    H175863   0.869   6.085  14.244 -1.5774 -0.5737  1.1715
18124TIP3    H275864   0.796   5.961  14.196 -0.3174 -1.1327  0.6297
18125TIP3   OH275865   2.683   4.396   0.754 -0.2698  0.6423 -0.3664
18125TIP3    H175866   2.618   4.459   0.722 -2.4660 -0.5386  1.5135
18125TIP3    H275867   2.658   4.379   0.844  0.5681 -2.5070 -0.6168
18126TIP3   OH275868   1.429   0.282  11.954 -0.7081 -0.6632 -0.2542
18126TIP3    H175869   1.461   0.271  11.864 -0.8592  0.2415 -0.4226
18126TIP3    H275870   1.492   0.342  11.995 -0.1985 -1.6747  0.4898
18127TIP3   OH275871   6.681   0.008  16.088  0.1290  0.5264 -0.2524
18127TIP3    H175872   6.650   0.039  16.003  0.3446 -1.6250 -1.1753
18127TIP3    H275873   6.777   0.007  16.080  0.3756  3.2505  1.1641
18128TIP3   OH275874   2.076   0.701   0.058  0.0030  0.1168  0.0307
18128TIP3    H175875   2.084   0.623   0.112 -1.1023  1.6865  2.6896
18128TIP3    H275876   1.982   0.712   0.045 -0.1044  2.2857  1.9417
18129TIP3   OH275877   4.429   0.475   3.451 -0.1077  0.1261  0.0140
18129TIP3    H175878   4.415   0.528   3.530 -0.0981  0.0420  0.0722
18129TIP3    H275879   4.388   0.525   3.381 -1.0063 -0.2780  0.2403
18130TIP3   OH275880   1.364   1.464  13.001 -0.1862  0.3098  0.4451
18130TIP3    H175881   1.446   1.452  12.953 -1.6632  0.0031 -2.2121
18130TIP3    H275882   1.334   1.551  12.977 -1.7370 -0.4507 -0.5161
18131TIP3   OH275883   5.089   0.849  17.132  0.3612  0.2979  0.9476
18131TIP3    H175884   5.078   0.858  17.227  1.2157  0.8634  1.0010
18131TIP3    H275885   5.150   0.777  17.122  1.8597  1.5231  0.9268
18132TIP3   OH275886   4.728   6.108   1.489  0.0183  0.5945  0.0306
18132TIP3    H175887   4.740   6.173   1.420 -1.4195 -0.4088 -1.2494
18132TIP3    H275888   4.633   6.094   1.492  0.1103  0.1110  1.7700
18133TIP3   OH275889   3.805   1.244  16.774  0.4109  0.6100  0.1518
18133TIP3    H175890   3.757   1.324  16.754  0.9248  0.6946 -0.8110
18133TIP3    H275891   3.896   1.266  16.757  0.4279 -0.5783 -1.5702
18134TIP3   OH275892   4.294   1.615   1.336  0.1560 -0.2663  0.2728
18134TIP3    H175893   4.317   1.557   1.264  0.3313  0.9514 -0.6802
18134TIP3    H275894   4.208   1.584   1.365  0.3056 -1.0814 -0.1217
18135TIP3   OH275895   6.345   1.771   2.147  0.1629 -0.2602  0.2014
18135TIP3    H175896   6.406   1.793   2.218  0.4754  0.3602 -0.2477
18135TIP3    H275897   6.310   1.685   2.171  0.8750 -0.4235  0.6933
18136TIP3   OH275898   2.742   0.460   5.723 -0.0779  0.0964  0.2252
18136TIP3    H175899   2.657   0.505   5.724  0.5764  1.3841 -0.3125
18136TIP3    H275900   2.747   0.418   5.809 -2.2929 -2.0762 -0.5591
18137TIP3   OH275901   2.199   6.471   2.407 -0.2274 -0.6190 -0.0320
18137TIP3    H175902   2.280   6.423   2.422  1.1668  0.9849 -1.9450
18137TIP3    H275903   2.184   6.519   2.489 -0.2416 -2.1876  0.9461
18138TIP3   OH275904   4.928   4.487  16.024  0.5304 -0.2648  0.2177
18138TIP3    H175905   5.020   4.505  16.004  0.5892 -1.5316 -0.8318
18138TIP3    H275906   4.893   4.448  15.944 -0.0098 -2.9093  1.6041
18139TIP3   OH275907   3.761   6.211   4.638  0.4957 -0.1349 -0.0225
18139TIP3    H175908   3.791   6.301   4.643  0.1992 -0.0126 -0.4078
18139TIP3    H275909   3.682   6.208   4.693 -0.9344  0.4504 -1.9398
18140TIP3   OH275910   0.676   5.403  15.581 -0.1465 -0.2653  0.0400
18140TIP3    H175911   0.717   5.331  15.629 -1.4416 -0.9382  0.1948
18140TIP3    H275912   0.737   5.423  15.510  1.0092 -0.3808  0.9799
18141TIP3   OH275913   1.114   6.489  16.683  0.2686  0.2373  0.3302
18141TIP3    H175914   1.195   6.520  16.725 -0.0039 -0.1359  1.1624
18141TIP3    H275915   1.058   6.464  16.757 -0.8918  1.1684 -0.2035
18142TIP3   OH275916   0.518   1.530   1.419  0.3675  0.3804  0.1080
18142TIP3    H175917   0.443   1.530   1.478 -0.5895 -0.4870 -1.0660
18142TIP3    H275918   0.539   1.437   1.407 -0.0874  0.4711 -1.6576
18143TIP3   OH275919   6.317   3.645   1.484  0.0176  0.2811 -0.4280
18143TIP3    H175920   6.251   3.607   1.425 -0.5945 -0.9549  0.9771
18143TIP3    H275921   6.348   3.571   1.536 -1.0754  1.5861  2.3078
18144TIP3   OH275922   4.701   5.774   0.814  0.2815  0.4236 -0.9564
18144TIP3    H175923   4.742   5.690   0.836 -1.6784 -0.8407 -1.7904
18144TIP3    H275924   4.734   5.835   0.879  0.2768 -1.4606  0.9186
18145TIP3   OH275925   2.883   5.151  12.634 -0.0188  0.6151  0.0276
18145TIP3    H175926   2.944   5.096  12.682  0.1353  0.3339 -0.4826
18145TIP3    H275927   2.804   5.098  12.625  0.3524  0.2158 -1.0223
18146TIP3   OH275928   6.362   0.559  12.706  0.3092  0.2476  0.3037
18146TIP3    H175929   6.303   0.507  12.651 -1.1229  0.6389  1.4135
18146TIP3    H275930   6.433   0.498  12.728 -0.8853 -1.0083  0.8519
18147TIP3   OH275931   5.737   0.752   0.095 -0.0226 -0.1309 -0.0652
18147TIP3    H175932   5.658   0.727   0.048 -0.4589 -0.4846  0.8306
18147TIP3    H275933   5.805   0.756   0.028 -0.4700 -1.3399 -0.6205
18148TIP3   OH275934   3.753   6.229  16.830 -0.1722  0.0273 -0.2116
18148TIP3    H175935   3.667   6.228  16.871  0.0239 -1.6214  0.2122
18148TIP3    H275936   3.736   6.208  16.738 -0.4121  1.8326 -0.6158
18149TIP3   OH275937   1.039   4.643   5.772 -0.5272 -0.2661 -0.3931
18149TIP3    H175938   1.101   4.647   5.844 -1.0473 -0.7542  0.0965
18149TIP3    H275939   0.957   4.674   5.809 -0.5353  0.5885 -1.0904
18150TIP3   OH275940   1.554   3.189  11.441 -0.0830 -0.3635  0.5737
18150TIP3    H175941   1.584   3.265  11.392  0.6217 -0.2481  1.1623
18150TIP3    H275942   1.625   3.170  11.502  0.7384 -2.8732 -1.0415
18151TIP3   OH275943   0.839   6.777  15.513  0.1173 -0.4236 -0.1216
18151TIP3    H175944   0.930   6.803  15.498  0.0059 -0.5281 -1.0327
18151TIP3    H275945   0.824   6.704  15.453 -1.2609  1.1336 -1.7976
18152TIP3   OH275946   3.569   4.486   0.026 -0.2915 -0.6970 -0.2164
18152TIP3    H175947   3.640   4.443  -0.022  0.9602  0.4354  0.5386
18152TIP3    H275948   3.606   4.570   0.052 -1.9733 -0.0190  0.1119
18153TIP3   OH275949   0.186   4.441   0.343  0.8574 -0.0159  0.0565
18153TIP3    H175950   0.201   4.536   0.338 -2.8150  0.7189 -0.2243
18153TIP3    H275951   0.168   4.424   0.435 -0.0882 -0.0776 -0.1257
18154TIP3   OH275952   4.070   5.393  12.423  0.1968 -0.1708 -0.7168
18154TIP3    H175953   4.015   5.442  12.484  1.1581 -1.5683  1.3857
18154TIP3    H275954   4.143   5.451  12.404  0.0658  0.1561 -0.2395
18155TIP3   OH275955   0.161   1.539   3.596 -0.2947  0.1024  0.4306
18155TIP3    H175956   0.109   1.619   3.592 -2.1413 -0.8876  2.6055
18155TIP3    H275957   0.138   1.491   3.516  0.6505  1.5462 -0.7784
18156TIP3   OH275958   3.612   1.696  14.630  0.3974 -0.0655 -0.4591
18156TIP3    H175959   3.628   1.604  14.654 -1.2516 -0.0342  0.9446
18156TIP3    H275960   3.531   1.692  14.578 -0.1837  0.6669  0.3720
18157TIP3   OH275961   2.443   0.289  17.073 -0.0438 -0.3808  0.5656
18157TIP3    H175962   2.425   0.333  16.989 -0.2237 -0.7127  0.4288
18157TIP3    H275963   2.539   0.283  17.077  0.0059  0.3857  0.7763
18158TIP3   OH275964   6.589   6.664  13.016  0.0537 -0.1613 -0.2114
18158TIP3    H175965   6.538   6.609  13.075  0.5015  1.9049  2.2833
18158TIP3    H275966   6.680   6.646  13.038  0.2299  0.5117 -0.3589
18159TIP3   OH275967   4.021   5.512  16.632 -0.0422  0.2051  0.1604
18159TIP3    H175968   3.957   5.582  16.642  0.8996  1.1101  0.1103
18159TIP3    H275969   4.015   5.462  16.713 -0.4104  0.6211  0.3946
18160TIP3   OH275970   2.963   5.446  15.357 -0.1064 -0.0258  0.0011
18160TIP3    H175971   2.978   5.516  15.420  0.0833  0.2882 -0.3833
18160TIP3    H275972   2.888   5.398  15.390 -0.0187  0.1467  0.4532
18161TIP3   OH275973   0.688   1.022  14.351 -0.2619  0.4958 -0.0051
18161TIP3    H175974   0.603   0.978  14.343  0.7177 -1.2875 -1.3663
18161TIP3    H275975   0.681   1.097  14.291 -1.0793  0.7544  0.3950
18162TIP3   OH275976   5.921   1.002  16.357 -0.3580  0.2873  0.7690
18162TIP3    H175977   5.847   1.060  16.339 -1.5484 -1.1105  0.9338
18162TIP3    H275978   5.998   1.055  16.338 -1.4160  1.3348 -0.8685
18163TIP3   OH275979   1.828   1.860  16.449  0.1605 -0.1667  0.2154
18163TIP3    H175980   1.890   1.846  16.377 -1.7215 -1.7825 -1.2274
18163TIP3    H275981   1.822   1.774  16.491 -0.7109  0.0954  0.6372
18164TIP3   OH275982   4.377   4.443   2.949  0.9257 -0.5584 -0.9001
18164TIP3    H175983   4.361   4.441   3.044  0.4197  0.9500 -0.9330
18164TIP3    H275984   4.294   4.471   2.911  0.6709 -2.5518 -1.9521
18165TIP3   OH275985   6.709   5.215   0.246 -0.2908 -0.1268  0.2371
18165TIP3    H175986   6.772   5.271   0.292 -0.3429  1.3688 -1.3958
18165TIP3    H275987   6.698   5.139   0.303  1.3466  0.5806  1.5770
18166TIP3   OH275988   2.514   1.183  11.465  0.1544  0.4605 -0.2109
18166TIP3    H175989   2.573   1.142  11.529 -0.3010  0.0159 -0.0695
18166TIP3    H275990   2.436   1.127  11.466 -0.8927  1.8654  0.6953
18167TIP3   OH275991   2.529   2.402  14.915  0.0445  0.0804  0.2268
18167TIP3    H175992   2.437   2.426  14.903  0.0174  0.3174  0.8765
18167TIP3    H275993   2.539   2.391  15.010  0.2424 -1.7119  0.0283
18168TIP3   OH275994   2.588   5.687  15.053 -0.4390  0.1124  0.3686
18168TIP3    H175995   2.500   5.676  15.018 -0.0152 -2.3575 -0.1820
18168TIP3    H275996   2.629   5.751  14.995 -1.3638  0.0388 -0.3945
18169TIP3   OH275997   0.310   5.915   5.815  1.0345 -0.1985  0.4022
18169TIP3    H175998   0.279   5.851   5.751  2.7094 -0.4051 -0.2503
18169TIP3    H275999   0.264   5.891   5.896 -0.9203 -0.0843 -0.6179
18170TIP3   OH276000   0.818   6.339  14.653 -0.1863  0.2508  0.4435
18170TIP3    H176001   0.801   6.328  14.746  1.3051 -1.5092  0.5870
18170TIP3    H276002   0.847   6.252  14.624  1.6204  1.2869 -1.1321
18171TIP3   OH276003   4.656   6.127   2.098 -0.4777 -0.2238 -0.4895
18171TIP3    H176004   4.714   6.182   2.150 -1.2913  0.5145 -0.3317
18171TIP3    H276005   4.575   6.178   2.090 -1.2497 -1.3816 -0.3765
18172TIP3   OH276006   2.392   3.770  12.443  0.4785 -0.0988 -0.2839
18172TIP3    H176007   2.325   3.837  12.428  1.0624  0.2769 -1.3080
18172TIP3    H276008   2.344   3.688  12.446 -0.1872  0.3032  0.4679
18173TIP3   OH276009   6.667   0.806   5.467  0.2856 -0.3940  0.0750
18173TIP3    H176010   6.608   0.875   5.436  1.5318  0.2082 -1.0111
18173TIP3    H276011   6.685   0.753   5.390  1.2734 -0.4847  0.3575
18174TIP3   OH276012   5.893   5.148  11.064  0.1400 -0.0752 -0.2960
18174TIP3    H176013   5.977   5.113  11.034  0.2138  0.5976 -0.9229
18174TIP3    H276014   5.916   5.229  11.110  0.0336 -1.1379  1.7194
18175TIP3   OH276015   4.107   4.122  14.963  0.3044  0.4166  0.6666
18175TIP3    H176016   4.068   4.180  15.029  0.1777 -1.0891  1.9885
18175TIP3    H276017   4.201   4.135  14.972  0.2379  1.7198 -0.3135
18176TIP3   OH276018   3.405   5.249   3.428 -0.2457 -0.1719  0.2462
18176TIP3    H176019   3.423   5.299   3.507  1.4280 -0.2283 -0.0712
18176TIP3    H276020   3.454   5.168   3.438 -1.6407 -1.0835  0.0294
18177TIP3   OH276021   4.441   2.893   4.207 -0.0062 -0.3869 -0.2619
18177TIP3    H176022   4.411   2.952   4.137  0.3228 -0.9517 -0.8990
18177TIP3    H276023   4.371   2.829   4.216  1.5946 -2.7886 -3.0102
18178TIP3   OH276024   5.389   2.253   4.055  0.5778  0.7976  0.3089
18178TIP3    H176025   5.338   2.222   3.981  1.6916 -1.0319  0.2546
18178TIP3    H276026   5.480   2.243   4.028  1.0296 -0.3865  2.0678
18179TIP3   OH276027   5.340   0.885  15.192 -0.2078 -0.1892  0.1864
18179TIP3    H176028   5.262   0.866  15.140  0.4141 -1.9703 -0.1518
18179TIP3    H276029   5.401   0.924  15.129  0.7118 -2.7565 -0.6443
18180TIP3   OH276030   5.309   2.081  11.847 -0.1496 -0.4276  0.1617
18180TIP3    H176031   5.266   2.036  11.920 -3.0025  1.4477 -0.2056
18180TIP3    H276032   5.261   2.163  11.838  3.1016  1.5459 -0.9051
18181TIP3   OH276033   0.951   2.472   4.978  0.5596  0.6693  0.2757
18181TIP3    H176034   0.994   2.513   5.053  0.4072  1.3739 -0.0137
18181TIP3    H276035   1.004   2.394   4.960  1.6541  1.4452  0.0159
18182TIP3   OH276036   5.666   2.072  13.360  0.7470  0.2672 -0.1344
18182TIP3    H176037   5.602   2.080  13.431  2.0941 -0.7837  1.2332
18182TIP3    H276038   5.613   2.047  13.284 -0.3662 -2.0991  1.2952
18183TIP3   OH276039   0.598   1.270  14.276  0.2041  0.1293  0.1940
18183TIP3    H176040   0.505   1.249  14.273 -0.2548  1.8875  0.7354
18183TIP3    H276041   0.624   1.283  14.185  0.1780 -1.3528 -0.0323
18184TIP3   OH276042   0.277   1.233   3.217 -0.6020  0.6985  0.2997
18184TIP3    H176043   0.370   1.238   3.238 -0.3170 -0.7645 -0.5029
18184TIP3    H276044   0.243   1.166   3.277 -0.3572 -1.4130 -1.7818
18185TIP3   OH276045   5.923   0.305  16.220 -0.3097 -0.0127 -0.4506
18185TIP3    H176046   5.844   0.310  16.167 -0.7152 -0.5695  0.0847
18185TIP3    H276047   5.985   0.362  16.175 -1.2258  0.9815 -0.5214
18186TIP3   OH276048   3.437   0.808  13.367  0.8640  0.6170  0.0105
18186TIP3    H176049   3.496   0.789  13.295 -0.5297 -2.2042 -0.5318
18186TIP3    H276050   3.409   0.723  13.399 -0.2860  1.8017  2.4844
18187TIP3   OH276051   4.800   5.510  11.514 -0.2549  0.3358 -0.0362
18187TIP3    H176052   4.705   5.503  11.504 -0.0662 -1.6385 -0.9155
18187TIP3    H276053   4.813   5.524  11.607 -1.4147  1.5841 -0.0201
18188TIP3   OH276054   1.661   3.659  13.798  0.5155  0.0809  0.0604
18188TIP3    H176055   1.746   3.637  13.760  1.3602  1.3334  1.1185
18188TIP3    H276056   1.675   3.744  13.839 -0.1466 -1.3703  3.6167
18189TIP3   OH276057   5.797   5.525   2.248 -0.2883  0.1244 -0.1176
18189TIP3    H176058   5.813   5.492   2.159  0.9590 -0.3793  0.2785
18189TIP3    H276059   5.704   5.507   2.264 -0.9497  1.5952 -1.8659
18190TIP3   OH276060   3.293   5.806  17.074 -0.1129  0.1097  0.0223
18190TIP3    H176061   3.353   5.862  17.023  2.1547 -1.5043  0.7556
18190TIP3    H276062   3.334   5.720  17.073 -1.0193 -0.4608  2.8684
18191TIP3   OH276063   1.858   3.022  14.900  0.7767  0.0080 -0.1880
18191TIP3    H176064   1.919   2.948  14.906 -0.8264 -1.2802  1.2292
18191TIP3    H276065   1.824   3.017  14.810 -0.5557 -2.0900  0.3607
18192TIP3   OH276066   1.118   4.548  15.617 -0.1281 -0.0960 -0.1442
18192TIP3    H176067   1.128   4.633  15.573 -0.0456 -0.4168 -0.7483
18192TIP3    H276068   1.067   4.568  15.696 -0.1680  0.5036 -0.3173
18193TIP3   OH276069   3.219   4.102  16.142  0.0268  0.2355  0.0582
18193TIP3    H176070   3.305   4.063  16.125 -0.4656 -0.9370  0.1505
18193TIP3    H276071   3.164   4.068  16.071 -0.2723  1.3002 -0.2296
18194TIP3   OH276072   6.360   2.375  14.642  0.7490  0.3774  0.1358
18194TIP3    H176073   6.298   2.435  14.685 -1.2126 -0.0729 -1.8892
18194TIP3    H276074   6.409   2.431  14.582  0.0690  0.2592 -0.5481
18195TIP3   OH276075   0.971   1.572  15.402  0.4908  0.2338  0.3145
18195TIP3    H176076   0.970   1.521  15.321  2.3350  1.2856 -0.4475
18195TIP3    H276077   1.027   1.522  15.462 -0.0840 -0.0704  0.5972
18196TIP3   OH276078   0.023   3.229  15.583  0.4664 -0.2996 -0.4072
18196TIP3    H176079  -0.068   3.206  15.563  0.2080  0.2010  0.1574
18196TIP3    H276080   0.063   3.148  15.614 -0.2273 -0.1771  0.8739
18197TIP3   OH276081   3.016   3.694  11.934  0.1686 -0.5263  0.4301
18197TIP3    H176082   2.970   3.667  12.014  0.5101  0.4912  0.9857
18197TIP3    H276083   3.102   3.652  11.940  0.0914 -0.6781  0.4632
18198TIP3   OH276084   1.263   6.255   4.060  0.5479 -0.2495  0.4587
18198TIP3    H176085   1.295   6.333   4.106  2.0700 -0.3300 -0.4027
18198TIP3    H276086   1.221   6.203   4.128 -0.4790  1.2879  1.0577
18199TIP3   OH276087   2.553   5.635  14.431 -0.1155 -0.6213  0.4625
18199TIP3    H176088   2.569   5.710  14.374 -1.8765  0.7198  1.6451
18199TIP3    H276089   2.640   5.598  14.447  0.6756  0.5098 -0.9956
18200TIP3   OH276090   5.193   5.340   4.155  0.1346  0.0162 -0.3193
18200TIP3    H176091   5.114   5.294   4.128 -0.0625 -0.3349  0.8012
18200TIP3    H276092   5.171   5.379   4.239  1.2835 -0.4373  0.2129
18201TIP3   OH276093   6.642   0.376   4.019  0.2630 -0.4013  0.3514
18201TIP3    H176094   6.630   0.467   4.044  0.9475 -0.6063  1.4980
18201TIP3    H276095   6.736   0.361   4.025  0.3411 -0.8170 -1.2193
18202TIP3   OH276096   3.079   1.746  14.792 -0.2118 -0.4704  0.1317
18202TIP3    H176097   3.004   1.790  14.831  0.7278  0.6477  0.7498
18202TIP3    H276098   3.102   1.800  14.717 -0.9786 -1.6919 -1.0266
18203TIP3   OH276099   5.104   0.553   3.998 -0.0231 -0.0371 -0.1462
18203TIP3    H176100   5.072   0.495   4.067 -0.0749  0.3357  0.1493
18203TIP3    H276101   5.026   0.573   3.946  0.2467 -1.3118 -1.0622
18204TIP3   OH276102   6.501   2.829   1.307  0.4254  0.4408 -0.7311
18204TIP3    H176103   6.470   2.910   1.349  0.4330 -0.0026  0.1561
18204TIP3    H276104   6.423   2.773   1.304  0.6546  0.0969 -0.3845
18205TIP3   OH276105   0.143   2.922   0.788  0.0562 -0.0335 -0.4847
18205TIP3    H176106   0.125   2.969   0.707  1.4644  0.9364 -0.2569
18205TIP3    H276107   0.074   2.856   0.793  0.3076 -0.5446 -2.7944
18206TIP3   OH276108   0.223   6.688   3.614  0.4031  0.1205  0.0002
18206TIP3    H176109   0.189   6.767   3.573  0.4790  0.2886  0.2576
18206TIP3    H276110   0.227   6.709   3.707 -3.3833 -1.4773  0.7130
18207TIP3   OH276111   1.388   3.788   2.966 -0.3166  0.1115  1.0929
18207TIP3    H176112   1.459   3.727   2.942  0.4694  1.1818  0.5902
18207TIP3    H276113   1.408   3.814   3.056 -0.9924 -0.8164  1.5222
18208TIP3   OH276114   1.928   3.737   6.324  0.4293 -0.4537  0.1028
18208TIP3    H176115   1.963   3.696   6.404  1.0775 -0.9199 -0.4050
18208TIP3    H276116   1.906   3.663   6.267  0.2508 -0.1201 -0.2667
18209TIP3   OH276117   4.319   6.664   1.382 -1.1494  0.5750  0.2507
18209TIP3    H176118   4.280   6.635   1.464 -0.0981  0.7348  0.8344
18209TIP3    H276119   4.362   6.587   1.347  0.5206  1.0549  1.1356
18210TIP3   OH276120   0.446   6.712  13.315  0.2922  0.0969  0.2295
18210TIP3    H176121   0.513   6.766  13.273 -0.3987  0.5874 -0.2754
18210TIP3    H276122   0.401   6.772  13.375  0.9499 -0.4783  1.3238
18211TIP3   OH276123   3.148   1.499  13.725 -0.5103 -0.2649 -0.1377
18211TIP3    H176124   3.108   1.420  13.689 -0.0213 -0.9438  0.7605
18211TIP3    H276125   3.139   1.489  13.820  2.0120 -0.5986  0.1204
18212TIP3   OH276126   6.566   2.494  14.471 -0.1410  0.2033 -0.5151
18212TIP3    H176127   6.491   2.548  14.446  0.2555  0.8999 -0.2340
18212TIP3    H276128   6.607   2.469  14.388 -1.1538 -0.8756 -0.7040
18213TIP3   OH276129   6.158   3.588  11.405 -0.1134 -0.3556  0.3295
18213TIP3    H176130   6.106   3.563  11.481  0.5833 -4.2455 -0.2869
18213TIP3    H276131   6.246   3.558  11.425  0.5207  0.3490 -1.2427
18214TIP3   OH276132   3.522   0.904  12.781  0.1927 -0.6049 -0.3335
18214TIP3    H176133   3.612   0.876  12.762  0.5517 -0.1752  0.6997
18214TIP3    H276134   3.481   0.827  12.819 -0.3568 -1.2854 -2.1666
18215TIP3   OH276135   3.957   0.427  16.029  0.3187 -0.2278 -0.1767
18215TIP3    H176136   3.939   0.334  16.014  0.3241 -0.1540 -0.6575
18215TIP3    H276137   3.943   0.439  16.123  2.1808 -1.1256  0.2537
18216TIP3   OH276138   3.909   5.645  15.424 -0.1874 -0.0623  0.0210
18216TIP3    H176139   3.883   5.713  15.486 -1.4003 -1.9086  1.6769
18216TIP3    H276140   3.995   5.673  15.392  1.2013  0.3701  3.6192
18217TIP3   OH276141   3.537   2.310  15.736 -0.4472  0.0016 -0.4094
18217TIP3    H176142   3.616   2.341  15.780 -1.4057  1.4009  0.4115
18217TIP3    H276143   3.522   2.222  15.771  0.7449 -0.2858 -0.6005
18218TIP3   OH276144   4.881   2.963  17.013 -0.5051  0.4220  0.5078
18218TIP3    H176145   4.976   2.969  17.011 -0.4691  0.0098  0.7199
18218TIP3    H276146   4.863   2.869  17.000 -0.9736  0.8057 -2.2530
18219TIP3   OH276147   3.169   5.691   4.398 -0.1137 -0.1878 -0.4267
18219TIP3    H176148   3.264   5.706   4.400 -0.1195 -0.0502 -1.1834
18219TIP3    H276149   3.132   5.775   4.370 -0.4670 -0.2500 -0.1647
18220TIP3   OH276150   1.785   1.782  11.732 -0.3918  0.0926  0.2735
18220TIP3    H176151   1.875   1.790  11.702 -0.7248 -1.4385 -1.2705
18220TIP3    H276152   1.772   1.688  11.746 -2.1193  0.1172 -0.8699
18221TIP3   OH276153   3.348   0.049  17.105  0.2521  0.1233  0.3229
18221TIP3    H176154   3.372   0.018  17.018 -1.1898  0.0861 -0.0909
18221TIP3    H276155   3.255   0.068  17.098  0.4649  1.7438  1.3843
18222TIP3   OH276156   1.938   3.785  12.517 -0.1650 -0.2878 -0.7219
18222TIP3    H176157   1.899   3.866  12.485  1.5949  0.4459 -1.0600
18222TIP3    H276158   1.941   3.727  12.441  0.8111  0.2084 -1.0674
18223TIP3   OH276159   5.014   0.896   0.660  0.5871  0.3282 -0.1540
18223TIP3    H176160   4.974   0.872   0.744  1.6430 -1.8573 -0.1976
18223TIP3    H276161   4.941   0.928   0.607 -0.5659 -0.6744  0.7600
18224TIP3   OH276162   0.162   6.390  16.900  0.0516 -0.3428 -0.2034
18224TIP3    H176163   0.190   6.370  16.989 -1.7817  0.6647  0.6595
18224TIP3    H276164   0.243   6.393  16.850  0.9999 -2.7547  1.0003
18225TIP3   OH276165   0.636   6.665  13.054  0.0064 -0.0063 -0.0985
18225TIP3    H176166   0.669   6.657  12.964 -0.8768  0.9848 -0.5430
18225TIP3    H276167   0.552   6.710  13.044 -1.1557 -1.7555  1.0257
18226TIP3   OH276168   1.170   0.050   0.897 -0.4003 -0.4332  0.0528
18226TIP3    H176169   1.236   0.096   0.845 -1.8522  0.3706 -1.1395
18226TIP3    H276170   1.184   0.082   0.986 -0.0118  0.7304 -0.4030
18227TIP3   OH276171   6.798   1.453  12.224 -0.2262  0.7473 -0.0275
18227TIP3    H176172   6.719   1.403  12.205  0.7477 -0.5586 -0.8807
18227TIP3    H276173   6.848   1.397  12.284  1.7104 -0.2861 -2.3982
18228TIP3   OH276174   3.738   4.562   0.279 -0.1215  0.0604 -0.2359
18228TIP3    H176175   3.773   4.535   0.364 -1.3548 -1.8552 -0.3037
18228TIP3    H276176   3.670   4.499   0.259 -1.2488  1.6570 -1.7439
18229TIP3   OH276177   3.280   5.332  14.832 -0.0937  0.4562  0.2389
18229TIP3    H176178   3.249   5.382  14.757  1.7028 -0.1413 -0.9460
18229TIP3    H276179   3.270   5.241  14.806 -1.0434  0.1972  1.4243
18230TIP3   OH276180   3.488   4.874   1.879 -0.3052  0.0558 -0.4847
18230TIP3    H176181   3.544   4.818   1.933  0.2465  0.3518 -0.7469
18230TIP3    H276182   3.542   4.950   1.859 -0.9692  0.5760 -0.3305
18231TIP3   OH276183   2.861   0.877   4.768  0.3952  0.4600  0.2745
18231TIP3    H176184   2.938   0.893   4.822  0.0000  1.2389  0.6225
18231TIP3    H276185   2.881   0.919   4.684  0.2751  0.8213  0.4266
18232TIP3   OH276186   2.570   4.313  13.354  0.5631  0.0038  0.0697
18232TIP3    H176187   2.570   4.268  13.438 -1.8973 -0.9050 -0.3332
18232TIP3    H276188   2.485   4.357  13.351  0.4803 -0.2064 -2.0484
18233TIP3   OH276189   1.499   5.071  15.422 -0.3078  0.0938 -0.6683
18233TIP3    H176190   1.424   5.131  15.425  0.2303  0.7516 -0.2694
18233TIP3    H276191   1.518   5.061  15.329 -2.4887 -2.1200 -0.9909
18234TIP3   OH276192   6.783   0.361   6.603 -0.3624  0.3241 -0.2206
18234TIP3    H176193   6.734   0.375   6.522 -0.3537  3.5566  0.2216
18234TIP3    H276194   6.862   0.413   6.593 -0.3499  0.8033  1.8424
18235TIP3   OH276195   3.679   0.340  15.888  0.2574  0.4836  0.1965
18235TIP3    H176196   3.658   0.260  15.936 -0.0878  0.9079  0.7555
18235TIP3    H276197   3.611   0.347  15.822  0.1602  0.4401  0.2921
18236TIP3   OH276198   3.434   6.626   2.459  0.0688  0.0117 -0.4075
18236TIP3    H176199   3.504   6.683   2.426  0.1005  0.5002  0.4717
18236TIP3    H276200   3.364   6.635   2.395  0.2436  0.7030 -0.5096
18237TIP3   OH276201   5.291   6.799   0.094 -0.1750 -0.1651 -0.2401
18237TIP3    H176202   5.261   6.890   0.096  0.5851  0.0795  1.0519
18237TIP3    H276203   5.345   6.790   0.173 -0.8092 -1.9444  0.0178
18238TIP3   OH276204   6.377   4.266  13.413 -0.0302 -0.1342  0.2484
18238TIP3    H176205   6.343   4.329  13.349  0.7446  0.9644  0.8981
18238TIP3    H276206   6.459   4.304  13.443  0.3214 -1.3367  0.8606
18239TIP3   OH276207   4.269   0.057  15.132 -0.0909  0.7336  0.3654
18239TIP3    H176208   4.319   0.028  15.055 -0.4590  0.4949  0.2095
18239TIP3    H276209   4.245   0.148  15.112 -0.4457  0.5782  0.0530
18240TIP3   OH276210   1.403   4.147   2.376 -0.0423 -0.0114  0.2396
18240TIP3    H176211   1.498   4.153   2.367 -0.3078  2.0876 -2.6917
18240TIP3    H276212   1.381   4.214   2.439  0.3173  1.1904 -0.8564
18241TIP3   OH276213   5.531   4.404  16.412 -0.4133 -0.0577  0.0659
18241TIP3    H176214   5.578   4.474  16.366  1.0360  0.5263  2.2700
18241TIP3    H276215   5.467   4.449  16.466 -0.9502 -0.6055 -0.1025
18242TIP3   OH276216   3.020   6.225  13.605 -0.3092  0.3751 -0.6551
18242TIP3    H176217   3.015   6.271  13.689  0.0697 -0.3012 -0.2607
18242TIP3    H276218   3.018   6.295  13.540  0.1741  0.9505 -0.0641
18243TIP3   OH276219   0.941   1.050   0.013 -0.8777  0.3888 -0.1276
18243TIP3    H176220   0.860   1.102   0.021 -0.4960  1.2205 -1.3873
18243TIP3    H276221   0.987   1.066   0.096 -1.7585  0.3137  0.3928
18244TIP3   OH276222   3.721   1.172  11.951 -0.3893  0.1987 -0.4275
18244TIP3    H176223   3.626   1.161  11.943 -0.9793  3.8629  0.1110
18244TIP3    H276224   3.733   1.221  12.032  2.0542 -0.4181 -0.3300
18245TIP3   OH276225   6.647   4.175  10.660 -0.3209 -0.3052 -0.0951
18245TIP3    H176226   6.606   4.211  10.739 -0.0372 -1.1103  0.4342
18245TIP3    H276227   6.574   4.156  10.601 -0.6056 -0.4787  0.3087
18246TIP3   OH276228   0.436   5.665   6.164 -0.0703 -0.1474 -0.2121
18246TIP3    H176229   0.414   5.673   6.257  1.7337 -1.3137  0.3595
18246TIP3    H276230   0.364   5.615   6.127 -2.5931  3.1591 -0.2622
18247TIP3   OH276231   5.825   4.337   0.888  0.3650 -0.5486  0.0489
18247TIP3    H176232   5.764   4.263   0.894  0.8371 -1.1949 -2.1184
18247TIP3    H276233   5.793   4.388   0.814  1.0958  0.4588  0.4072
18248TIP3   OH276234   4.055   1.300  11.358  0.4064  0.1944  0.3653
18248TIP3    H176235   4.063   1.311  11.453 -1.1417 -1.2037  0.7083
18248TIP3    H276236   4.096   1.215  11.340 -1.3487 -0.6797  0.1975
18249TIP3   OH276237   3.412   4.944   0.867 -0.3584 -0.0816 -0.4500
18249TIP3    H176238   3.433   4.930   0.960  3.4106 -1.2108 -1.3138
18249TIP3    H276239   3.376   5.032   0.863  0.2456  0.3378  1.9811
18250TIP3   OH276240   5.219   1.387   3.902 -0.8716  0.1828  0.2253
18250TIP3    H176241   5.307   1.377   3.866 -1.0526  1.8436 -0.8451
18250TIP3    H276242   5.177   1.302   3.888 -0.0329 -0.0574 -1.0313
18251TIP3   OH276243   1.697   6.690   2.579  0.1949  0.3230 -0.2375
18251TIP3    H176244   1.772   6.746   2.559 -0.9984  1.4039 -1.9160
18251TIP3    H276245   1.711   6.610   2.528 -0.0396  0.7611 -1.0106
18252TIP3   OH276246   1.228   0.682   4.373 -0.0574 -0.3964  0.2796
18252TIP3    H176247   1.306   0.707   4.323  0.4136 -0.6735  0.8620
18252TIP3    H276248   1.156   0.725   4.327  0.4985  0.3542  0.0695
18253TIP3   OH276249   4.411   3.447  16.652 -0.0558 -0.3574 -0.3586
18253TIP3    H176250   4.398   3.443  16.746  2.3884  1.1694  0.1404
18253TIP3    H276251   4.463   3.369  16.632 -1.7247 -1.4343 -0.7613
18254TIP3   OH276252   4.817   0.932  15.930  0.1992  0.1477 -0.1957
18254TIP3    H176253   4.801   0.890  16.014  0.1606  1.0104  0.2331
18254TIP3    H276254   4.730   0.950  15.894  0.1679 -1.8386 -1.2784
18255TIP3   OH276255   1.028   1.830   2.117 -0.3606  0.3251  0.0099
18255TIP3    H176256   0.942   1.790   2.127 -0.5347  0.2741 -1.4569
18255TIP3    H276257   1.078   1.767   2.065  0.5387  0.4100  0.7387
18256TIP3   OH276258   0.053   2.814   1.482  0.4722 -0.1248 -0.0448
18256TIP3    H176259  -0.022   2.769   1.520  0.7929 -0.3542  0.3255
18256TIP3    H276260   0.024   2.841   1.395 -0.5500  1.1311  0.6650
18257TIP3   OH276261   4.655   3.905   5.803 -0.8107 -0.6524 -0.3919
18257TIP3    H176262   4.644   3.998   5.786  0.0191 -0.3106  0.7725
18257TIP3    H276263   4.626   3.862   5.723 -3.1438  0.4819 -0.2366
18258TIP3   OH276264   2.594   5.798   1.711  0.8182 -0.2177 -0.0789
18258TIP3    H176265   2.630   5.859   1.776 -0.8542  1.9227 -1.0409
18258TIP3    H276266   2.644   5.816   1.631  1.4470 -1.3478  0.0402
18259TIP3   OH276267   2.688   3.284   6.278  0.0860 -0.5624 -0.1548
18259TIP3    H176268   2.645   3.231   6.212  0.7443  0.3590 -1.3692
18259TIP3    H276269   2.642   3.264   6.359 -2.6606  0.4079 -1.3678
18260TIP3   OH276270   3.055   6.797  11.604  0.6929 -0.2588 -0.0046
18260TIP3    H176271   3.049   6.888  11.634  1.0906 -0.1719 -0.1830
18260TIP3    H276272   3.139   6.793  11.558 -0.1330 -0.2546 -1.5568
18261TIP3   OH276273   1.315   2.343   1.861  1.3180 -0.0989  0.2375
18261TIP3    H176274   1.350   2.314   1.777  0.9483 -1.5092  0.5330
18261TIP3    H276275   1.343   2.275   1.923 -1.3324 -0.9907  0.5998
18262TIP3   OH276276   4.534   1.311   2.113  0.3935  0.0948  0.5182
18262TIP3    H176277   4.452   1.339   2.154  0.1013 -0.9287  0.6735
18262TIP3    H276278   4.523   1.332   2.021  0.7520  1.7328  0.8293
18263TIP3   OH276279   0.306   1.701  17.060  0.1318 -0.3053  0.1053
18263TIP3    H176280   0.227   1.727  17.014 -0.8701 -1.8066  0.8817
18263TIP3    H276281   0.314   1.764  17.132 -0.5952 -0.3708  0.2515
18264TIP3   OH276282   2.662   3.944  12.027  0.1544  0.4560 -0.3708
18264TIP3    H176283   2.632   3.918  12.115  0.6401  1.6212  0.1558
18264TIP3    H276284   2.757   3.947  12.034  0.1911  0.6575 -0.9095
18265TIP3   OH276285   3.980   5.000   0.252  0.1882  0.1618  0.9506
18265TIP3    H176286   3.992   5.095   0.247 -0.8065  0.2477 -0.3895
18265TIP3    H276287   3.888   4.989   0.275  0.5268 -0.4956  2.0680
18266TIP3   OH276288   6.154   0.512  16.831 -0.6657 -0.3724  0.1959
18266TIP3    H176289   6.138   0.453  16.906  0.3749 -0.2862  0.4991
18266TIP3    H276290   6.231   0.475  16.788  0.4049  1.1086  0.7575
18267TIP3   OH276291   0.652   0.941  17.053  0.0880  0.4731 -0.2657
18267TIP3    H176292   0.735   0.967  17.014  0.6236 -0.5828  0.1129
18267TIP3    H276293   0.602   1.022  17.062  1.0504  1.1078 -0.5674
18268TIP3   OH276294   4.377   0.547  16.267 -0.5292  0.2388  0.5611
18268TIP3    H176295   4.420   0.497  16.336  1.3223 -1.4565 -1.6542
18268TIP3    H276296   4.440   0.615  16.244 -0.0140 -0.7299 -1.0458
18269TIP3   OH276297   1.628   4.515   1.236  0.4816  0.1598  0.2898
18269TIP3    H176298   1.686   4.583   1.203 -0.9655  1.1971 -0.1897
18269TIP3    H276299   1.683   4.436   1.240  2.3176  1.4279  1.3197
18270TIP3   OH276300   1.484   2.826  12.064 -0.3142  0.3085 -0.1819
18270TIP3    H176301   1.536   2.820  12.144 -0.9004 -0.8769  0.1314
18270TIP3    H276302   1.455   2.736  12.047 -3.5607  1.1103  0.5428
18271TIP3   OH276303   2.434   1.267   3.558  0.5571  0.5681  1.1280
18271TIP3    H176304   2.426   1.359   3.534 -0.8070  0.2417  0.2111
18271TIP3    H276305   2.392   1.261   3.644 -1.7034  0.3925  0.0707
18272TIP3   OH276306   0.823   0.038   3.936  0.4475  0.4812 -0.2601
18272TIP3    H176307   0.768   0.103   3.980 -0.5915  1.2217 -2.4895
18272TIP3    H276308   0.904   0.085   3.916  1.1755 -0.0407  1.3274
18273TIP3   OH276309   6.682   1.817   2.216  0.2545  0.2071 -0.3926
18273TIP3    H176310   6.709   1.888   2.275  0.1435  0.4204 -0.5942
18273TIP3    H276311   6.710   1.847   2.129 -0.1930  0.2040 -0.5384
18274TIP3   OH276312   4.955   4.877  15.285  0.2989 -0.4993 -0.2767
18274TIP3    H176313   4.980   4.934  15.358 -0.5634 -0.1096 -0.2782
18274TIP3    H276314   5.034   4.826  15.267  0.8905  0.2407  0.1442
18275TIP3   OH276315   3.648   3.905  13.670  0.0145 -0.3752  0.2385
18275TIP3    H176316   3.645   3.883  13.763  0.7679  2.1442  0.9337
18275TIP3    H276317   3.564   3.874  13.635  0.4817 -3.0483  1.2968
18276TIP3   OH276318   6.154   0.237  11.973  0.5140  0.3934 -0.4088
18276TIP3    H176319   6.079   0.177  11.976  0.3279  0.5538 -1.4168
18276TIP3    H276320   6.159   0.274  12.061 -0.7355  0.5548 -0.3870
18277TIP3   OH276321   5.730   3.836  16.988 -0.1532  0.6466 -0.0784
18277TIP3    H176322   5.657   3.835  17.050  0.2711 -0.6447  0.4429
18277TIP3    H276323   5.701   3.780  16.916  0.7860 -1.0018  0.7551
18278TIP3   OH276324   5.724   5.568  11.246 -0.1777  0.0681  0.0587
18278TIP3    H176325   5.689   5.649  11.281  2.2137  1.3522 -0.3141
18278TIP3    H276326   5.772   5.528  11.319 -1.6363 -1.2645  0.3505
18279TIP3   OH276327   2.142   2.026   1.199  0.6556  0.0836 -0.1069
18279TIP3    H176328   2.217   2.030   1.259  0.2994  0.3939  0.3202
18279TIP3    H276329   2.078   2.087   1.236  1.7417  3.0229 -2.6420
18280TIP3   OH276330   0.391   2.817   0.088 -0.0958 -0.5183 -0.0195
18280TIP3    H176331   0.463   2.822   0.151 -0.0283 -0.3586 -0.1092
18280TIP3    H276332   0.312   2.815   0.142  0.0178 -1.8503  0.1244
18281TIP3   OH276333   2.596   2.057   2.396 -0.2799  0.3507  0.0054
18281TIP3    H176334   2.620   2.109   2.473  1.6030  1.0474 -0.9974
18281TIP3    H276335   2.584   2.121   2.327 -1.6906 -0.2963 -0.3988
18282TIP3   OH276336   5.810   5.368  16.675  0.3986  0.2360 -0.3358
18282TIP3    H176337   5.866   5.405  16.744  1.6970  0.5390 -1.5216
18282TIP3    H276338   5.817   5.274  16.687  0.8517  0.2794 -0.2307
18283TIP3   OH276339   6.379   4.357  16.440  0.3791  0.8874  0.0630
18283TIP3    H176340   6.367   4.348  16.534  1.4381 -0.3388  0.1016
18283TIP3    H276341   6.422   4.276  16.413 -0.9082  0.7204 -1.6719
18284TIP3   OH276342   0.415   6.749   7.007 -0.0431 -0.0632 -0.8301
18284TIP3    H176343   0.330   6.790   7.021  0.5274  0.8147  0.2429
18284TIP3    H276344   0.395   6.662   6.974 -1.3440  0.2860 -1.0165
18285TIP3   OH276345   2.100   0.154  13.795 -0.5886 -0.4146 -1.0904
18285TIP3    H176346   2.040   0.180  13.865  1.4842  0.9604  0.2573
18285TIP3    H276347   2.087   0.059  13.786 -0.0931 -0.8619  2.0312
18286TIP3   OH276348   0.228   0.155  14.130  0.4579  0.2473  0.7733
18286TIP3    H176349   0.190   0.191  14.210 -1.0895  0.0917  0.1608
18286TIP3    H276350   0.282   0.225  14.095 -1.7727  1.7246  0.0805
18287TIP3   OH276351   4.432   0.460  15.543 -0.2998  0.2260  0.0428
18287TIP3    H176352   4.440   0.500  15.630 -1.0140  0.5878 -0.0514
18287TIP3    H276353   4.474   0.522  15.484  0.9731 -0.4318  0.2286
18288TIP3   OH276354   6.318   3.434  13.435 -0.7276  0.1742 -0.1454
18288TIP3    H176355   6.338   3.346  13.464 -1.6351 -0.6184 -1.7528
18288TIP3    H276356   6.222   3.435  13.427 -0.9720  2.0567  2.0206
18289TIP3   OH276357   2.430   3.717  12.801  0.1236  0.4668  0.8871
18289TIP3    H176358   2.499   3.673  12.849 -0.4680 -0.8299  0.6053
18289TIP3    H276359   2.390   3.777  12.864  1.1071  0.7969  1.2062
18290TIP3   OH276360   2.460   0.459   3.619  0.2810  0.3326 -0.0655
18290TIP3    H176361   2.546   0.426   3.645  0.6378  0.9584 -0.4470
18290TIP3    H276362   2.440   0.413   3.538  0.6524  0.8377 -0.4460
18291TIP3   OH276363   2.115   1.445   3.916 -0.5390 -0.3841 -0.6868
18291TIP3    H176364   2.112   1.491   3.832 -0.7953  0.1640 -0.3811
18291TIP3    H276365   2.128   1.515   3.980 -0.3002 -0.8068 -0.2748
18292TIP3   OH276366   5.211   6.022   0.594  0.5787  0.0342 -0.4787
18292TIP3    H176367   5.272   6.066   0.535  1.5014 -0.1343  0.3367
18292TIP3    H276368   5.144   5.984   0.535  1.3536  0.0532 -1.3943
18293TIP3   OH276369   5.836   3.535   6.719  0.4106  0.6221 -0.1037
18293TIP3    H176370   5.924   3.571   6.709  0.0799  1.5203  0.1269
18293TIP3    H276371   5.778   3.603   6.684 -0.1994  0.1068 -0.1132
18294TIP3   OH276372   2.705   1.960  11.215 -0.0118  0.3586 -0.0841
18294TIP3    H176373   2.633   1.958  11.152  0.2637 -1.0458 -0.3674
18294TIP3    H276374   2.695   1.880  11.266  0.3868  0.9707  0.9880
18295TIP3   OH276375   6.021   0.395  15.824  0.2825  0.2651  0.1189
18295TIP3    H176376   5.952   0.449  15.864 -0.1334  0.9209 -1.4259
18295TIP3    H276377   6.035   0.324  15.887 -0.5072  1.1276  1.3085
18296TIP3   OH276378   5.548   0.861  10.658  0.0750  0.6782  0.4092
18296TIP3    H176379   5.472   0.863  10.600 -0.0874 -0.7026  0.5535
18296TIP3    H276380   5.544   0.776  10.701  0.4921  1.4609  2.0676
18297TIP3   OH276381   3.730   5.237  13.103 -0.1389 -0.0576 -0.1057
18297TIP3    H176382   3.792   5.165  13.100 -0.3103 -0.2118 -0.0139
18297TIP3    H276383   3.675   5.224  13.026  0.7807  0.8486 -0.9327
18298TIP3   OH276384   5.182   2.200  16.939  0.5402  0.1870 -0.1793
18298TIP3    H176385   5.088   2.188  16.925  0.4354  0.0806  0.5652
18298TIP3    H276386   5.223   2.171  16.857 -0.0951  0.6174 -0.6604
18299TIP3   OH276387   6.642   0.372  12.366  0.5350  0.5422  0.3700
18299TIP3    H176388   6.584   0.427  12.313  0.4675 -0.5687 -0.7375
18299TIP3    H276389   6.656   0.294  12.313  2.3594  0.4097  0.9998
18300TIP3   OH276390   5.501   3.311  13.575  0.0143 -0.7195  0.6028
18300TIP3    H176391   5.449   3.391  13.567 -1.1188 -1.4314  0.5754
18300TIP3    H276392   5.592   3.341  13.575 -0.3194  0.4259 -1.2370
18301TIP3   OH276393   4.502   6.538   5.287 -0.1200  0.6965  0.0920
18301TIP3    H176394   4.417   6.494   5.282 -0.3070  1.0454  0.1509
18301TIP3    H276395   4.534   6.518   5.374 -0.8150  1.7712  0.6190
18302TIP3   OH276396   1.291   3.349  14.619 -0.6643 -0.5365 -0.1826
18302TIP3    H176397   1.249   3.411  14.678 -1.2752  0.5075 -1.6657
18302TIP3    H276398   1.382   3.344  14.650 -0.4376  1.5447 -0.3737
18303TIP3   OH276399   4.736   1.148  12.540  0.0412  0.0660 -0.0222
18303TIP3    H176400   4.685   1.104  12.608  0.3584 -2.0684 -1.1089
18303TIP3    H276401   4.826   1.147  12.572 -0.0999  0.9596  0.4424
18304TIP3   OH276402   5.802   2.269   1.796 -0.4328 -0.3786  0.1949
18304TIP3    H176403   5.897   2.270   1.805 -0.4747 -1.3482  0.9531
18304TIP3    H276404   5.775   2.360   1.803  0.3100 -0.2568  1.6801
18305TIP3   OH276405   3.981   0.813   4.393 -0.3719 -0.2358  0.5998
18305TIP3    H176406   4.052   0.776   4.340 -0.9032 -1.0546  0.4264
18305TIP3    H276407   3.935   0.736   4.427 -0.8745  0.2835  1.1111
18306TIP3   OH276408   4.897   0.371  12.008 -0.1517 -0.7090 -0.3285
18306TIP3    H176409   4.860   0.296  11.961 -1.3478 -1.6817  1.9977
18306TIP3    H276410   4.821   0.427  12.026  0.1976 -0.5512  0.7214
18307TIP3   OH276411   1.132   1.349  17.223 -0.0254 -0.0790  0.1821
18307TIP3    H176412   1.113   1.438  17.254  3.4292  0.3228  1.5644
18307TIP3    H276413   1.115   1.293  17.298  1.5032 -0.0370  0.5824
18308TIP3   OH276414   1.564   5.375  14.831  0.0060 -0.3776 -0.8514
18308TIP3    H176415   1.643   5.340  14.790  1.5045  1.4829  0.3586
18308TIP3    H276416   1.570   5.470  14.821 -0.2367  0.0941  2.3691
18309TIP3   OH276417   4.186   1.252   2.096  0.5230 -0.2356 -0.5191
18309TIP3    H176418   4.097   1.281   2.075  0.6838  0.5358 -0.1560
18309TIP3    H276419   4.239   1.331   2.087  1.3307 -0.8735 -1.6054
18310TIP3   OH276420   1.976   0.765  14.124 -0.2339  0.3017  0.2945
18310TIP3    H176421   2.008   0.731  14.207 -1.0766 -0.0880  0.4631
18310TIP3    H276422   2.032   0.722  14.058 -1.1480 -1.2927  0.5126
18311TIP3   OH276423   2.450   0.539  16.353 -0.0106  0.0050 -0.2342
18311TIP3    H176424   2.517   0.605  16.371  0.6513 -0.8487  0.5329
18311TIP3    H276425   2.380   0.558  16.416  0.1521  0.0206 -0.0552
18312TIP3   OH276426   0.852   0.594  13.717 -0.0872 -0.3000  0.9503
18312TIP3    H176427   0.939   0.578  13.754 -0.4271 -0.0895  1.8694
18312TIP3    H276428   0.811   0.655  13.778 -0.1116  1.2953 -0.5832
18313TIP3   OH276429   4.428   0.576   0.069  0.3359 -0.2316 -0.6773
18313TIP3    H176430   4.385   0.537  -0.007  2.4611 -0.2207 -1.9415
18313TIP3    H276431   4.431   0.670   0.049  1.3014 -0.2823 -0.8217
18314TIP3   OH276432   6.488   5.998  15.707  0.5997  0.7222  0.2623
18314TIP3    H176433   6.565   5.995  15.650  0.3732 -0.5103 -0.0081
18314TIP3    H276434   6.515   5.948  15.784 -0.0549 -0.0714 -0.0124
18315TIP3   OH276435   2.354   0.994  10.565  0.2613  0.5047  0.5503
18315TIP3    H176436   2.434   0.959  10.604 -0.1163  0.0780  0.9539
18315TIP3    H276437   2.310   1.039  10.638 -0.7837 -0.8753  0.8188
18316TIP3   OH276438   2.287   1.436  16.452  0.2348 -0.0987 -0.9031
18316TIP3    H176439   2.336   1.360  16.483 -0.7593 -0.4092 -0.0198
18316TIP3    H276440   2.285   1.426  16.356  0.8107 -0.7311 -0.8586
18317TIP3   OH276441   3.710   1.672   2.440  0.0866 -0.1113  0.1063
18317TIP3    H176442   3.674   1.760   2.431  0.0545 -0.0655  0.6504
18317TIP3    H276443   3.797   1.686   2.476 -0.4826 -0.3666  1.6517
18318TIP3   OH276444   0.320   1.196  14.247  0.9508  0.0984  0.0263
18318TIP3    H176445   0.288   1.183  14.158  1.6586  1.4522 -0.4603
18318TIP3    H276446   0.271   1.133  14.300 -0.2129 -0.0296 -1.1522
18319TIP3   OH276447   3.617   2.833   4.947 -0.1514 -0.1265  0.1299
18319TIP3    H176448   3.613   2.739   4.965 -1.9151 -0.5364 -1.9683
18319TIP3    H276449   3.697   2.844   4.895  0.7867 -0.2033  1.5159
18320TIP3   OH276450   4.675   2.826  13.294 -0.2581  0.3254 -0.0731
18320TIP3    H176451   4.592   2.780  13.287 -0.6936  0.7460  1.7262
18320TIP3    H276452   4.740   2.763  13.262 -0.8048 -1.7720  2.5579
18321TIP3   OH276453   2.949   4.719  14.884 -0.2008  0.1339 -0.2387
18321TIP3    H176454   2.905   4.793  14.925  0.2211  0.8768 -1.0731
18321TIP3    H276455   3.026   4.704  14.939 -0.1749  0.4547 -0.1838
18322TIP3   OH276456   5.413   5.840  13.614 -0.6240  0.1294  0.5215
18322TIP3    H176457   5.462   5.825  13.695 -0.3401 -2.5925 -0.0457
18322TIP3    H276458   5.452   5.780  13.551 -1.8570  1.0520 -1.2166
18323TIP3   OH276459   6.357   4.543   0.661 -0.1330 -0.1794 -0.0586
18323TIP3    H176460   6.411   4.465   0.646 -0.1579 -0.3507  0.7362
18323TIP3    H276461   6.368   4.563   0.754 -0.4501  0.5275 -0.1650
18324TIP3   OH276462   4.323   0.972  15.138  0.5110  0.3507  0.0580
18324TIP3    H176463   4.398   1.023  15.107  0.4820  0.6138  0.4094
18324TIP3    H276464   4.247   1.027  15.118  0.5467  0.8486  1.2252
18325TIP3   OH276465   2.482   0.761  11.878  0.0661 -0.0240 -0.1970
18325TIP3    H176466   2.540   0.837  11.873 -0.6198  0.4730 -0.7068
18325TIP3    H276467   2.395   0.798  11.892 -0.2935 -0.7133 -0.5638
18326TIP3   OH276468   6.436   4.663   5.624 -0.3791 -0.0736 -0.5352
18326TIP3    H176469   6.348   4.700   5.623 -0.1590  0.4550 -1.0676
18326TIP3    H276470   6.492   4.734   5.593  0.1665 -0.5708 -0.7094
18327TIP3   OH276471   1.284   1.975   3.868 -0.3788  0.3976 -0.1097
18327TIP3    H176472   1.324   1.939   3.947  3.0952 -1.2156 -2.3857
18327TIP3    H276473   1.304   2.069   3.872 -0.7733  0.4471  1.1567
18328TIP3   OH276474   0.427   6.616   5.059  0.1274 -0.0559  0.3368
18328TIP3    H176475   0.519   6.615   5.033  0.4858  1.0223  1.4568
18328TIP3    H276476   0.380   6.579   4.985  1.4818 -0.7871 -0.1761
18329TIP3   OH276477   4.599   4.852   5.229 -0.0088  0.0082 -0.0295
18329TIP3    H176478   4.674   4.798   5.206  0.5450  0.5844  0.4010
18329TIP3    H276479   4.526   4.813   5.181  0.4676 -0.8450 -0.0773
18330TIP3   OH276480   4.401   2.064   1.194  0.7389  0.2122  0.0574
18330TIP3    H176481   4.429   2.098   1.279  0.3479 -0.3838  0.4332
18330TIP3    H276482   4.326   2.007   1.214 -0.2453  1.1430 -0.8342
18331TIP3   OH276483   1.573   0.588   4.361  0.1776  0.5045  0.3927
18331TIP3    H176484   1.544   0.509   4.315 -0.0722  1.3644 -0.9673
18331TIP3    H276485   1.635   0.556   4.426 -1.2304 -1.0104  1.0678
18332TIP3   OH276486   2.762   5.739  12.686  0.2927  0.2537 -0.1913
18332TIP3    H176487   2.792   5.808  12.626  0.4443  0.0858 -0.3100
18332TIP3    H276488   2.840   5.686  12.701  0.6830  1.2444  1.4722
18333TIP3   OH276489   6.008   1.886   2.601  0.0063 -0.4117 -0.2650
18333TIP3    H176490   6.025   1.810   2.546  1.2368  1.2073 -2.2861
18333TIP3    H276491   6.092   1.906   2.641 -0.6361 -0.9167  1.4135
18334TIP3   OH276492   1.573   6.513   1.895  0.8514  0.0728  0.0815
18334TIP3    H176493   1.600   6.421   1.900  0.9087  0.1404  1.5351
18334TIP3    H276494   1.610   6.553   1.974  0.8818  1.3706 -0.5545
18335TIP3   OH276495   5.481   0.139  14.075 -0.4622 -0.2480 -0.6021
18335TIP3    H176496   5.548   0.206  14.085 -1.7150  1.0092 -0.2784
18335TIP3    H276497   5.503   0.094  13.993  1.4024 -0.6604  0.0819
18336TIP3   OH276498   1.999   0.595   1.180  1.1058 -0.8609  0.0346
18336TIP3    H176499   2.094   0.580   1.188  1.3111 -0.4716 -1.3061
18336TIP3    H276500   1.984   0.596   1.085 -0.3749 -1.6671  0.2484
18337TIP3   OH276501   3.011   1.519  13.975  0.4316  0.0558 -0.1623
18337TIP3    H176502   3.016   1.441  14.032  2.8936  1.4599  1.7682
18337TIP3    H276503   2.942   1.572  14.014 -0.2677 -0.5161 -0.6097
18338TIP3   OH276504   2.394   2.071   4.945 -0.3642  0.1357 -0.2596
18338TIP3    H176505   2.366   1.993   4.897  0.0792  0.2401 -0.6936
18338TIP3    H276506   2.312   2.113   4.973 -0.6892  0.7983 -2.0744
18339TIP3   OH276507   5.352   4.341   0.889 -0.0504 -0.4879  0.2221
18339TIP3    H176508   5.308   4.306   0.967  1.1226 -0.7484  0.7926
18339TIP3    H276509   5.446   4.334   0.909  0.2863 -1.0344 -1.4285
18340TIP3   OH276510   0.119   1.725   5.879  0.0827  0.2517  0.0356
18340TIP3    H176511   0.108   1.653   5.818  2.1561  0.1357 -0.2874
18340TIP3    H276512   0.072   1.698   5.958 -1.3711 -0.2520 -0.9771
18341TIP3   OH276513   0.928   3.757  17.306 -0.2467 -0.1515  0.3851
18341TIP3    H176514   0.915   3.848  17.280  1.7176 -0.4732 -2.0678
18341TIP3    H276515   1.005   3.728  17.257 -0.4563 -2.9925  1.5125
18342TIP3   OH276516   4.304   4.850  10.325  0.6442  0.1913  0.0971
18342TIP3    H176517   4.244   4.835  10.398  0.3844  0.2987 -0.0951
18342TIP3    H276518   4.308   4.766  10.279 -1.6840  0.9245 -1.6427
18343TIP3   OH276519   0.319   6.163  15.210  0.0847 -0.3094  0.0606
18343TIP3    H176520   0.362   6.248  15.203  0.3668 -0.5412 -1.2716
18343TIP3    H276521   0.381   6.101  15.172 -1.1393 -0.7325 -1.3312
18344TIP3   OH276522   1.119   1.660   5.940 -0.4417 -0.1125 -0.3182
18344TIP3    H176523   1.137   1.646   6.033  0.9584  1.4338 -0.3123
18344TIP3    H276524   1.025   1.678   5.937 -0.4202  0.3300  0.8902
18345TIP3   OH276525   5.942   2.865   0.937 -0.8012 -0.5598 -0.4322
18345TIP3    H176526   5.972   2.789   0.887  0.7946 -0.8369  0.8669
18345TIP3    H276527   5.877   2.829   0.997 -0.2521 -0.8641 -0.0099
18346TIP3   OH276528   3.203   0.406  16.898 -0.4409  0.0881 -0.0248
18346TIP3    H176529   3.177   0.454  16.819 -1.6334  0.3238  0.4918
18346TIP3    H276530   3.226   0.319  16.866  2.7012  1.1851 -1.1156
18347TIP3   OH276531   1.947   0.733   4.620  0.2019  0.0356  0.4133
18347TIP3    H176532   2.023   0.698   4.667 -0.7445  0.1527  2.1097
18347TIP3    H276533   1.974   0.820   4.591  1.2683 -0.5690 -0.5174
18348TIP3   OH276534   0.759   3.981  13.668  0.0041 -0.1026 -0.7190
18348TIP3    H176535   0.715   4.060  13.637 -1.7117 -0.5117  0.5299
18348TIP3    H276536   0.849   4.009  13.686 -0.7515  1.7946  0.4217
18349TIP3   OH276537   3.533   0.782  11.513 -0.1266  0.3895  0.3766
18349TIP3    H176538   3.496   0.867  11.489 -0.1271  0.7389  1.5833
18349TIP3    H276539   3.459   0.721  11.506  0.1735  0.1834 -1.8620
18350TIP3   OH276540   4.922   6.071   4.771 -0.3392 -0.1571 -0.6472
18350TIP3    H176541   4.904   6.100   4.860  0.5540 -0.2836 -0.4159
18350TIP3    H276542   5.017   6.061   4.768 -0.1226  1.8223 -2.2145
18351TIP3   OH276543   5.699   2.407  15.485  0.2702 -0.2668  0.4746
18351TIP3    H176544   5.768   2.403  15.418 -0.5752  0.3337 -0.4457
18351TIP3    H276545   5.725   2.340  15.549  2.2901  0.6758  0.7297
18352TIP3   OH276546   2.065   1.168  16.068  0.3253 -0.0337 -0.2748
18352TIP3    H176547   2.053   1.082  16.109  2.7332 -0.4939 -0.4154
18352TIP3    H276548   2.071   1.150  15.975  1.3849  0.2101 -0.2627
18353TIP3   OH276549   2.528   4.380  15.538  0.1925 -0.0832 -0.9381
18353TIP3    H176550   2.545   4.306  15.479 -0.9417 -1.2676  0.1619
18353TIP3    H276551   2.616   4.408  15.565  0.7078  0.0105 -2.5686
18354TIP3   OH276552   2.135   4.876   1.386 -0.0081  0.4302 -0.5844
18354TIP3    H176553   2.226   4.904   1.399  0.8500 -2.8853  1.8883
18354TIP3    H276554   2.094   4.883   1.472 -0.8068 -1.8763 -0.6874
18355TIP3   OH276555   5.607   2.030   6.467 -0.1893 -0.0016  0.3014
18355TIP3    H176556   5.556   2.110   6.451  1.0025  0.6643 -0.3311
18355TIP3    H276557   5.660   2.050   6.544  0.4849  0.0302 -0.1569
18356TIP3   OH276558   3.918   1.197  12.460 -0.3860 -0.0929  0.0313
18356TIP3    H176559   3.934   1.113  12.417 -2.3267 -0.6269  0.2645
18356TIP3    H276560   3.995   1.210  12.515  1.0208 -0.5659 -1.7268
18357TIP3   OH276561   0.240   0.979   2.451  0.1381 -0.0806 -0.0406
18357TIP3    H176562   0.222   0.902   2.397 -0.5200  1.5558 -2.3270
18357TIP3    H276563   0.332   0.998   2.436  0.4457 -0.7030  0.9672
18358TIP3   OH276564   5.487   4.115   0.517 -0.4102  0.5936 -0.4879
18358TIP3    H176565   5.435   4.196   0.508 -1.8709 -0.3348 -0.7936
18358TIP3    H276566   5.527   4.102   0.431 -1.9813 -0.1617 -1.1398
18359TIP3   OH276567   2.713   2.530  17.050  0.1746  0.4241  0.1193
18359TIP3    H176568   2.741   2.620  17.031 -1.1401  1.4857  2.7011
18359TIP3    H276569   2.765   2.505  17.127 -0.6321 -0.4034  0.4084
18360TIP3   OH276570   6.054   5.274   4.936 -0.6134  0.3003 -0.4390
18360TIP3    H176571   6.123   5.273   4.870 -0.2220 -1.0529 -0.0414
18360TIP3    H276572   5.994   5.205   4.910 -1.7105  1.2797 -0.6306
18361TIP3   OH276573   6.212   2.950   5.175 -0.0064 -0.4887  0.2736
18361TIP3    H176574   6.259   2.999   5.107 -0.7912 -0.2336 -0.0999
18361TIP3    H276575   6.192   2.865   5.135  0.2461 -0.6438  0.4746
18362TIP3   OH276576   4.038   3.712  15.164  0.1413  0.1224  0.2615
18362TIP3    H176577   4.094   3.789  15.176  1.8489 -1.1589  0.9349
18362TIP3    H276578   4.078   3.664  15.092 -2.2679  0.9620 -1.7851
18363TIP3   OH276579   1.444   4.695   4.151  0.1488 -0.2441 -0.6366
18363TIP3    H176580   1.350   4.689   4.166  0.5004 -1.7316  1.4818
18363TIP3    H276581   1.483   4.652   4.227  2.5510  0.2470 -1.4969
18364TIP3   OH276582   1.511   6.711  13.205 -0.4842 -0.3416  0.5885
18364TIP3    H176583   1.565   6.780  13.167 -0.7462 -0.5438 -0.1719
18364TIP3    H276584   1.526   6.635  13.148 -0.9322 -0.6331  0.8569
18365TIP3   OH276585   3.941   2.304  11.020  0.0068  0.3536  0.6910
18365TIP3    H176586   4.017   2.246  11.018  0.3504  0.8127 -0.5351
18365TIP3    H276587   3.873   2.256  10.974  0.7646  1.4799 -1.7938
18366TIP3   OH276588   4.787   1.823   4.087 -0.1615 -0.0078 -0.1914
18366TIP3    H176589   4.721   1.791   4.024  0.9026  0.0051 -1.3520
18366TIP3    H276590   4.870   1.794   4.050  0.7467  2.6720 -0.4424
18367TIP3   OH276591   0.002   6.680   1.627 -0.1538  0.3378  0.3662
18367TIP3    H176592  -0.016   6.747   1.693 -0.1104 -1.4121  2.2442
18367TIP3    H276593   0.015   6.600   1.677 -0.9338 -1.2559 -1.8209
18368TIP3   OH276594   2.103   3.612   0.508 -0.0823  0.4059  0.0018
18368TIP3    H176595   2.096   3.517   0.520  1.1283  0.3096  0.0356
18368TIP3    H276596   2.189   3.625   0.469  0.0181  1.5477  0.5727
18369TIP3   OH276597   1.994   2.639   2.503 -0.2211 -0.2095  0.6235
18369TIP3    H176598   2.008   2.564   2.561  0.0281 -1.3296 -0.8307
18369TIP3    H276599   2.006   2.603   2.415 -0.4942  1.4652 -0.1200
18370TIP3   OH276600   3.428   0.375  13.812 -0.5373 -0.0756  0.0298
18370TIP3    H176601   3.443   0.395  13.904 -0.3206 -1.7062  0.3828
18370TIP3    H276602   3.514   0.382  13.771 -0.4672 -0.2704  0.1445
18371TIP3   OH276603   4.749   0.235   4.048 -0.5445  0.0559 -0.3996
18371TIP3    H176604   4.692   0.255   3.973  0.3368  2.0394 -0.5887
18371TIP3    H276605   4.814   0.305   4.049 -0.9080  0.4895  2.6353
18372TIP3   OH276606   0.692   1.006  11.861 -0.1325  0.5714  0.2591
18372TIP3    H176607   0.698   1.033  11.952  1.0725 -2.6993  1.3212
18372TIP3    H276608   0.738   0.922  11.858 -1.3699 -0.1575 -3.0730
18373TIP3   OH276609   4.190   6.209   4.753  0.0251 -0.2987  0.1884
18373TIP3    H176610   4.264   6.150   4.741  0.6240  0.5518 -0.4595
18373TIP3    H276611   4.218   6.269   4.822 -0.1507 -0.1246  0.1103
18374TIP3   OH276612   6.708   4.831   0.799 -0.4389 -0.3071  0.5462
18374TIP3    H176613   6.616   4.813   0.817 -0.6849  1.4578  1.2317
18374TIP3    H276614   6.750   4.834   0.885 -0.0944  0.5514  0.3643
18375TIP3   OH276615   1.958   5.706   6.422 -0.2100 -0.1226  0.4539
18375TIP3    H176616   2.023   5.774   6.438 -0.2674 -0.1692  0.8894
18375TIP3    H276617   1.884   5.729   6.478  0.0398 -0.9190  1.1173
18376TIP3   OH276618   5.665   5.927   0.388 -0.3057  0.3750  0.0250
18376TIP3    H176619   5.609   5.899   0.460  2.0904  1.1480  2.3567
18376TIP3    H276620   5.752   5.896   0.412  1.0740  3.0351 -1.1122
18377TIP3   OH276621   4.759   2.901  11.807 -0.3623 -0.6797  0.2186
18377TIP3    H176622   4.769   2.896  11.712  0.6909 -0.1141  0.2875
18377TIP3    H276623   4.671   2.866  11.824  0.1126 -2.5049 -0.7930
18378TIP3   OH276624   0.936   2.395  14.914  0.3358 -0.2809  0.5539
18378TIP3    H176625   0.983   2.471  14.949 -1.4433  0.7382  0.8643
18378TIP3    H276626   0.888   2.429  14.839 -0.6745 -1.0362  0.8314
18379TIP3   OH276627   1.892   5.120  15.656 -0.0937 -0.3519 -0.0865
18379TIP3    H176628   1.873   5.095  15.566  1.2956 -3.4632  0.3459
18379TIP3    H276629   1.977   5.163  15.651  1.0284 -2.4349 -0.1312
18380TIP3   OH276630   3.867   2.755   2.780 -0.1057 -0.3055 -0.1057
18380TIP3    H176631   3.919   2.678   2.756 -4.4019 -3.2371 -1.2559
18380TIP3    H276632   3.865   2.807   2.700  4.3446  2.3804  1.1752
18381TIP3   OH276633   6.339   5.178   3.353 -0.1731 -0.4165  0.2975
18381TIP3    H176634   6.309   5.255   3.402  1.4403  1.0341 -0.8695
18381TIP3    H276635   6.296   5.104   3.396 -0.5215  0.9721  2.4989
18382TIP3   OH276636   6.264   6.612  14.306  0.6069 -0.3131  0.1110
18382TIP3    H176637   6.314   6.693  14.310 -1.2763  0.8774  1.3678
18382TIP3    H276638   6.253   6.594  14.213  2.4012 -0.0478 -0.1876
18383TIP3   OH276639   2.816   4.979   5.802 -0.7471  0.1292  0.3375
18383TIP3    H176640   2.724   4.999   5.782 -0.8715 -1.3081 -0.6318
18383TIP3    H276641   2.847   4.929   5.726  0.5781 -0.1872  1.0583
18384TIP3   OH276642   5.970   5.184   5.487 -0.7912  0.4019  0.2959
18384TIP3    H176643   5.920   5.171   5.407 -1.2860 -0.8677  0.7909
18384TIP3    H276644   5.926   5.130   5.553  0.9904 -0.4718  0.8518
18385TIP3   OH276645   0.038   6.203  15.960 -0.4931  0.0171 -0.2414
18385TIP3    H176646   0.024   6.252  16.041 -0.4982  0.6427 -0.6122
18385TIP3    H276647   0.132   6.210  15.945 -0.2770 -1.1887  0.3774
18386TIP3   OH276648   3.927   6.458   1.348 -0.3884 -0.1192  0.0551
18386TIP3    H176649   3.848   6.431   1.394  0.7058 -0.3793  1.8679
18386TIP3    H276650   3.990   6.388   1.363  0.2344  0.1070 -1.3082
18387TIP3   OH276651   1.781   0.943  13.368  0.0734 -0.6452 -0.0608
18387TIP3    H176652   1.739   1.021  13.331  0.5035 -0.2850  0.2029
18387TIP3    H276653   1.708   0.887  13.392 -0.3016  0.2454  0.9698
18388TIP3   OH276654   3.647   3.743  15.799  0.2587  0.0016 -0.4166
18388TIP3    H176655   3.702   3.759  15.722  0.2717  1.3107 -0.1541
18388TIP3    H276656   3.569   3.797  15.784  0.9653  1.5519  1.2069
18389TIP3   OH276657   3.344   6.716  16.873  0.0027  0.0292 -0.4017
18389TIP3    H176658   3.412   6.668  16.826  1.3504  0.3657  1.1076
18389TIP3    H276659   3.296   6.648  16.920  0.9508 -0.0262  0.5387
18390TIP3   OH276660   1.409   4.979   2.056 -0.2067  0.1043 -0.0949
18390TIP3    H176661   1.357   5.042   2.105 -1.2061 -0.7883  0.0200
18390TIP3    H276662   1.348   4.910   2.032  0.9710 -1.0943  0.2279
18391TIP3   OH276663   5.246   5.772  15.805 -0.8057  0.6405 -0.2450
18391TIP3    H176664   5.169   5.761  15.748 -1.2046  0.7377  0.2628
18391TIP3    H276665   5.271   5.683  15.829  0.2219  0.5200 -1.6770
18392TIP3   OH276666   5.772   6.187  10.572 -0.4334 -0.1540 -0.5006
18392TIP3    H176667   5.689   6.228  10.595 -1.0079 -1.0743 -0.8670
18392TIP3    H276668   5.788   6.123  10.641 -0.2603 -0.3073 -0.6818
18393TIP3   OH276669   3.791   2.390  15.849 -0.3700 -0.6748  0.3077
18393TIP3    H176670   3.786   2.467  15.905 -0.4943  0.7665 -1.5647
18393TIP3    H276671   3.879   2.391  15.813  0.0939 -2.2384  1.2978
18394TIP3   OH276672   0.526   1.881  13.453  0.0263  0.0634  0.3168
18394TIP3    H176673   0.467   1.849  13.385 -0.0489 -0.5395  0.6587
18394TIP3    H276674   0.478   1.951  13.496  0.6877  1.5662 -1.2803
18395TIP3   OH276675   3.249   2.572  13.204 -0.6507 -0.9339 -0.6672
18395TIP3    H176676   3.325   2.516  13.187 -0.9917 -1.3642 -0.8046
18395TIP3    H276677   3.209   2.585  13.118 -1.0502 -1.1793 -0.5239
18396TIP3   OH276678   3.825   2.891   5.362  0.3924 -0.2782  0.2069
18396TIP3    H176679   3.773   2.813   5.345 -0.5519 -0.2668  2.7179
18396TIP3    H276680   3.821   2.940   5.280  0.8833 -2.7318 -1.3872
18397TIP3   OH276681   1.282   3.085   3.984  0.4370 -0.3045  0.3366
18397TIP3    H176682   1.237   3.001   3.981  0.0631 -0.1184  0.6563
18397TIP3    H276683   1.263   3.119   4.072 -3.0287  2.0757 -1.1425
18398TIP3   OH276684   2.168   2.600   7.041  0.6366  0.3264  0.1430
18398TIP3    H176685   2.263   2.607   7.056  1.0030 -2.0242 -0.6635
18398TIP3    H276686   2.160   2.535   6.972 -1.6239  0.0044  0.6500
18399TIP3   OH276687   3.408   6.261   5.487  0.0885  0.0344  0.4170
18399TIP3    H176688   3.323   6.297   5.511  0.3842 -0.4463  2.3384
18399TIP3    H276689   3.457   6.336   5.454 -1.9410 -0.1375 -3.5962
18400TIP3   OH276690   3.541   1.074   3.041  0.6584 -0.0096 -0.5883
18400TIP3    H176691   3.471   1.016   3.071 -0.0778  1.5200  0.8436
18400TIP3    H276692   3.589   1.023   2.976 -1.0008 -1.5645 -0.6637
18401TIP3   OH276693   4.896   5.382  15.483  0.2482 -0.0689 -0.4427
18401TIP3    H176694   4.984   5.418  15.487  0.4637 -0.7264  1.5078
18401TIP3    H276695   4.900   5.315  15.415  1.3507 -0.3610 -0.0965
18402TIP3   OH276696   6.329   4.740  17.020  0.1849  0.1896 -0.2329
18402TIP3    H176697   6.342   4.657  17.064 -0.7833 -0.3963 -1.0143
18402TIP3    H276698   6.390   4.738  16.946  2.0031  1.2838  1.1383
18403TIP3   OH276699   4.618   4.843  12.728 -0.0643 -0.4508 -0.0281
18403TIP3    H176700   4.642   4.780  12.660 -0.9590  0.8577 -1.6438
18403TIP3    H276701   4.525   4.827  12.744 -0.0516 -0.2066  0.3032
18404TIP3   OH276702   6.261   5.382  16.552 -0.0103  0.3382  0.2335
18404TIP3    H176703   6.282   5.295  16.586  0.3675  0.3545  0.0480
18404TIP3    H276704   6.230   5.431  16.628  0.5667  0.2919  0.5059
18405TIP3   OH276705   1.758   4.079   0.271 -0.1284 -0.0424  0.3085
18405TIP3    H176706   1.705   4.009   0.235 -1.3580  1.4082 -0.8605
18405TIP3    H276707   1.727   4.089   0.361 -1.0655  0.0118 -0.0052
18406TIP3   OH276708   0.330   6.662   1.302 -0.3995 -0.2883  0.3526
18406TIP3    H176709   0.390   6.699   1.238 -0.0473  0.9843  1.3827
18406TIP3    H276710   0.256   6.631   1.250  0.1112  0.2288 -0.7176
18407TIP3   OH276711   6.140   0.502  16.448  0.7162  0.6663  0.5125
18407TIP3    H176712   6.137   0.414  16.411  0.1706  1.0097 -0.2863
18407TIP3    H276713   6.048   0.527  16.458  0.8029  2.1941 -1.8767
18408TIP3   OH276714   0.941   6.695  15.774  0.0434  0.0816 -0.3474
18408TIP3    H176715   0.981   6.773  15.812  1.6388 -1.3455  1.0383
18408TIP3    H276716   0.904   6.726  15.691 -1.9052  2.8946  1.3846
18409TIP3   OH276717   1.366   3.653   2.355 -0.4201  0.0112 -0.1760
18409TIP3    H176718   1.358   3.595   2.280 -1.6936 -0.5605  0.3722
18409TIP3    H276719   1.393   3.737   2.317  1.6228 -0.9305 -0.9541
18410TIP3   OH276720   4.033   5.115  10.803 -0.0773  0.0504 -0.7752
18410TIP3    H176721   4.092   5.190  10.792 -1.1838  1.2143  0.6500
18410TIP3    H276722   3.956   5.153  10.846 -0.5689 -1.9586  0.2201
18411TIP3   OH276723   1.388   4.313   2.008  0.2887  0.1125  0.2187
18411TIP3    H176724   1.344   4.394   1.983  1.1870  1.0120  1.4182
18411TIP3    H276725   1.378   4.308   2.103 -3.3393 -3.3922 -0.0949
18412TIP3   OH276726   0.445   2.064   2.671 -0.3841 -0.4051 -0.1937
18412TIP3    H176727   0.389   2.078   2.595 -0.8732  0.9458  0.3941
18412TIP3    H276728   0.526   2.110   2.650 -0.9169  0.9164  0.5219
18413TIP3   OH276729   4.817   5.784   2.762  0.0566 -0.2995 -0.7688
18413TIP3    H176730   4.733   5.739   2.761  1.1782 -2.5385 -1.9512
18413TIP3    H276731   4.802   5.864   2.712 -2.2246  1.2859  2.1327
18414TIP3   OH276732   1.096   3.464   3.116  0.6685  0.0114  0.6485
18414TIP3    H176733   1.047   3.473   3.197  2.7315 -0.5662  2.0513
18414TIP3    H276734   1.047   3.401   3.064 -0.4308  0.0175  1.6542
18415TIP3   OH276735   5.719   5.949  14.371  0.0792  0.3000 -0.2640
18415TIP3    H176736   5.652   5.895  14.329  0.9338 -0.3286 -0.8577
18415TIP3    H276737   5.716   5.924  14.463 -0.9905  0.8085 -0.1484
18416TIP3   OH276738   6.583   5.707  13.389 -0.4431  0.8222 -0.0428
18416TIP3    H176739   6.566   5.799  13.408  1.5195  1.1310  0.5121
18416TIP3    H276740   6.522   5.659  13.445 -0.5516  1.7903  0.6989
18417TIP3   OH276741   5.981   4.513   6.371 -0.6345  0.0714 -0.3623
18417TIP3    H176742   6.006   4.561   6.450 -0.9044 -0.7257  0.2265
18417TIP3    H276743   5.989   4.577   6.301  0.6517  0.5079  0.1474
18418TIP3   OH276744   1.913   2.507   4.445 -0.3474 -0.0863  0.3722
18418TIP3    H176745   1.905   2.416   4.472 -0.8084 -0.6601 -1.5679
18418TIP3    H276746   1.825   2.532   4.418  0.3097  0.0051 -1.8456
18419TIP3   OH276747   2.041   1.866  17.027 -0.0364  0.5787  0.0706
18419TIP3    H176748   2.084   1.793  16.982 -1.1112 -0.0172 -0.0153
18419TIP3    H276749   1.976   1.897  16.965 -0.2383  0.9911  0.4839
18420TIP3   OH276750   4.530   3.024  10.582  0.3808 -0.0960  0.6126
18420TIP3    H176751   4.466   3.034  10.512  1.2323  0.6652 -0.0829
18420TIP3    H276752   4.565   3.112  10.596  1.0032 -0.4304  1.2426
18421TIP3   OH276753   0.620   4.656  13.901  0.1635  0.1026 -0.4375
18421TIP3    H176754   0.700   4.687  13.857  0.2804 -0.7179 -0.8216
18421TIP3    H276755   0.639   4.666  13.994  1.1322 -1.0349 -0.4898
18422TIP3   OH276756   0.865   4.172   3.106 -0.3226 -0.3781 -0.2023
18422TIP3    H176757   0.867   4.159   3.200 -0.6441  0.7137 -0.0253
18422TIP3    H276758   0.913   4.098   3.070  0.5216 -0.3772  0.8661
18423TIP3   OH276759   3.015   2.854  12.172 -0.3273 -0.2142  0.3841
18423TIP3    H176760   3.064   2.935  12.159 -1.9277  0.3918 -2.9239
18423TIP3    H276761   2.936   2.881  12.220  0.5444 -0.4505  2.0225
18424TIP3   OH276762   3.912   0.203  14.541  0.3705 -0.7982 -0.2930
18424TIP3    H176763   3.889   0.171  14.453  2.6003  0.3096 -1.3531
18424TIP3    H276764   3.902   0.126  14.597 -0.8862 -1.5961 -1.5249
18425TIP3   OH276765   1.822   1.313   0.305  0.1651  0.0029 -0.3996
18425TIP3    H176766   1.750   1.271   0.353 -1.5729  2.1142 -1.0046
18425TIP3    H276767   1.831   1.261   0.225 -2.5560  1.1268 -1.5803
18426TIP3   OH276768   0.324   0.201   2.836 -0.4212 -0.0923  0.5197
18426TIP3    H176769   0.389   0.151   2.787 -0.9012  0.7761 -1.0706
18426TIP3    H276770   0.369   0.282   2.860 -1.0237  0.7483 -1.0554
18427TIP3   OH276771   4.633   3.324   3.286 -0.6299 -0.0191  0.0511
18427TIP3    H176772   4.718   3.326   3.241 -1.0001  1.5050 -0.6509
18427TIP3    H276773   4.583   3.256   3.240 -0.5610  0.6422 -1.0280
18428TIP3   OH276774   6.005   1.258   6.141  0.4659  0.3029 -0.0817
18428TIP3    H176775   5.972   1.321   6.205  1.4816  1.7930 -0.9492
18428TIP3    H276776   6.022   1.178   6.191 -1.1347  0.6038  1.0008
18429TIP3   OH276777   1.722   0.655   3.412 -0.0063 -0.6979 -0.1827
18429TIP3    H176778   1.671   0.717   3.358  1.5382  2.9740  2.1654
18429TIP3    H276779   1.661   0.627   3.480  0.0533  0.7605  0.5033
18430TIP3   OH276780   2.255   5.178   2.259 -0.2084  0.4942 -0.2795
18430TIP3    H176781   2.297   5.122   2.325  1.4107 -0.2865 -1.9093
18430TIP3    H276782   2.227   5.255   2.308  2.3553  0.6573  1.0931
18431TIP3   OH276783   5.150   1.073   1.914 -0.1317  0.3752 -0.0598
18431TIP3    H176784   5.171   0.988   1.951 -0.6023 -0.2354 -1.1306
18431TIP3    H276785   5.229   1.125   1.927 -0.6138  0.5640  2.7008
18432TIP3   OH276786   3.843   4.201   3.823  0.6776 -0.4509 -0.6364
18432TIP3    H176787   3.820   4.137   3.755  0.8707 -0.6947 -0.4736
18432TIP3    H276788   3.795   4.173   3.900  1.1515 -0.6897 -0.4264
18433TIP3   OH276789   6.546   6.079   0.938 -0.2615  0.0578  0.1889
18433TIP3    H176790   6.522   6.170   0.956 -0.7660 -0.2470  1.1110
18433TIP3    H276791   6.464   6.030   0.948  0.3780 -0.7731  1.6480
18434TIP3   OH276792   2.350   0.579   4.405 -0.2891  0.2120  0.1379
18434TIP3    H176793   2.274   0.618   4.361 -1.9264 -2.0954  0.6896
18434TIP3    H276794   2.397   0.533   4.336 -1.1971 -0.9224  0.2278
18435TIP3   OH276795   1.537   5.604   0.139  0.2429 -0.4270  0.5422
18435TIP3    H176796   1.447   5.608   0.170  0.2195  2.4062  0.3717
18435TIP3    H276797   1.532   5.554   0.058 -1.2789  0.0824  0.2884
18436TIP3   OH276798   1.675   3.903   2.164 -0.1870  0.0353  0.5046
18436TIP3    H176799   1.583   3.889   2.187 -0.6998  2.3801  0.2048
18436TIP3    H276800   1.684   3.998   2.164  1.9150 -0.1209 -0.7977
18437TIP3   OH276801   1.555   3.360   5.766  0.1119 -0.2234 -0.0585
18437TIP3    H176802   1.533   3.444   5.806 -0.5847 -0.7510  0.7279
18437TIP3    H276803   1.470   3.320   5.748  0.4338 -0.9697  0.0505
18438TIP3   OH276804   1.753   3.865  13.547 -0.3389 -0.6284 -0.1306
18438TIP3    H176805   1.821   3.884  13.483 -0.2902 -3.0512 -0.9087
18438TIP3    H276806   1.796   3.809  13.612 -1.5765 -2.4681 -0.8071
18439TIP3   OH276807   0.719   1.392   5.869  0.0331 -0.4521 -0.0641
18439TIP3    H176808   0.656   1.372   5.800  0.0096 -1.4608  0.2321
18439TIP3    H276809   0.788   1.327   5.858 -0.3166 -1.0833  1.2983
18440TIP3   OH276810   1.866   0.207  11.677  0.7021 -0.3902  0.1736
18440TIP3    H176811   1.776   0.237  11.674 -0.4425 -3.4513 -0.0094
18440TIP3    H276812   1.919   0.285  11.662 -1.9228  1.3122 -0.8130
18441TIP3   OH276813   6.644   5.228  17.300  0.1898  0.7908 -0.0202
18441TIP3    H176814   6.687   5.229  17.386 -0.4600 -1.5986  0.4233
18441TIP3    H276815   6.556   5.261  17.317 -1.0080 -2.4538  1.0408
18442TIP3   OH276816   4.926   1.873   2.882  0.2059  0.2719  0.3121
18442TIP3    H176817   4.929   1.814   2.957  2.7354 -1.4387 -0.9769
18442TIP3    H276818   4.861   1.834   2.823  0.3688 -0.0777  0.3592
18443TIP3   OH276819   1.518   0.272  13.988 -0.2271  0.3076  0.5157
18443TIP3    H176820   1.444   0.290  13.930  0.1783  0.7941  0.1408
18443TIP3    H276821   1.533   0.178  13.980 -1.4518  0.0059  1.3879
18444TIP3   OH276822   5.782   5.675   2.633  0.5095  0.3909  0.3052
18444TIP3    H176823   5.785   5.748   2.694  0.3987  0.8026 -0.1707
18444TIP3    H276824   5.836   5.607   2.672 -0.4498  0.2263  1.4038
18445TIP3   OH276825   5.166   5.780  13.543 -0.1622  0.1969 -0.2469
18445TIP3    H176826   5.252   5.819  13.561 -0.8795  1.2966  0.9522
18445TIP3    H276827   5.162   5.703  13.599 -1.7128  2.6722  3.3414
18446TIP3   OH276828   5.585   3.021  15.376 -0.5576 -0.3204 -0.1814
18446TIP3    H176829   5.512   2.964  15.397 -1.1048 -0.3412 -1.9421
18446TIP3    H276830   5.609   2.997  15.287  1.1446  0.1847  0.1084
18447TIP3   OH276831   4.153   2.063   4.654  0.2644  0.2678 -0.1347
18447TIP3    H176832   4.192   1.983   4.689 -0.8613 -0.7877 -1.1971
18447TIP3    H276833   4.091   2.033   4.588 -1.4045  1.9290  0.5896
18448TIP3   OH276834   3.709   3.272  13.684 -0.1177 -0.1989  0.4877
18448TIP3    H176835   3.757   3.287  13.603  1.0909 -0.9504  1.0369
18448TIP3    H276836   3.729   3.182  13.708 -1.8275 -0.5509  0.7522
18449TIP3   OH276837   5.237   4.184   1.619 -0.6241  0.5708 -0.1500
18449TIP3    H176838   5.250   4.277   1.605  0.1153  0.4528 -0.2743
18449TIP3    H276839   5.215   4.149   1.532 -2.1087  0.8048  0.0955
18450TIP3   OH276840   1.145   4.463  15.934 -0.2956  0.0716  0.4639
18450TIP3    H176841   1.224   4.511  15.956 -0.5170  0.9451 -0.5025
18450TIP3    H276842   1.175   4.376  15.907  0.3737  0.5008 -0.2095
18451TIP3   OH276843   0.184   2.922   2.411  0.3034  0.1035  0.6873
18451TIP3    H176844   0.196   3.014   2.434 -1.6659  0.3628  0.8085
18451TIP3    H276845   0.215   2.873   2.488  1.5455  0.6194  0.5433
18452TIP3   OH276846   4.778   6.709   4.740  0.2571 -0.8273  0.1032
18452TIP3    H176847   4.722   6.634   4.759 -1.2473  0.3129  0.3946
18452TIP3    H276848   4.779   6.759   4.821 -0.6902  0.6502 -0.7551
18453TIP3   OH276849   3.104   3.353   2.019  0.1753 -0.2738 -0.4050
18453TIP3    H176850   3.089   3.404   1.939  1.1406 -1.3909 -1.3410
18453TIP3    H276851   3.124   3.265   1.987  0.5084 -0.7603  1.0876
18454TIP3   OH276852   2.324   3.459  12.858  0.6501 -0.1327 -0.0703
18454TIP3    H176853   2.399   3.400  12.869  0.2462 -0.3033  2.1387
18454TIP3    H276854   2.364   3.544  12.842  1.2501 -0.6394 -1.5354
18455TIP3   OH276855   6.143   1.865   3.093  0.4284 -0.2977 -0.2381
18455TIP3    H176856   6.178   1.865   3.004 -4.1540  1.0425 -2.3547
18455TIP3    H276857   6.161   1.953   3.126 -0.6282  0.3243 -1.2326
18456TIP3   OH276858   1.514   3.390   6.234 -0.4161  0.1637 -0.2479
18456TIP3    H176859   1.533   3.468   6.286 -0.5508  0.6074 -0.8461
18456TIP3    H276860   1.583   3.328   6.256  0.2876  0.8382 -0.5294
18457TIP3   OH276861   2.619   6.030  15.217 -0.3082 -0.2223  0.2478
18457TIP3    H176862   2.593   5.994  15.132 -0.4057  0.4313 -0.0023
18457TIP3    H276863   2.687   5.971  15.249 -0.2394 -0.4412 -0.3054
18458TIP3   OH276864   0.888   2.880   0.696  0.3668 -0.1979 -0.1607
18458TIP3    H176865   0.809   2.934   0.705  1.2461  0.9015  1.5545
18458TIP3    H276866   0.884   2.846   0.607 -2.2228 -0.4640 -0.0197
18459TIP3   OH276867   1.066   1.867   4.180  0.6001 -0.0700 -0.1123
18459TIP3    H176868   0.972   1.871   4.161  0.4873 -1.9028 -0.1788
18459TIP3    H276869   1.101   1.949   4.147 -1.2150  1.3878  1.3853
18460TIP3   OH276870   0.717   5.357   2.163 -0.1102 -0.3770  0.2356
18460TIP3    H176871   0.640   5.387   2.212 -0.8523 -2.5971  0.5712
18460TIP3    H276872   0.763   5.299   2.224  1.1487 -0.0557 -0.3906
18461TIP3   OH276873   5.233   5.794  14.605  0.0487 -0.0183  0.2357
18461TIP3    H176874   5.206   5.835  14.687  1.2343 -0.4636  0.8692
18461TIP3    H276875   5.326   5.774  14.617  0.1105 -0.5970 -1.0117
18462TIP3   OH276876   3.331   4.725  17.218 -0.2194 -0.5702  0.3373
18462TIP3    H176877   3.376   4.641  17.208  1.0781  0.1085  0.2404
18462TIP3    H276878   3.394   4.780  17.265 -0.4876  0.7822 -0.8450
18463TIP3   OH276879   6.731   2.853  15.423 -0.0780 -0.7748 -0.0637
18463TIP3    H176880   6.807   2.877  15.477 -0.2948 -1.3720  0.5282
18463TIP3    H276881   6.757   2.874  15.334  0.1363  0.6379  0.3133
18464TIP3   OH276882   5.292   3.550  14.085  0.1781 -0.4583  0.3174
18464TIP3    H176883   5.221   3.581  14.028  0.1058  1.0295  1.1523
18464TIP3    H276884   5.247   3.509  14.159  0.2620 -1.8276 -0.3645
18465TIP3   OH276885   0.699   4.294   4.323  0.3970 -0.1660  0.1047
18465TIP3    H176886   0.712   4.260   4.412  1.2369  1.5816  0.7099
18465TIP3    H276887   0.700   4.217   4.267 -2.2112 -1.5679  1.7640
18466TIP3   OH276888   2.711   3.948   2.203  0.4173 -0.1064 -0.5939
18466TIP3    H176889   2.682   3.882   2.266  1.3941 -2.3061 -2.2970
18466TIP3    H276890   2.686   4.032   2.243 -1.2460 -1.4763  1.5001
18467TIP3   OH276891   3.658   5.569   1.744 -0.2261 -0.4582 -0.2319
18467TIP3    H176892   3.713   5.513   1.688 -0.2315 -1.1743  0.4481
18467TIP3    H276893   3.712   5.645   1.762  0.4848 -1.0605  0.2555
18468TIP3   OH276894   1.214   1.539  14.233  0.5564 -0.2563 -0.5603
18468TIP3    H176895   1.288   1.594  14.209  0.7797  0.4052  1.5135
18468TIP3    H276896   1.155   1.596  14.282 -0.0331 -1.4293  0.1578
18469TIP3   OH276897   2.140   1.780  11.451 -0.1099 -0.6568  0.1872
18469TIP3    H176898   2.190   1.785  11.369  1.4068 -0.0996  1.1100
18469TIP3    H276899   2.114   1.870  11.469  0.6672 -0.5703  0.9538
18470TIP3   OH276900   1.298   3.186   3.607  0.3340  0.1619 -0.0211
18470TIP3    H176901   1.214   3.231   3.600  0.7443  0.8462 -0.6287
18470TIP3    H276902   1.360   3.243   3.562  0.7951 -1.1995 -1.2000
18471TIP3   OH276903   1.525   2.177   5.931  0.1438 -0.1430  0.1645
18471TIP3    H176904   1.590   2.137   5.873  0.9848 -0.4126  1.2416
18471TIP3    H276905   1.519   2.115   6.004 -1.6489 -0.3218 -0.1076
18472TIP3   OH276906   3.995   4.526   5.678 -0.0156  0.3315 -0.7531
18472TIP3    H176907   4.011   4.579   5.600 -0.6517  0.4463 -0.8121
18472TIP3    H276908   4.039   4.573   5.749  0.2983  0.3905 -0.9874
18473TIP3   OH276909   2.175   5.541   0.549 -0.1967  0.1005 -0.6730
18473TIP3    H176910   2.149   5.597   0.622 -1.1218 -1.3397  0.1315
18473TIP3    H276911   2.269   5.528   0.561  0.0328  1.4113 -0.8514
18474TIP3   OH276912   3.608   3.702   2.731  0.1176  0.0770  0.6635
18474TIP3    H176913   3.660   3.644   2.787 -0.1143 -0.2064  0.5894
18474TIP3    H276914   3.672   3.742   2.673  0.1476 -1.1256 -0.1858
18475TIP3   OH276915   3.271   1.837   1.730  0.1708 -0.5781  0.4019
18475TIP3    H176916   3.232   1.831   1.643  1.6264 -0.0550 -0.3141
18475TIP3    H276917   3.208   1.888   1.781 -0.7187 -0.9394 -0.3231
18476TIP3   OH276918   0.789   3.725  16.983 -0.3434  0.5500 -0.0819
18476TIP3    H176919   0.840   3.670  17.042 -0.7056  0.5658  0.2541
18476TIP3    H276920   0.699   3.718  17.015 -0.0860  3.3388  1.5836
18477TIP3   OH276921   4.831   0.276   4.662  0.5477  0.2699  0.3831
18477TIP3    H176922   4.881   0.262   4.742  1.0299  1.0677  0.2257
18477TIP3    H276923   4.807   0.369   4.664  0.6631  0.3229 -0.4539
18478TIP3   OH276924   1.509   1.477   0.393 -0.1765  0.2580  0.4778
18478TIP3    H176925   1.533   1.384   0.389 -2.4431 -0.4297  1.3177
18478TIP3    H276926   1.590   1.523   0.372  0.9222 -1.9033 -0.3819
18479TIP3   OH276927   0.149   4.237   2.775  0.0885  0.1402 -0.1041
18479TIP3    H176928   0.182   4.251   2.686  2.0399  0.1007  0.5587
18479TIP3    H276929   0.068   4.288   2.778 -0.0126  0.1662 -1.8875
18480TIP3   OH276930   0.533   5.169   1.934  0.2846 -0.3004 -0.6414
18480TIP3    H176931   0.490   5.254   1.947  0.6213 -0.0140 -1.3809
18480TIP3    H276932   0.619   5.190   1.900  0.9869 -0.8824  0.7048
18481TIP3   OH276933   6.138   0.240  16.418  0.1108  0.5532 -0.4337
18481TIP3    H176934   6.058   0.190  16.404 -0.4620  1.3059  0.0714
18481TIP3    H276935   6.208   0.174  16.419 -0.3996 -0.0273 -1.6659
18482TIP3   OH276936   5.576   4.876  11.869 -0.4578 -0.1893 -0.5440
18482TIP3    H176937   5.638   4.889  11.941  1.5969 -1.2686 -1.9798
18482TIP3    H276938   5.548   4.964  11.845  0.6632  0.3599  0.0667
18483TIP3   OH276939   2.170   0.341   4.964  0.3678  0.1479  0.1356
18483TIP3    H176940   2.098   0.303   4.913 -1.2475  2.0580  0.8702
18483TIP3    H276941   2.242   0.348   4.901 -0.0863 -1.6431 -0.6716
18484TIP3   OH276942   0.812   0.800   0.653 -0.2475  0.3938 -0.2756
18484TIP3    H176943   0.720   0.778   0.638 -0.6123  1.4380  0.3539
18484TIP3    H276944   0.858   0.717   0.640 -1.2164 -0.0474 -1.0719
18485TIP3   OH276945   1.533   4.460  17.049 -0.0894  0.1213  0.0371
18485TIP3    H176946   1.619   4.465  17.090 -0.1629 -0.3342  0.2566
18485TIP3    H276947   1.532   4.376  17.005 -0.9069 -0.4986  1.1702
18486TIP3   OH276948   5.013   3.780  13.903  0.4176  0.4745  0.0888
18486TIP3    H176949   4.983   3.721  13.972 -0.0961  0.8378  0.1861
18486TIP3    H276950   4.933   3.804  13.856  0.7587  0.2427 -0.6260
18487TIP3   OH276951   1.265   2.405   4.698 -0.4704  0.0154 -0.1305
18487TIP3    H176952   1.307   2.352   4.630  3.1805  1.3718  0.8244
18487TIP3    H276953   1.290   2.364   4.780 -2.5875 -0.0578  0.5543
18488TIP3   OH276954   2.232   2.041   6.064 -0.0774  0.2609  0.4756
18488TIP3    H176955   2.314   2.031   6.015  0.4056 -0.7574  1.4600
18488TIP3    H276956   2.254   2.015   6.153 -0.5777  3.4645  1.6428
18489TIP3   OH276957   0.042   6.498   2.051  0.5130  0.0847 -0.5869
18489TIP3    H176958  -0.025   6.441   2.089  1.8656  0.1620  2.1181
18489TIP3    H276959   0.103   6.437   2.008 -0.0835 -0.1474 -1.1358
18490TIP3   OH276960   3.737   0.438  15.194  0.1104 -0.7307  0.3365
18490TIP3    H176961   3.682   0.380  15.246 -0.5321  0.6432  1.2431
18490TIP3    H276962   3.814   0.453  15.249 -0.4419  0.4996  0.8020
18491TIP3   OH276963   3.107   1.254  14.980 -0.9120 -0.1396 -0.7119
18491TIP3    H176964   3.196   1.284  14.961 -0.3782 -1.9617 -1.2892
18491TIP3    H276965   3.052   1.297  14.915 -0.1922 -0.3405 -1.4677
18492TIP3   OH276966   0.961   3.281   0.587 -0.2458 -0.2756 -0.3708
18492TIP3    H176967   0.893   3.335   0.548 -0.5371  0.4007  1.0299
18492TIP3    H276968   0.946   3.194   0.548 -2.8268 -0.5104  0.9149
18493TIP3   OH276969   1.477   6.107  13.584  0.8412  0.3457  0.3332
18493TIP3    H176970   1.440   6.023  13.557  0.4673 -0.0241  1.9145
18493TIP3    H276971   1.415   6.172  13.551 -0.5988 -0.1948  1.8654
18494TIP3   OH276972   0.885   2.142  15.475 -0.7050 -0.2982  0.3387
18494TIP3    H176973   0.894   2.155  15.570  3.3592  0.2083  0.0635
18494TIP3    H276974   0.929   2.059  15.458  3.1921  1.8492 -1.4383
18495TIP3   OH276975   5.788   1.855   6.357  0.4113  0.8770 -0.0833
18495TIP3    H176976   5.704   1.899   6.367  0.0669  0.4023 -0.8945
18495TIP3    H276977   5.797   1.801   6.436 -0.5542  0.0809 -0.5052
18496TIP3   OH276978   6.152   5.547   2.149 -0.1710  0.1186  0.1397
18496TIP3    H176979   6.151   5.453   2.131 -1.0732  0.0893  0.2597
18496TIP3    H276980   6.121   5.554   2.239  0.0146  0.5260  0.1720
18497TIP3   OH276981   0.209   0.442   3.536  0.6302  0.2951  0.2438
18497TIP3    H176982   0.148   0.516   3.538 -0.3875 -0.4767 -0.9734
18497TIP3    H276983   0.171   0.378   3.597  0.1261 -0.2255 -0.5883
18498TIP3   OH276984   3.192   5.801  13.793  0.2006  0.0406  0.1427
18498TIP3    H176985   3.131   5.869  13.764 -1.6521 -1.4147  0.4118
18498TIP3    H276986   3.197   5.741  13.719  2.0991  0.6009 -0.2220
18499TIP3   OH276987   4.566   1.346   4.125 -0.1143  0.4299 -0.1580
18499TIP3    H176988   4.576   1.323   4.217  1.5058  0.8429 -0.1993
18499TIP3    H276989   4.652   1.331   4.087  0.2236  3.4994 -0.8508
18500TIP3   OH276990   3.184   3.478   1.069 -0.5976 -0.0625 -0.1151
18500TIP3    H176991   3.216   3.461   0.980 -1.4122 -1.4134 -0.1662
18500TIP3    H276992   3.205   3.570   1.084  1.7323 -0.4062 -0.8026
18501TIP3   OH276993   1.256   0.990   1.273 -0.2620 -0.2436 -0.2810
18501TIP3    H176994   1.245   1.052   1.345  0.7979  1.8422 -1.8198
18501TIP3    H276995   1.184   0.928   1.284 -0.6528  0.5336  2.0230
18502TIP3   OH276996   1.533   5.485   1.509  0.1324 -0.1835 -0.1650
18502TIP3    H176997   1.568   5.400   1.483 -0.0362  0.3000 -2.1050
18502TIP3    H276998   1.488   5.518   1.432 -1.3772  0.9026  1.0978
18503TIP3   OH276999   0.145   1.386  12.442 -0.7968 -0.0153 -0.4499
18503TIP3    H177000   0.157   1.434  12.524 -1.6153  0.4320 -0.5850
18503TIP3    H277001   0.205   1.311  12.449  0.1983  0.7970 -0.0665
18504TIP3   OH277002   2.072   6.030  16.794  0.0754 -0.3339  0.0513
18504TIP3    H177003   2.119   5.977  16.858 -1.6347 -1.1830  0.6679
18504TIP3    H277004   2.015   6.086  16.847 -0.6414 -0.3399 -0.6829
18505TIP3   OH277005   1.803   1.993  12.362 -0.0583  0.2141  0.1417
18505TIP3    H177006   1.888   1.952  12.378 -0.4099 -0.4421  0.3654
18505TIP3    H277007   1.761   1.937  12.297 -0.9407 -0.3611  1.1640
18506TIP3   OH277008   0.777   5.454   5.557 -0.1021 -0.0069 -0.0747
18506TIP3    H177009   0.816   5.449   5.470  1.0237 -0.1434  0.4228
18506TIP3    H277010   0.802   5.541   5.589  0.0243 -0.1948  0.3500
18507TIP3   OH277011   2.434   6.602  13.266 -0.6102  0.5029 -0.1239
18507TIP3    H177012   2.409   6.610  13.174  2.2290 -3.9162 -1.5634
18507TIP3    H277013   2.484   6.681  13.285  0.9786  0.3947 -3.3093
18508TIP3   OH277014   1.546   6.816  13.951 -0.2503  0.5258 -0.0490
18508TIP3    H177015   1.546   6.815  13.855  0.6488 -0.8792 -0.0690
18508TIP3    H277016   1.639   6.810  13.974 -0.4936  0.3237  0.8990
18509TIP3   OH277017   1.606   1.449  12.850  0.2005  0.0594  0.3446
18509TIP3    H177018   1.571   1.401  12.775  1.4254 -0.2993 -0.0294
18509TIP3    H277019   1.701   1.437  12.843  0.4926  1.9399  0.6547
18510TIP3   OH277020   1.490   3.969  15.007  0.3482  0.1913  0.3025
18510TIP3    H177021   1.460   4.013  15.086  2.4478  0.8123  0.8077
18510TIP3    H277022   1.581   3.998  14.996  0.5491 -0.9720 -1.5575
18511TIP3   OH277023   4.740   1.295  13.898  0.0750 -0.3358 -0.2435
18511TIP3    H177024   4.653   1.258  13.911 -0.2667 -0.1110 -1.6885
18511TIP3    H277025   4.731   1.387  13.922  0.3430 -0.6518  1.1448
18512TIP3   OH277026   3.347   2.798   5.429 -0.3118 -0.2729 -0.0490
18512TIP3    H177027   3.290   2.789   5.353 -1.5414 -0.3751  0.8584
18512TIP3    H277028   3.379   2.888   5.426 -1.1903  0.0418 -0.1177
18513TIP3   OH277029   1.833   6.514  12.616 -0.0751 -0.0625  0.4554
18513TIP3    H177030   1.758   6.478  12.569 -0.4775 -1.2686  1.9184
18513TIP3    H277031   1.907   6.459  12.589  0.1582  0.6916 -0.4675
18514TIP3   OH277032   1.958   5.914  14.632 -0.3600 -0.0509 -0.3184
18514TIP3    H177033   1.890   5.952  14.577  0.8665  2.1496 -0.4509
18514TIP3    H277034   2.028   5.980  14.633  1.2349 -1.6391  0.8444
18515TIP3   OH277035   1.594   5.529  12.338 -0.0314 -0.4415 -0.3774
18515TIP3    H177036   1.568   5.515  12.247 -1.9258  2.9658 -0.5570
18515TIP3    H277037   1.517   5.505  12.389  1.0777 -2.4847  0.4065
18516TIP3   OH277038   6.744   5.852  11.344 -0.1378  0.0727 -0.0659
18516TIP3    H177039   6.818   5.793  11.351 -0.9579 -0.9089  0.6610
18516TIP3    H277040   6.772   5.932  11.389  1.1570  0.4624 -1.4947
18517TIP3   OH277041   4.435   5.816  11.441 -0.3903 -0.8543 -0.0898
18517TIP3    H177042   4.530   5.813  11.456 -0.6349  0.2608  2.0935
18517TIP3    H277043   4.397   5.784  11.523 -1.8886  0.1996 -0.3378
18518TIP3   OH277044   5.175   3.442   1.568 -0.1918  0.0346  0.0571
18518TIP3    H177045   5.195   3.359   1.611  0.2351 -1.1281 -2.2186
18518TIP3    H277046   5.260   3.487   1.564 -0.2652  0.2262  0.5327
18519TIP3   OH277047   0.344   1.695  13.346  0.0419  0.0463  0.3773
18519TIP3    H177048   0.271   1.723  13.292  1.4085  0.9286 -1.1147
18519TIP3    H277049   0.360   1.604  13.320  0.9732  0.5985 -1.1136
18520TIP3   OH277050   3.388   5.591   3.814 -0.1252 -0.1928  0.2545
18520TIP3    H177051   3.483   5.586   3.814 -0.1260 -0.9424 -1.4909
18520TIP3    H277052   3.368   5.669   3.763 -0.4915  1.9440  3.3409
18521TIP3   OH277053   6.561   6.400   4.536  0.1160  0.0529  0.3408
18521TIP3    H177054   6.628   6.469   4.534  0.1722 -0.0006  0.3893
18521TIP3    H277055   6.571   6.359   4.622  2.2594 -2.1346 -0.8128
18522TIP3   OH277056   0.123   5.516  12.608 -0.1732 -0.1357 -0.5038
18522TIP3    H177057   0.203   5.528  12.556  0.2427  0.0770  0.1681
18522TIP3    H277058   0.069   5.458  12.555 -0.2894  1.0292 -1.7520
18523TIP3   OH277059   5.498   5.901   4.986  0.2792  0.4047  0.2150
18523TIP3    H177060   5.514   5.959   4.912 -1.9618 -2.4910 -2.8603
18523TIP3    H277061   5.423   5.940   5.032 -1.1087  0.1467 -1.7126
18524TIP3   OH277062   0.977   4.407  17.247 -0.4509  0.0623 -0.4360
18524TIP3    H177063   1.058   4.417  17.295 -0.5571 -1.9256  0.2642
18524TIP3    H277064   0.914   4.376  17.312 -1.4702  0.4627 -1.2049
18525TIP3   OH277065   1.509   3.524  11.427 -0.2821 -0.2791 -0.5825
18525TIP3    H177066   1.420   3.491  11.434 -0.8474  0.7424 -2.4010
18525TIP3    H277067   1.524   3.534  11.333  2.1032 -1.3104 -0.4044
18526TIP3   OH277068   3.512   1.149   5.689 -0.1598  0.1214 -0.4540
18526TIP3    H177069   3.469   1.233   5.677  0.2451  0.3761 -0.1585
18526TIP3    H277070   3.591   1.170   5.740  0.1791 -0.3665 -0.7692
18527TIP3   OH277071   3.772   2.760  16.682  0.1933 -0.2051 -0.4222
18527TIP3    H177072   3.809   2.717  16.760  3.1869 -1.8660 -2.5328
18527TIP3    H277073   3.774   2.854  16.703 -2.2852 -0.6642  2.6315
18528TIP3   OH277074   4.758   6.451  14.252 -0.1983 -0.1844  0.1268
18528TIP3    H177075   4.771   6.410  14.338 -0.7386 -0.5550  0.0357
18528TIP3    H277076   4.793   6.388  14.190  0.0520  0.0173  0.0596
18529TIP3   OH277077   5.799   5.887  13.608  0.3649  0.3702 -0.4339
18529TIP3    H177078   5.870   5.833  13.642  1.1217  1.1470 -0.7444
18529TIP3    H277079   5.824   5.907  13.517  0.0240  1.0909 -0.3835
18530TIP3   OH277080   4.211   5.550   3.405 -0.7885 -0.3729 -0.1378
18530TIP3    H177081   4.124   5.517   3.383  0.0189 -2.4914 -0.4428
18530TIP3    H277082   4.219   5.536   3.499 -1.5284  1.8519  0.3111
18531TIP3   OH277083   6.762   5.552  16.544  0.5069 -0.1458  0.1415
18531TIP3    H177084   6.669   5.530  16.544  0.7236 -1.1396  1.1092
18531TIP3    H277085   6.772   5.611  16.470 -1.2936  1.7283  1.2829
18532TIP3   OH277086   0.837   2.759   4.171  0.4897 -0.8545 -0.5153
18532TIP3    H177087   0.877   2.801   4.247 -2.2591  1.1922 -0.0551
18532TIP3    H277088   0.879   2.801   4.096 -0.7113  1.3723 -0.0477
18533TIP3   OH277089   5.875   1.629   6.227  0.7694 -0.2268 -0.0580
18533TIP3    H177090   5.884   1.710   6.278  2.3829 -0.2373 -0.2680
18533TIP3    H277091   5.919   1.562   6.280 -0.6967 -1.0209  0.1889
18534TIP3   OH277092   6.613   2.795   1.563  0.6132 -0.6960  0.2802
18534TIP3    H177093   6.610   2.701   1.544  2.2668 -0.2687 -2.5852
18534TIP3    H277094   6.585   2.837   1.482 -0.3534  1.3431  1.5855
18535TIP3   OH277095   4.955   0.321   3.407 -0.3044  0.1431 -0.3048
18535TIP3    H177096   4.869   0.303   3.444  0.0530 -1.7885 -0.3001
18535TIP3    H277097   5.014   0.328   3.482 -0.1671 -0.3321 -0.3629
18536TIP3   OH277098   1.843   2.816   4.407  0.1320 -0.6965  0.1003
18536TIP3    H177099   1.852   2.800   4.313 -0.6079 -2.5052  0.3093
18536TIP3    H277100   1.766   2.766   4.433  0.5748 -0.5867  1.7615
18537TIP3   OH277101   4.078   5.740  15.756 -0.4389 -0.3867  0.0062
18537TIP3    H177102   4.090   5.832  15.780 -0.8358  0.0053 -1.2622
18537TIP3    H277103   4.001   5.739  15.700  1.0288 -1.1101 -2.1357
18538TIP3   OH277104   1.293   6.364   3.402 -0.7928 -0.0705 -0.1001
18538TIP3    H177105   1.361   6.370   3.469 -0.6473  3.5614 -0.4008
18538TIP3    H277106   1.215   6.401   3.443 -1.1314  0.6995 -1.3849
18539TIP3   OH277107   2.252   0.506  14.613  0.3991 -0.5641  0.2161
18539TIP3    H177108   2.231   0.567  14.684 -0.3679 -1.1238  0.4886
18539TIP3    H277109   2.327   0.545  14.570  0.9820 -0.2856  1.4321
18540TIP3   OH277110   2.517   2.087  15.765 -0.0161 -0.6045  0.2963
18540TIP3    H177111   2.512   2.118  15.675  2.2121 -0.6797  0.0811
18540TIP3    H277112   2.447   2.022  15.773 -0.6177 -0.1709 -1.1752
18541TIP3   OH277113   0.501   3.005   5.994  0.1811  0.2004 -0.0096
18541TIP3    H177114   0.486   2.930   6.051  0.1505 -0.9697 -1.4965
18541TIP3    H277115   0.434   3.069   6.019 -1.0615 -1.0547 -0.0356
18542TIP3   OH277116   1.995   1.983  12.756 -0.3143  0.0871  0.3639
18542TIP3    H177117   2.020   1.992  12.664 -0.7324  0.1241  0.2523
18542TIP3    H277118   1.914   2.033  12.764  0.3009  1.0055  1.0097
18543TIP3   OH277119   4.845   2.868   0.360 -0.0277 -0.2974  0.3779
18543TIP3    H177120   4.914   2.876   0.425  0.8717  0.4942 -0.6562
18543TIP3    H277121   4.889   2.837   0.281 -1.2210 -1.9908  0.3159
18544TIP3   OH277122   1.732   2.274  12.441  0.0743  0.3721 -0.3681
18544TIP3    H177123   1.646   2.290  12.478  0.4698 -0.3618  0.9217
18544TIP3    H277124   1.725   2.187  12.400 -0.7257  1.6793 -3.2490
18545TIP3   OH277125   1.429   2.524  13.486 -0.0472  0.3682 -0.1498
18545TIP3    H177126   1.361   2.565  13.539 -0.8969  1.1041 -1.7532
18545TIP3    H277127   1.416   2.559  13.398  1.2485 -0.8927 -0.8875
18546TIP3   OH277128   1.156   5.139  11.669 -0.0168  0.1530 -0.0056
18546TIP3    H177129   1.207   5.108  11.744  3.0311  0.3881 -1.7992
18546TIP3    H277130   1.141   5.232  11.687  0.9957  0.2925  0.1845
18547TIP3   OH277131   1.506   0.615   1.382  0.5066  0.2346 -0.0757
18547TIP3    H177132   1.520   0.684   1.317  0.5098 -0.1634 -0.5063
18547TIP3    H277133   1.539   0.652   1.464  0.2524  0.8469 -0.2397
18548TIP3   OH277134   1.733   3.632   0.053 -0.6072 -0.1454  0.3236
18548TIP3    H177135   1.685   3.648   0.133 -0.7184  0.1502  0.2014
18548TIP3    H277136   1.689   3.558   0.012  1.8051 -3.0288  2.4588
18549TIP3   OH277137   1.480   5.894   0.078 -0.4962 -0.2276 -0.0735
18549TIP3    H177138   1.490   5.894   0.173  0.6870  1.0405 -0.1629
18549TIP3    H277139   1.458   5.804   0.056  1.1483 -0.9989  1.2431
18550TIP3   OH277140   5.456   6.309  15.236 -0.0106 -0.2218  0.0992
18550TIP3    H177141   5.551   6.302  15.232  0.1575  1.4553  0.4567
18550TIP3    H277142   5.436   6.319  15.329 -0.3830  0.8071 -0.0723
18551TIP3   OH277143   1.756   1.098   3.401 -0.3559  0.2867 -0.1834
18551TIP3    H177144   1.785   1.112   3.311  1.3266 -0.0142  0.2661
18551TIP3    H277145   1.822   1.144   3.454  0.3373 -1.8833  0.9695
18552TIP3   OH277146   2.892   0.619  15.450 -0.0979 -0.6178  0.2386
18552TIP3    H177147   2.984   0.641  15.461  0.3323 -1.2351 -1.7243
18552TIP3    H277148   2.857   0.687  15.393 -0.6731 -0.8276  0.3248
18553TIP3   OH277149   5.145   5.226  12.390 -0.1024  0.0903  0.6162
18553TIP3    H177150   5.147   5.209  12.484  0.3713  0.5243  0.6889
18553TIP3    H277151   5.140   5.321  12.383  3.1900  0.3463  0.2295
18554TIP3   OH277152   6.395   3.394   0.220 -0.9852 -0.5626  0.0857
18554TIP3    H177153   6.455   3.456   0.177 -0.7060  0.0563  1.3271
18554TIP3    H277154   6.325   3.380   0.156  0.9369 -2.0924 -1.8400
18555TIP3   OH277155   2.868   2.728  13.909  0.1501 -0.3338 -0.5419
18555TIP3    H177156   2.860   2.648  13.856  2.1846  0.9601 -3.0427
18555TIP3    H277157   2.963   2.745  13.912 -0.2180  1.9223  0.0019
18556TIP3   OH277158   0.773   3.742  14.657  0.4257  0.1827 -0.3458
18556TIP3    H177159   0.832   3.666  14.646 -0.0152 -0.6673  2.4590
18556TIP3    H277160   0.693   3.716  14.612 -0.8856 -2.5487  3.1317
18557TIP3   OH277161   0.917   2.177  15.754  0.0285 -0.1368 -0.2870
18557TIP3    H177162   0.857   2.131  15.813 -0.1119  0.3252 -0.0634
18557TIP3    H277163   0.991   2.203  15.810 -0.5624  1.1822 -0.0588
18558TIP3   OH277164   3.364   0.349   4.259 -0.2247 -0.1158  0.1136
18558TIP3    H177165   3.320   0.272   4.222  1.9567 -1.3588 -0.0122
18558TIP3    H277166   3.352   0.339   4.354  1.5737 -1.6716  0.2396
18559TIP3   OH277167   1.996   5.869   5.221 -0.4724 -0.2955  0.4466
18559TIP3    H177168   1.979   5.851   5.129  0.1920 -0.2913  0.3206
18559TIP3    H277169   1.915   5.844   5.265 -1.0382  0.3438 -0.2075
18560TIP3   OH277170   1.741   2.321   0.883 -0.2868 -0.2691  0.0060
18560TIP3    H177171   1.740   2.237   0.929  0.4946  0.1231  0.7591
18560TIP3    H277172   1.659   2.363   0.910 -0.1341 -0.3068  0.5459
18561TIP3   OH277173   5.375   4.300   4.923 -0.1316 -0.1221  0.1625
18561TIP3    H177174   5.401   4.325   5.011  1.1979 -0.4586 -0.1111
18561TIP3    H277175   5.441   4.341   4.866 -0.5408 -0.5239 -0.6202
18562TIP3   OH277176   6.427   5.251   1.287 -0.0075 -0.7842 -0.0987
18562TIP3    H177177   6.456   5.331   1.332 -1.3439 -0.6410  0.5540
18562TIP3    H277178   6.485   5.183   1.320  0.0580 -0.3790  0.6432
18563TIP3   OH277179   5.973   6.082   5.943 -0.0916  0.3182  0.4967
18563TIP3    H177180   5.989   5.992   5.973  0.5251  0.2460 -0.0455
18563TIP3    H277181   5.882   6.099   5.969 -0.4816 -0.7451 -0.0822
18564TIP3   OH277182   4.665   4.537  10.983  0.4073 -0.7309  0.1629
18564TIP3    H177183   4.697   4.617  10.940  0.6323 -0.6334  0.5031
18564TIP3    H277184   4.613   4.493  10.916  1.1430 -0.8157 -0.3641
18565TIP3   OH277185   4.264   6.228   3.411  0.3950 -0.0186 -0.1013
18565TIP3    H177186   4.282   6.168   3.338  0.8390 -1.3541  1.0753
18565TIP3    H277187   4.236   6.172   3.483  1.3938  1.1113  1.2319
18566TIP3   OH277188   2.245   2.855  14.289 -0.2388 -0.2115 -0.2300
18566TIP3    H177189   2.237   2.768  14.327  1.5735 -0.4206 -0.2238
18566TIP3    H277190   2.197   2.851  14.207  1.6678 -1.9600 -1.3443
18567TIP3   OH277191   6.343   5.470   0.544  0.2810 -0.6654  0.0042
18567TIP3    H177192   6.303   5.538   0.598  1.3307  0.3313 -0.4255
18567TIP3    H277193   6.304   5.482   0.457  2.6696  1.4963 -0.9015
18568TIP3   OH277194   5.092   0.363  13.490 -0.5482  0.1566  0.2943
18568TIP3    H177195   5.048   0.384  13.572 -0.4455 -2.3858  1.0888
18568TIP3    H277196   5.021   0.340  13.430 -0.6015  1.7145 -0.2916
18569TIP3   OH277197   6.741   3.146   0.717 -0.2037  0.2196 -0.9013
18569TIP3    H177198   6.836   3.160   0.710 -0.3172  1.3521 -0.4338
18569TIP3    H277199   6.719   3.180   0.804 -0.8279 -1.3529 -0.4151
18570TIP3   OH277200   0.578   0.400   4.251  0.0744 -0.1481 -0.6175
18570TIP3    H177201   0.623   0.461   4.311 -0.7430 -0.6832  0.5692
18570TIP3    H277202   0.624   0.317   4.262 -1.8583 -1.0237  1.5076
18571TIP3   OH277203   3.440   5.081  12.704 -0.0315 -0.0155 -0.1193
18571TIP3    H177204   3.416   4.992  12.731 -0.1974 -0.4298 -1.5455
18571TIP3    H277205   3.455   5.074  12.610  1.7241  1.0949  0.0300
18572TIP3   OH277206   5.365   2.714  11.249 -0.2778 -0.3338 -0.4224
18572TIP3    H177207   5.426   2.787  11.238 -0.5958 -0.0474 -0.3222
18572TIP3    H277208   5.392   2.650  11.184  0.3372 -0.3566 -0.1512
18573TIP3   OH277209   4.162   0.266  12.024  0.4451 -0.3135  0.5705
18573TIP3    H177210   4.109   0.258  11.944  1.4136 -0.4056 -0.0791
18573TIP3    H277211   4.251   0.280  11.992  0.7303  0.4201  1.6496
18574TIP3   OH277212   4.589   0.223  15.572  0.0884 -0.1770  0.7190
18574TIP3    H177213   4.532   0.300  15.566 -0.7152 -0.7489  0.8495
18574TIP3    H277214   4.579   0.193  15.662  0.7206 -0.2060  0.7868
18575TIP3   OH277215   1.102   2.459   6.127  0.6655 -0.1109 -0.5419
18575TIP3    H177216   1.012   2.458   6.094  0.5756 -1.4131 -0.3083
18575TIP3    H277217   1.094   2.446   6.221  1.0472  1.0613 -0.3331
18576TIP3   OH277218   1.275   6.817   4.227 -0.2474  0.3841 -0.3060
18576TIP3    H177219   1.299   6.803   4.135  1.7440 -0.8611  0.3210
18576TIP3    H277220   1.226   6.738   4.251 -0.6979  0.6737 -0.2681
18577TIP3   OH277221   3.069   4.998  12.207 -0.0910  0.5163 -0.1419
18577TIP3    H177222   3.065   5.084  12.249  1.8812  1.2341 -1.3071
18577TIP3    H277223   3.139   5.005  12.142 -0.4789 -1.7051 -0.9149
18578TIP3   OH277224   3.432   2.438  11.855 -0.3722 -0.4775 -0.3843
18578TIP3    H177225   3.432   2.511  11.917 -0.1201 -0.7163 -0.0932
18578TIP3    H277226   3.434   2.479  11.769  1.4103 -0.1173 -0.2274
18579TIP3   OH277227   6.487   3.950   3.373  0.0559  0.4482  0.4505
18579TIP3    H177228   6.579   3.963   3.399 -0.3400  0.4411  1.9256
18579TIP3    H277229   6.454   4.038   3.356  0.6416  0.3701 -1.2805
18580TIP3   OH277230   3.496   2.933   3.594 -0.3151 -0.1234 -0.3634
18580TIP3    H177231   3.525   2.988   3.667 -0.4862 -0.1957 -0.2389
18580TIP3    H277232   3.424   2.881   3.631  0.3576 -0.9971 -0.2537
18581TIP3   OH277233   1.569   1.174  11.479 -0.3896  0.0872  0.4698
18581TIP3    H177234   1.522   1.236  11.535 -2.8664 -3.2334  2.4132
18581TIP3    H277235   1.660   1.179  11.510 -0.8626  1.4466  1.7994
18582TIP3   OH277236   5.133   4.714  14.501 -0.0282 -0.3143  1.1098
18582TIP3    H177237   5.159   4.680  14.415  1.1304 -2.0628  2.0862
18582TIP3    H277238   5.046   4.751  14.487  1.1478  1.8211 -1.3578
18583TIP3   OH277239   3.814   2.914  16.289 -0.0497 -0.1717  0.7324
18583TIP3    H177240   3.825   2.898  16.195 -0.8842 -0.8106  0.7358
18583TIP3    H277241   3.898   2.953  16.317  0.0915  0.3118 -0.3284
18584TIP3   OH277242   1.216   5.599  11.261  0.0135  0.1258 -0.1963
18584TIP3    H177243   1.235   5.691  11.279  0.5674  0.0805 -0.4912
18584TIP3    H277244   1.157   5.601  11.186 -1.6811  0.2890  1.1044
18585TIP3   OH277245   6.709   3.239   5.236 -0.6136 -0.4335 -0.0603
18585TIP3    H177246   6.674   3.173   5.176 -0.2782 -0.2010 -0.5233
18585TIP3    H277247   6.783   3.278   5.188 -1.0320  0.5279  0.0485
18586TIP3   OH277248   2.069   0.476   2.299  0.3994  0.0981  0.1741
18586TIP3    H177249   2.102   0.391   2.269 -0.5069  0.0424 -0.7054
18586TIP3    H277250   2.061   0.528   2.220  0.5359  0.8732  0.6589
18587TIP3   OH277251   6.111   5.657   4.564 -0.2890 -0.4113  0.7707
18587TIP3    H177252   6.200   5.637   4.593 -0.1734 -0.2149  0.5487
18587TIP3    H277253   6.108   5.752   4.557 -1.3509 -0.1394  3.4885
18588TIP3   OH277254   4.454   4.679  13.328  0.2221  0.9241 -0.4725
18588TIP3    H177255   4.373   4.725  13.352 -1.3339 -1.8666  0.1591
18588TIP3    H277256   4.514   4.697  13.400 -1.7434 -1.0703  1.8707
18589TIP3   OH277257   3.974   3.913  11.733  0.2545  0.6937  0.1110
18589TIP3    H177258   4.047   3.976  11.730  0.4828  0.4200 -0.1353
18589TIP3    H277259   3.896   3.967  11.745  0.5421  0.9621  0.8415
18590TIP3   OH277260   4.208   6.650   2.040  0.3213  0.3001 -0.8288
18590TIP3    H177261   4.275   6.696   2.090  2.0748 -2.0467 -0.8712
18590TIP3    H277262   4.256   6.590   1.985 -1.8101 -2.6129  0.2334
18591TIP3   OH277263   1.609   4.561   0.843  0.5837 -0.0625 -0.6642
18591TIP3    H177264   1.688   4.550   0.896  0.0706  0.5200  0.2578
18591TIP3    H277265   1.635   4.534   0.755  2.2915  1.6825 -0.7741
18592TIP3   OH277266   1.680   4.629   5.899 -0.3862 -0.2061 -0.3159
18592TIP3    H177267   1.655   4.636   5.992  0.7613 -0.6122  0.0367
18592TIP3    H277268   1.755   4.687   5.890 -1.6484  1.3445 -1.4672
18593TIP3   OH277269   0.776   6.613  16.752  0.6795 -0.2797  0.0161
18593TIP3    H177270   0.778   6.653  16.665 -0.1238 -0.2439  0.0112
18593TIP3    H277271   0.727   6.531  16.739 -2.6695  1.3978  1.0973
18594TIP3   OH277272   2.451   1.806   0.811 -0.0860  0.2877 -0.7744
18594TIP3    H177273   2.543   1.779   0.819 -0.2779 -0.5078 -1.1475
18594TIP3    H277274   2.442   1.830   0.718  0.0554  1.5783 -0.4739
18595TIP3   OH277275   0.290   0.438  12.897  0.3058 -0.2583 -0.0724
18595TIP3    H177276   0.358   0.371  12.909 -0.0556 -0.4312  1.1494
18595TIP3    H277277   0.255   0.421  12.810 -1.2792 -3.1246  0.9884
18596TIP3   OH277278   6.734   2.168  16.495 -0.2526 -0.5010 -0.2707
18596TIP3    H177279   6.661   2.137  16.549  0.8990 -0.6035  1.2956
18596TIP3    H277280   6.710   2.144  16.406 -0.8238 -3.1625  0.5153
18597TIP3   OH277281   6.725   1.874  15.794  0.4967  0.0942  0.3566
18597TIP3    H177282   6.689   1.922  15.719  0.2550  0.6379  0.8149
18597TIP3    H277283   6.734   1.784  15.763 -0.5342  0.1096 -0.0144
18598TIP3   OH277284   6.101   1.376   1.869  0.0198  0.3945  0.6236
18598TIP3    H177285   6.103   1.437   1.795  1.0698  0.7928  0.9541
18598TIP3    H277286   6.008   1.369   1.892 -0.5040 -0.8695 -1.6072
18599TIP3   OH277287   0.074   5.509  17.292 -0.5129 -0.8370 -0.3030
18599TIP3    H177288   0.009   5.485  17.225 -1.0605  0.6146 -0.3340
18599TIP3    H277289   0.022   5.530  17.369 -0.2617  1.5522 -0.6855
18600TIP3   OH277290   5.234   1.879   0.821  0.4351  0.1545  0.0719
18600TIP3    H177291   5.293   1.878   0.746 -0.0804 -0.0917 -0.3378
18600TIP3    H277292   5.292   1.872   0.897  0.9077 -0.5539 -0.3424
18601TIP3   OH277293   2.446   1.242   0.806 -0.2522 -0.3819  0.0188
18601TIP3    H177294   2.374   1.289   0.764 -1.5073 -0.5704  1.8548
18601TIP3    H277295   2.405   1.169   0.852  1.4161 -2.0089 -0.8984
18602TIP3   OH277296   0.362   3.537  12.332 -0.1064 -0.0093  0.1909
18602TIP3    H177297   0.443   3.581  12.304  0.1638 -0.9660 -0.6111
18602TIP3    H277298   0.300   3.608  12.349  0.3653  0.6869 -0.9054
18603TIP3   OH277299   6.315   4.896  11.900 -0.3479 -0.0541  0.0158
18603TIP3    H177300   6.259   4.854  11.835 -0.5313  0.1492  0.0403
18603TIP3    H277301   6.309   4.840  11.977 -2.9539  1.5043  1.0894
18604TIP3   OH277302   6.182   2.385   3.274  0.5107  0.3018  0.3484
18604TIP3    H177303   6.228   2.302   3.290 -0.0757 -0.0378  0.2925
18604TIP3    H277304   6.194   2.401   3.181 -0.5051 -0.4239  0.0687
18605TIP3   OH277305   4.644   2.956   0.648  0.2056 -0.2951 -0.5242
18605TIP3    H177306   4.700   3.032   0.665 -2.1392  1.3148  0.5410
18605TIP3    H277307   4.614   2.969   0.558 -1.2638  0.8493  0.0964
18606TIP3   OH277308   2.807   2.350  13.389 -0.2665  0.5153 -0.6307
18606TIP3    H177309   2.848   2.288  13.329 -0.2457  1.5595 -1.7392
18606TIP3    H277310   2.742   2.395  13.335 -2.6283 -0.7790  0.9555
18607TIP3   OH277311   6.033   4.422   5.534  0.5056  0.0157  0.4484
18607TIP3    H177312   6.012   4.330   5.526  1.5562 -0.1204 -1.5619
18607TIP3    H277313   6.128   4.424   5.544  0.6426  0.8782 -0.7430
18608TIP3   OH277314   6.185   2.520  10.977  0.4124  0.5741 -0.5358
18608TIP3    H177315   6.121   2.460  10.939  1.2545 -1.2550  0.7809
18608TIP3    H277316   6.267   2.497  10.933  0.6953  0.9657 -0.2142
18609TIP3   OH277317   2.820   2.051  11.626  0.2895  0.2989 -0.8508
18609TIP3    H177318   2.791   2.126  11.676 -0.5629 -0.2601 -0.4935
18609TIP3    H277319   2.888   2.086  11.568 -0.3073  1.3890 -0.9095
18610TIP3   OH277320   1.403   1.550   2.008  0.2080  0.2376 -0.2925
18610TIP3    H177321   1.434   1.553   2.098  0.7441 -0.8354 -0.4230
18610TIP3    H277322   1.395   1.641   1.982 -1.1166  0.5964  1.2234
18611TIP3   OH277323   3.755   2.600  14.907  0.6326 -0.2525 -0.1372
18611TIP3    H177324   3.800   2.569  14.828  0.0023 -0.3565 -0.4601
18611TIP3    H277325   3.675   2.547  14.911  0.6737 -0.2605  0.5846
18612TIP3   OH277326   3.017   2.733   1.032 -0.3163  0.3605 -0.0601
18612TIP3    H177327   3.056   2.684   1.104 -2.0693  0.5555  1.0664
18612TIP3    H277328   3.091   2.757   0.976  0.9996 -0.3289  1.3327
18613TIP3   OH277329   3.906   1.509   5.594  0.4420 -0.2628  0.1174
18613TIP3    H177330   3.829   1.523   5.539  2.2255  0.8908 -2.2199
18613TIP3    H277331   3.908   1.585   5.652  0.3576  0.2135 -0.4923
18614TIP3   OH277332   6.296   1.343  13.991  0.0573  0.4336 -0.1089
18614TIP3    H177333   6.365   1.306  14.046  0.3528 -0.7387 -1.2216
18614TIP3    H277334   6.314   1.309  13.903 -2.6642 -1.0137 -0.2211
18615TIP3   OH277335   6.817   1.478   1.477 -0.0685 -0.2387  0.2444
18615TIP3    H177336   6.838   1.571   1.491  1.8700 -0.6291  0.2273
18615TIP3    H277337   6.727   1.469   1.507 -0.1870  1.5887  0.5403
18616TIP3   OH277338   1.098   1.112  14.321 -0.1224 -0.2356 -0.6282
18616TIP3    H177339   1.048   1.152  14.249  1.4546  2.5992 -0.3062
18616TIP3    H277340   1.033   1.097  14.390 -1.0986  0.1040 -1.4508
18617TIP3   OH277341   5.770   0.644  11.822 -0.5911 -0.1745  0.4435
18617TIP3    H177342   5.759   0.567  11.766  0.1659 -0.2636  0.3969
18617TIP3    H277343   5.859   0.674  11.803 -0.5252  0.1224  1.1933
18618TIP3   OH277344   2.950   5.988   0.169 -0.0569 -0.2173 -0.2935
18618TIP3    H177345   2.903   6.072   0.165  0.3151  0.2177  2.4122
18618TIP3    H277346   2.882   5.922   0.162 -0.4441  0.2885 -1.6888
18619TIP3   OH277347   2.876   3.035  14.552 -0.6080  0.8529  0.4853
18619TIP3    H177348   2.962   3.015  14.515 -0.0090  1.6485  1.4015
18619TIP3    H277349   2.823   3.060  14.477 -0.6743 -1.6402 -0.3894
18620TIP3   OH277350   2.282   6.500   0.998 -0.7468 -0.6274 -0.4026
18620TIP3    H177351   2.266   6.590   1.028  0.6023 -0.1301 -1.0802
18620TIP3    H277352   2.243   6.497   0.910  1.5539  0.2265 -1.5650
18621TIP3   OH277353   1.421   5.082  16.814 -0.2488 -0.2317  0.7136
18621TIP3    H177354   1.473   5.064  16.736 -0.4771 -1.4996  0.8338
18621TIP3    H277355   1.467   5.154  16.857 -0.1953  0.5701 -0.6425
18622TIP3   OH277356   4.765   5.441  11.091  0.0680  0.4170  0.1018
18622TIP3    H177357   4.702   5.468  11.024  0.4861  1.1258 -0.0193
18622TIP3    H277358   4.766   5.346  11.086 -2.1486  0.2753  1.1692
18623TIP3   OH277359   4.396   1.718  12.599  0.1830 -0.1468 -0.0598
18623TIP3    H177360   4.396   1.665  12.679 -2.7779  0.7681  0.6551
18623TIP3    H277361   4.323   1.779  12.610 -0.4694 -0.0902 -3.5396
18624TIP3   OH277362   5.079   5.033  12.219  0.1752 -0.4581  0.7023
18624TIP3    H177363   5.057   4.958  12.273 -1.2527  0.9031  2.1404
18624TIP3    H277364   5.110   5.099  12.281  0.4005  0.4968 -0.3887
18625TIP3   OH277365   3.645   2.217   2.954 -0.7169 -0.6586 -0.3705
18625TIP3    H177366   3.656   2.201   3.048  0.9121  0.1343 -0.3833
18625TIP3    H277367   3.624   2.131   2.917 -1.4670 -0.9617  0.7256
18626TIP3   OH277368   2.076   4.636   3.437 -0.9591  0.3585 -0.3727
18626TIP3    H177369   2.080   4.651   3.343 -0.0410 -2.9486 -0.9725
18626TIP3    H277370   2.159   4.594   3.459 -1.0137  1.3127  2.0146
18627TIP3   OH277371   6.708   5.406  13.307 -0.0575  0.6795 -0.0583
18627TIP3    H177372   6.796   5.392  13.272  0.8316  0.2575  2.1756
18627TIP3    H277373   6.650   5.395  13.232  1.7657  0.7368 -1.5425
18628TIP3   OH277374   5.623   3.333   2.900 -0.2580  0.4206 -0.1920
18628TIP3    H177375   5.548   3.392   2.903  0.6370  1.6458 -0.9416
18628TIP3    H277376   5.594   3.259   2.847 -1.4067  0.1329  0.7900
18629TIP3   OH277377   4.636   1.043  11.811 -0.2162 -0.0661 -0.4193
18629TIP3    H177378   4.629   1.007  11.722 -0.6614  1.7411 -1.1550
18629TIP3    H277379   4.687   1.124  11.800  1.3879 -0.7739  1.2902
18630TIP3   OH277380   4.779   1.720   1.820  0.3987  0.0473  0.4673
18630TIP3    H177381   4.867   1.733   1.785  0.1611 -0.9298 -0.5419
18630TIP3    H277382   4.749   1.639   1.779 -0.6550 -0.0721  1.4425
18631TIP3   OH277383   5.930   1.911  11.449  0.1724 -0.1443  0.0509
18631TIP3    H177384   6.010   1.871  11.415  1.7370  0.9555  2.2045
18631TIP3    H277385   5.936   2.002  11.423 -0.4285 -0.0670  0.1723
18632TIP3   OH277386   3.881   6.798  14.907 -0.0245 -0.7186 -0.0048
18632TIP3    H177387   3.908   6.825  14.995 -2.8911  0.5468  0.5959
18632TIP3    H277388   3.820   6.726  14.922 -0.7347 -0.3225 -0.9249
18633TIP3   OH277389   5.862   2.669   2.099 -0.4217  0.3309  0.0760
18633TIP3    H177390   5.812   2.669   2.180 -1.5464 -0.9419 -0.5800
18633TIP3    H277391   5.947   2.707   2.123 -0.2768 -1.1352  2.1133
18634TIP3   OH277392   2.395   5.562   3.482 -0.1912  0.2347 -0.3044
18634TIP3    H177393   2.301   5.546   3.486 -0.2317 -0.0584 -1.8576
18634TIP3    H277394   2.407   5.648   3.522 -1.0893  0.1945  0.0713
18635TIP3   OH277395   0.193   0.605  11.135  0.2339  0.1252  0.3472
18635TIP3    H177396   0.147   0.607  11.051  1.8595 -1.2450 -0.6272
18635TIP3    H277397   0.168   0.522  11.175  1.3723 -0.3760  0.0595
18636TIP3   OH277398   1.165   6.188   2.817 -0.1324  0.1060 -0.3252
18636TIP3    H177399   1.189   6.214   2.906 -2.8073  1.4013  0.1167
18636TIP3    H277400   1.142   6.096   2.823 -4.7103  1.1015  1.5442
18637TIP3   OH277401   1.643   0.961   0.944  0.1769 -0.0740 -0.2561
18637TIP3    H177402   1.600   0.951   0.858  0.4252  1.8408 -0.6558
18637TIP3    H277403   1.730   0.922   0.932 -0.5283 -1.7509 -0.1876
18638TIP3   OH277404   4.051   6.342  13.628  0.3627 -0.5129  0.2841
18638TIP3    H177405   4.142   6.342  13.658  0.0898 -0.0762  1.1601
18638TIP3    H277406   4.057   6.356  13.533  1.1430  3.0329  0.7096
18639TIP3   OH277407   5.594   6.344   2.807 -0.2090  0.4927 -0.3439
18639TIP3    H177408   5.526   6.357   2.742 -0.9567  0.0311  0.3248
18639TIP3    H277409   5.555   6.374   2.889  0.7191  1.0858 -0.1025
18640TIP3   OH277410   0.571   3.944  15.261  0.1963 -0.0629  0.0316
18640TIP3    H177411   0.638   3.972  15.324  1.4188 -1.2816 -0.6540
18640TIP3    H277412   0.499   3.913  15.316  1.1996 -1.0300  0.8717
18641TIP3   OH277413   0.276   2.052   4.620 -0.1923 -0.2142 -0.0308
18641TIP3    H177414   0.340   1.986   4.591  1.0653  1.4369 -1.1907
18641TIP3    H277415   0.205   2.045   4.556 -0.0215 -0.3852 -0.2055
18642TIP3   OH277416   6.704   2.135   2.989  0.2885 -0.1507 -0.0848
18642TIP3    H177417   6.753   2.137   3.071 -0.4248  0.5447  0.3435
18642TIP3    H277418   6.737   2.211   2.941 -0.2940  0.2687  0.1686
18643TIP3   OH277419   3.862   0.806  16.391 -0.0900  0.4249  0.1654
18643TIP3    H177420   3.861   0.714  16.418 -1.3021  1.0128  2.3453
18643TIP3    H277421   3.927   0.847  16.448  0.7509  0.8794 -1.0809
18644TIP3   OH277422   2.676   1.732   6.687 -0.5507  0.3071  0.0004
18644TIP3    H177423   2.612   1.710   6.754 -0.8360  0.3392 -0.2615
18644TIP3    H277424   2.624   1.759   6.611 -0.2757 -0.8926 -0.6431
18645TIP3   OH277425   5.827   0.080   0.865 -0.0495  0.0637 -0.2405
18645TIP3    H177426   5.858   0.150   0.807 -1.7025  0.1328 -1.1086
18645TIP3    H277427   5.749   0.116   0.907 -0.1197 -0.7751  0.3761
18646TIP3   OH277428   1.740   3.561  16.747 -0.3129  0.0789 -0.1041
18646TIP3    H177429   1.753   3.494  16.680  1.2901 -1.0601  1.2324
18646TIP3    H277430   1.734   3.643  16.699  0.2545 -0.7625 -1.6690
18647TIP3   OH277431   3.355   3.195   0.693  0.1931  0.2939  0.1120
18647TIP3    H177432   3.397   3.162   0.614  1.4740  0.7170  0.5872
18647TIP3    H277433   3.302   3.122   0.725  0.4479 -0.2040 -0.5900
18648TIP3   OH277434   5.887   6.246  13.513  0.2174 -0.6035 -0.1560
18648TIP3    H177435   5.860   6.319  13.569  2.3654 -0.2187  0.4913
18648TIP3    H277436   5.952   6.199  13.565  3.5888  0.7295 -2.7904
18649TIP3   OH277437   6.474   2.168   1.888  0.0289 -0.7363  0.0572
18649TIP3    H177438   6.434   2.161   1.801  0.0010  4.1167 -0.6344
18649TIP3    H277439   6.567   2.183   1.870  0.0566  0.1338  0.8438
18650TIP3   OH277440   5.361   2.308  13.726 -0.7357  0.1799 -0.1825
18650TIP3    H177441   5.433   2.309  13.790 -0.3496 -0.8524 -0.5803
18650TIP3    H277442   5.339   2.401  13.713  0.2749  0.4893  0.2257
18651TIP3   OH277443   1.855   2.520   3.064 -0.1442  0.9146  0.2585
18651TIP3    H177444   1.822   2.600   3.025 -0.4522  0.2134 -0.9836
18651TIP3    H277445   1.857   2.538   3.158  0.5660  2.6347 -0.0534
18652TIP3   OH277446   4.682   2.516   2.970  0.6841 -0.1632 -0.1509
18652TIP3    H177447   4.683   2.443   2.909  0.5277  0.9339 -1.5093
18652TIP3    H277448   4.758   2.570   2.946  0.3653  0.5169  0.3144
18653TIP3   OH277449   5.750   4.422  11.843 -0.0905  0.0475  0.3958
18653TIP3    H177450   5.710   4.491  11.896  1.9306  2.9244 -1.5057
18653TIP3    H277451   5.734   4.450  11.752 -0.3321 -2.7757 -0.5234
18654TIP3   OH277452   0.693   2.632  13.392 -0.2424 -1.2143 -0.0100
18654TIP3    H177453   0.624   2.698  13.395 -0.0582 -0.9766 -0.9169
18654TIP3    H277454   0.772   2.678  13.421 -0.8053 -2.0032  3.1949
18655TIP3   OH277455   5.994   2.670  14.958 -0.3286 -0.0323  0.0552
18655TIP3    H177456   5.960   2.704  15.041 -3.3865  0.5758 -1.2908
18655TIP3    H277457   6.069   2.725  14.938 -0.8819  1.2693  1.3737
18656TIP3   OH277458   5.349   0.345  13.947  0.7444 -0.3209 -0.0461
18656TIP3    H177459   5.390   0.284  14.008  2.9238  0.0906 -1.0341
18656TIP3    H277460   5.379   0.431  13.976 -0.1764  0.0826 -0.2535
18657TIP3   OH277461   4.427   6.134  14.431 -0.0116 -0.0105  0.1660
18657TIP3    H177462   4.418   6.039  14.418 -1.2982  0.2122 -0.7782
18657TIP3    H277463   4.454   6.167  14.346  2.1393  0.3128  0.9243
18658TIP3   OH277464   0.465   1.746   4.432  0.0535  0.9334  0.3892
18658TIP3    H177465   0.473   1.839   4.452  1.6789  0.5956  1.4533
18658TIP3    H277466   0.548   1.722   4.391  0.3213 -0.3509  1.5719
18659TIP3   OH277467   2.365   4.652   3.650 -0.1793  0.5257 -0.0421
18659TIP3    H177468   2.316   4.629   3.728 -1.6631  2.2849 -0.3902
18659TIP3    H277469   2.380   4.746   3.658  2.2239  0.2512 -0.4953
18660TIP3   OH277470   1.909   6.600   3.602 -0.4755  0.0458 -0.2289
18660TIP3    H177471   1.945   6.682   3.635  0.0473  0.0166 -0.7146
18660TIP3    H277472   1.863   6.624   3.522 -0.4487 -0.1148 -0.2925
18661TIP3   OH277473   2.346   5.307  13.043  0.4118 -0.1999 -0.0839
18661TIP3    H177474   2.394   5.287  12.963 -1.0389 -2.0860 -0.5518
18661TIP3    H277475   2.376   5.243  13.107  1.0916  0.8881  0.7270
18662TIP3   OH277476   2.823   2.995   4.530 -0.3420  0.2286  0.0720
18662TIP3    H177477   2.792   2.905   4.519 -0.8245  0.6734 -3.0840
18662TIP3    H277478   2.918   2.986   4.537 -0.2992 -0.4832 -1.2187
18663TIP3   OH277479   4.713   1.080   0.843  0.0085  0.1768 -0.2888
18663TIP3    H177480   4.744   0.990   0.840  0.4880  0.2498  1.2774
18663TIP3    H277481   4.767   1.127   0.780 -0.4650 -0.6738 -1.3508
18664TIP3   OH277482   4.137   3.650   2.758  0.9114  0.2131  0.4994
18664TIP3    H177483   4.089   3.609   2.686  0.4171  0.0545  0.9088
18664TIP3    H277484   4.076   3.716   2.791  1.6288  1.1666 -0.0406
18665TIP3   OH277485   3.383   1.397   0.720 -0.4535 -0.1558  0.1113
18665TIP3    H177486   3.451   1.452   0.682  0.0339  0.9908  2.4475
18665TIP3    H277487   3.307   1.454   0.726 -0.9355 -0.7319 -0.3360
18666TIP3   OH277488   4.396   0.214  12.825  0.2872 -0.1453  0.2803
18666TIP3    H177489   4.445   0.289  12.791  0.7576 -0.4080  0.3747
18666TIP3    H277490   4.318   0.209  12.770  1.5820 -1.2684 -1.5349
18667TIP3   OH277491   3.142   3.104  11.888 -0.6845 -0.6301 -0.0421
18667TIP3    H177492   3.185   3.025  11.855 -2.2621 -0.8405 -1.7534
18667TIP3    H277493   3.140   3.092  11.983  0.2369 -2.0546 -0.1740
18668TIP3   OH277494   6.582   0.880   0.915 -0.3769 -0.1069 -0.2660
18668TIP3    H177495   6.503   0.848   0.872 -0.9775 -1.4133  1.7070
18668TIP3    H277496   6.639   0.804   0.921  0.8463  0.6983 -1.1596
18669TIP3   OH277497   3.424   1.805  16.304  0.1109  0.2971 -0.2893
18669TIP3    H177498   3.497   1.743  16.309  0.3887  0.6808  0.8172
18669TIP3    H277499   3.365   1.777  16.374 -1.6514 -1.0103 -2.2070
18670TIP3   OH277500   2.726   6.099  12.674  0.1328 -0.0601  0.0266
18670TIP3    H177501   2.715   6.059  12.588  1.8041 -1.2738  0.3220
18670TIP3    H277502   2.767   6.183  12.657 -2.0716  0.9981 -0.4998
18671TIP3   OH277503   6.185   1.799   4.910  0.5155 -0.5849 -0.6305
18671TIP3    H177504   6.269   1.780   4.867  2.2307 -0.1232  2.2653
18671TIP3    H277505   6.161   1.717   4.953  0.7576 -0.0614  0.5290
18672TIP3   OH277506   3.401   5.426   1.802  0.0323  0.2538 -0.4071
18672TIP3    H177507   3.356   5.398   1.722 -1.0840 -0.4343  0.4292
18672TIP3    H277508   3.484   5.464   1.771 -0.0182 -0.7144 -1.8292
18673TIP3   OH277509   2.682   0.152  16.173 -0.4540  0.0190  0.0804
18673TIP3    H177510   2.759   0.201  16.145  1.0401 -2.8756 -1.4422
18673TIP3    H277511   2.629   0.145  16.093 -1.4410  0.5219  0.6850
18674TIP3   OH277512   1.727   4.136   5.206  0.3512  0.7841  0.6379
18674TIP3    H177513   1.709   4.123   5.112  0.9381  2.2220  0.3036
18674TIP3    H277514   1.782   4.214   5.209  0.3473  0.7478  2.1956
18675TIP3   OH277515   3.298   1.855  13.340 -0.2784 -0.3674  0.0831
18675TIP3    H177516   3.222   1.834  13.284  1.2724 -3.1377 -1.1999
18675TIP3    H277517   3.291   1.793  13.413  1.0675 -1.1318 -0.4084
18676TIP3   OH277518   2.666   2.672  16.642 -0.0803 -0.3612  0.2265
18676TIP3    H177519   2.585   2.645  16.684  0.3314  0.7381  1.8444
18676TIP3    H277520   2.710   2.590  16.619 -1.0734 -0.9747  0.4522
18677TIP3   OH277521   0.934   3.156   3.185  0.5613  0.2098 -0.4592
18677TIP3    H177522   0.858   3.213   3.202 -0.5622 -1.3397 -0.0859
18677TIP3    H277523   0.994   3.212   3.135 -1.4241  1.0933 -2.0366
18678TIP3   OH277524   1.828   0.062  11.271  0.2395  0.1955  0.7360
18678TIP3    H177525   1.828   0.150  11.306 -2.8399  0.7595 -0.3911
18678TIP3    H277526   1.815   0.005  11.347 -0.2041  0.9070  1.1961
18679TIP3   OH277527   6.364   5.564  11.374  0.7684  0.0923 -0.0902
18679TIP3    H177528   6.376   5.546  11.280 -0.2483  1.4151 -0.5055
18679TIP3    H277529   6.453   5.561  11.410  1.5514  2.2289 -1.6339
18680TIP3   OH277530   0.716   2.652  10.823 -0.2576 -0.8158 -0.2320
18680TIP3    H177531   0.688   2.733  10.782 -1.9736 -0.7387  1.0219
18680TIP3    H277532   0.716   2.588  10.751  0.0808  0.0352 -1.0100
18681TIP3   OH277533   2.310   6.384   1.976 -0.0817 -0.1799 -0.3026
18681TIP3    H177534   2.244   6.442   1.940 -0.6017  0.1157  1.0529
18681TIP3    H277535   2.383   6.389   1.914  0.0044  2.1470 -0.0956
18682TIP3   OH277536   3.944   3.263   1.104 -0.0677  0.3886  0.0806
18682TIP3    H177537   3.850   3.269   1.123 -0.8859  0.2961 -3.3398
18682TIP3    H277538   3.977   3.352   1.120 -0.5099  0.2444  2.0547
18683TIP3   OH277539   2.648   0.249  11.264  0.8391 -0.0972  0.0854
18683TIP3    H177540   2.664   0.214  11.352 -0.1426 -0.6993  0.0440
18683TIP3    H277541   2.616   0.174  11.214 -0.3167  0.6298 -0.2970
18684TIP3   OH277542   6.558   4.177  16.337 -0.8853 -0.3168  0.1178
18684TIP3    H177543   6.549   4.102  16.279  0.1101  0.0485 -0.5382
18684TIP3    H277544   6.570   4.251  16.277 -0.6490  0.1839  0.7829
18685TIP3   OH277545   1.816   0.069   3.927  0.7469 -0.0141  0.2879
18685TIP3    H177546   1.855   0.047   4.012  0.4936 -3.3065 -0.3008
18685TIP3    H277547   1.725   0.090   3.948  0.6123 -1.0679  0.8776
18686TIP3   OH277548   6.217   3.274  11.565  0.0775  0.3558 -0.4352
18686TIP3    H177549   6.181   3.351  11.609 -1.2935 -1.3692  1.6649
18686TIP3    H277550   6.309   3.297  11.548 -0.3189  2.4652 -0.0007
18687TIP3   OH277551   0.599   6.615   1.447 -0.2193  0.2197  0.7877
18687TIP3    H177552   0.601   6.662   1.530 -2.4059  2.1303 -0.1568
18687TIP3    H277553   0.529   6.551   1.457  0.5190 -0.6102  0.8780
18688TIP3   OH277554   6.025   5.161  14.956 -0.7613 -0.7086  0.8006
18688TIP3    H177555   5.979   5.078  14.942  1.3397 -1.6226 -1.2440
18688TIP3    H277556   6.102   5.157  14.900  0.5759  1.7683  2.2281
18689TIP3   OH277557   2.636   2.468   5.377  0.0898 -0.2112 -0.6265
18689TIP3    H177558   2.685   2.458   5.295  1.3254  0.9409 -0.0713
18689TIP3    H277559   2.687   2.531   5.428 -1.6193  0.5131  0.2852
18690TIP3   OH277560   3.806   3.972  15.162  0.8241 -0.3795 -0.1798
18690TIP3    H177561   3.742   4.010  15.102  0.9629 -1.1461 -0.8211
18690TIP3    H277562   3.821   4.041  15.227 -0.2512  0.0118 -0.3149
18691TIP3   OH277563   6.298   3.884   1.592 -0.0471  0.4475 -0.4179
18691TIP3    H177564   6.308   3.795   1.560 -0.4094  0.2431  0.0261
18691TIP3    H277565   6.376   3.930   1.559 -0.8405  0.4917 -2.3163
18692TIP3   OH277566   0.424   2.805  12.568  0.2135  0.5207  0.4096
18692TIP3    H177567   0.502   2.756  12.593 -0.6678 -1.1587 -0.0043
18692TIP3    H277568   0.351   2.761  12.613 -0.7249  0.8192 -0.7521
18693TIP3   OH277569   3.993   2.832   0.659 -0.0730  0.3919  0.4804
18693TIP3    H177570   4.024   2.750   0.619  0.9550  0.4227  1.1761
18693TIP3    H277571   3.988   2.812   0.752 -0.3960  0.9525  0.5829
18694TIP3   OH277572   0.652   0.468   5.704  0.5506 -0.1300  0.1076
18694TIP3    H177573   0.712   0.439   5.635  0.0475 -0.4056 -0.2177
18694TIP3    H277574   0.565   0.455   5.668  0.2841 -0.0169  0.6923
18695TIP3   OH277575   0.893   4.635  13.787  0.2715  0.2137  0.8307
18695TIP3    H177576   0.968   4.693  13.797  0.1584  0.1172  2.5038
18695TIP3    H277577   0.882   4.594  13.873 -1.3979 -0.1454  0.4943
18696TIP3   OH277578   3.135   4.990   3.585 -0.5591  0.5523 -0.3016
18696TIP3    H177579   3.050   4.992   3.630 -0.4230 -0.6749  0.0442
18696TIP3    H277580   3.188   5.054   3.634 -1.0235  0.7146  0.0077
18697TIP3   OH277581   0.587   4.966  15.853 -0.3546  0.0908  0.6083
18697TIP3    H177582   0.680   4.951  15.834 -0.7932 -0.1422 -1.6120
18697TIP3    H277583   0.587   5.035  15.919  1.3919  0.6296  0.1112
18698TIP3   OH277584   5.545   2.318  16.314  0.3782 -0.0899 -0.2098
18698TIP3    H177585   5.627   2.269  16.327  1.0201  1.2281  1.0475
18698TIP3    H277586   5.499   2.269  16.247  0.4318 -3.0956  1.7217
18699TIP3   OH277587   3.688   4.881   4.307 -0.0481  0.2314  0.1760
18699TIP3    H177588   3.717   4.943   4.375  1.1754 -0.1936  0.0652
18699TIP3    H277589   3.634   4.818   4.354  0.6955  0.0031  0.7531
18700TIP3   OH277590   5.583   0.018  10.819  0.0304 -0.1109 -0.2419
18700TIP3    H177591   5.499  -0.026  10.810  0.3119 -0.9101  0.7733
18700TIP3    H277592   5.626   0.005  10.735 -1.5121  1.8050 -1.4048
18701TIP3   OH277593   2.539   1.234   5.580  0.3026  0.3789  0.0614
18701TIP3    H177594   2.629   1.205   5.567 -0.0206 -0.1549 -1.0832
18701TIP3    H277595   2.487   1.177   5.524 -0.8303  0.2495  1.1903
18702TIP3   OH277596   6.335   5.947   3.970  0.6046 -0.2475 -0.1818
18702TIP3    H177597   6.292   5.901   4.042  0.3745  1.6543  0.9941
18702TIP3    H277598   6.281   5.929   3.893 -1.6092  0.9523  0.9793
18703TIP3   OH277599   5.408   2.116   1.448 -0.4708  0.0371  0.4668
18703TIP3    H177600   5.401   2.210   1.461  0.6682  0.1244  0.5442
18703TIP3    H277601   5.499   2.095   1.469  0.0691 -0.6589 -2.1610
18704TIP3   OH277602   1.099   3.948   0.523 -0.1877  0.1654 -0.1068
18704TIP3    H177603   1.149   3.890   0.580 -0.4183  1.2749  1.2825
18704TIP3    H277604   1.162   3.980   0.460  0.7433  1.0089  1.1964
18705TIP3   OH277605   5.291   6.082   3.192  0.6650 -0.1254 -0.0284
18705TIP3    H177606   5.336   6.133   3.124  0.8695  0.8873  0.8435
18705TIP3    H277607   5.356   6.019   3.222  1.3084  0.8571  0.7215
18706TIP3   OH277608   6.299   6.353  12.872 -0.3814 -0.0530  0.0528
18706TIP3    H177609   6.290   6.293  12.946 -0.5134  0.7082  0.6658
18706TIP3    H277610   6.264   6.304  12.798 -0.0503 -0.9068  0.4456
18707TIP3   OH277611   4.883   0.690  10.934  0.2722  0.4410 -0.4616
18707TIP3    H177612   4.863   0.770  10.886 -0.1505  0.8508  0.3755
18707TIP3    H277613   4.835   0.699  11.017  0.8005 -0.3419 -0.0566
18708TIP3   OH277614   5.195   1.782  17.021 -0.4190  0.0551 -0.0781
18708TIP3    H177615   5.138   1.716  17.061  1.9638 -1.2715  1.3437
18708TIP3    H277616   5.199   1.852  17.086  0.5690 -0.4635  0.4474
18709TIP3   OH277617   2.070   0.004  11.106  0.2407 -0.3025 -0.2044
18709TIP3    H177618   1.983   0.043  11.105  0.1003 -0.5759 -1.8773
18709TIP3    H277619   2.129   0.074  11.079  0.8011  0.3163  2.3762
18710TIP3   OH277620   4.717   2.344   4.953  0.6820  0.0924 -0.7817
18710TIP3    H177621   4.637   2.311   4.992 -0.3287  1.7433 -1.3421
18710TIP3    H277622   4.703   2.439   4.946  2.0582  0.2302 -2.3181
18711TIP3   OH277623   3.586   6.659   1.248  0.2008 -0.0108  0.6770
18711TIP3    H177624   3.618   6.601   1.179  0.7932  2.0240 -0.8508
18711TIP3    H277625   3.496   6.679   1.222  0.6276  1.2609  0.0904
18712TIP3   OH277626   1.957   1.248  10.996  0.6855  0.1026  0.3935
18712TIP3    H177627   1.904   1.311  11.045  0.5832 -0.1840  0.6546
18712TIP3    H277628   2.009   1.302  10.936 -0.7364  0.3064 -0.6892
18713TIP3   OH277629   4.277   1.933  13.133 -0.7581  0.4708 -0.4379
18713TIP3    H177630   4.268   2.028  13.142 -2.4418  0.3601 -0.6992
18713TIP3    H277631   4.187   1.901  13.125 -0.1590 -1.0068 -1.7824
18714TIP3   OH277632   6.446   4.499   1.183  0.2702 -0.2682 -0.0017
18714TIP3    H177633   6.523   4.505   1.240 -0.3414  0.3359  0.7881
18714TIP3    H277634   6.409   4.412   1.203  1.2531 -0.9529 -1.0732
18715TIP3   OH277635   2.827   2.346   4.840  0.3919 -0.2912 -1.3123
18715TIP3    H177636   2.734   2.338   4.861  0.2027  1.3145 -1.4563
18715TIP3    H277637   2.846   2.269   4.786 -1.0316 -0.2483 -1.9042
18716TIP3   OH277638   5.942   6.728   0.597  0.0138 -0.3340  0.1840
18716TIP3    H177639   6.032   6.721   0.628  0.6388  2.2325 -0.8262
18716TIP3    H277640   5.950   6.753   0.505 -1.7792 -2.4926 -0.6651
18717TIP3   OH277641   0.083   1.600  17.204  0.0719  0.5298 -0.2027
18717TIP3    H177642   0.175   1.592  17.178 -0.1683  0.1613 -0.9659
18717TIP3    H277643   0.047   1.665  17.145 -0.1309  0.7688  0.1806
18718TIP3   OH277644   5.491   6.751   1.100 -0.2160 -0.2862  0.4838
18718TIP3    H177645   5.519   6.661   1.117 -1.9327 -1.0191 -0.2721
18718TIP3    H277646   5.397   6.743   1.081  0.0063  1.3648 -1.7068
18719TIP3   OH277647   4.573   0.538   1.427  0.0506  0.1696 -0.1569
18719TIP3    H177648   4.579   0.452   1.385 -1.7833  0.3240 -0.8266
18719TIP3    H277649   4.547   0.519   1.518  1.4866 -0.0368  0.2385
18720TIP3   OH277650   4.154   1.826  15.021  0.0560 -0.1125 -0.1023
18720TIP3    H177651   4.153   1.844  14.927  0.1393  1.2853  0.1352
18720TIP3    H277652   4.166   1.731  15.028  0.3413 -0.1949 -1.4888
18721TIP3   OH277653   4.871   0.175   2.391  0.5655 -0.1279  0.7028
18721TIP3    H177654   4.925   0.096   2.387  1.1314  0.2970 -1.5211
18721TIP3    H277655   4.791   0.152   2.344  0.6809  0.5384  0.1513
18722TIP3   OH277656   2.505   3.755   3.270 -0.2482 -0.3040  0.4542
18722TIP3    H177657   2.492   3.698   3.194 -0.4564  0.3428 -0.0152
18722TIP3    H277658   2.421   3.799   3.281  0.2243  0.7317  0.0983
18723TIP3   OH277659   1.372   3.048   4.429  0.5500  0.3505 -0.0331
18723TIP3    H177660   1.460   3.068   4.460  1.8541 -0.5856 -2.7475
18723TIP3    H277661   1.382   2.963   4.384 -1.9675 -0.2490  0.3907
18724TIP3   OH277662   6.336   5.886   1.507  0.0046  0.0984  0.0822
18724TIP3    H177663   6.273   5.821   1.476 -0.0206 -0.8556  1.9692
18724TIP3    H277664   6.288   5.968   1.505 -0.2891 -0.0954 -1.4188
18725TIP3   OH277665   5.688   2.639   2.306  0.2374  0.3244 -0.1887
18725TIP3    H177666   5.630   2.661   2.378  0.8242  0.9548  0.0978
18725TIP3    H277667   5.736   2.561   2.335  0.9639  0.9720  0.3968
18726TIP3   OH277668   4.761   5.961   0.626 -0.0989  0.8143 -0.2350
18726TIP3    H177669   4.752   5.867   0.639 -0.7912  1.0360  1.0665
18726TIP3    H277670   4.800   5.970   0.539  1.5554 -0.7186  0.2911
18727TIP3   OH277671   3.895   3.635   2.579 -0.2305  0.2879  0.0405
18727TIP3    H177672   3.835   3.695   2.535 -0.9023  0.5911  1.3119
18727TIP3    H277673   3.946   3.596   2.509 -1.1168  0.9046 -0.9742
18728TIP3   OH277674   2.881   1.357   3.130  0.0079  0.2238  0.3799
18728TIP3    H177675   2.959   1.335   3.181 -0.6023 -0.4884  1.0328
18728TIP3    H277676   2.914   1.377   3.042  0.9816  0.5487  0.8097
18729TIP3   OH277677   6.073   6.596   3.269 -0.3808 -0.2415 -0.1150
18729TIP3    H177678   6.007   6.569   3.205 -1.1699  0.6994  0.2857
18729TIP3    H277679   6.154   6.557   3.236 -1.3623 -2.7494  0.2056
18730TIP3   OH277680   3.509   2.514   1.925 -0.5030 -0.0560  0.0984
18730TIP3    H177681   3.439   2.542   1.984  1.2595  3.9615  0.5689
18730TIP3    H277682   3.585   2.500   1.981  0.3301  0.4793 -0.8544
18731TIP3   OH277683   1.094   6.273  11.598  0.3307  0.0020  0.2163
18731TIP3    H177684   1.005   6.239  11.584  0.6241 -0.6763 -0.0402
18731TIP3    H277685   1.081   6.367  11.615 -0.5746 -0.3879  1.8911
18732TIP3   OH277686   5.283   1.543   0.947 -0.3684  0.2163  0.3612
18732TIP3    H177687   5.218   1.477   0.923 -2.1453  2.6077 -2.0436
18732TIP3    H277688   5.234   1.607   0.999  0.9278  0.4086  1.3853
18733TIP3   OH277689   4.926   0.086   0.709 -0.5964 -0.3788  0.6776
18733TIP3    H177690   4.868   0.014   0.684  1.1850 -1.4299 -0.6339
18733TIP3    H277691   4.873   0.164   0.697 -2.0794 -1.3453  0.5927
18734TIP3   OH277692   0.708   2.908   1.185 -0.6166 -0.5266 -0.6860
18734TIP3    H177693   0.657   2.851   1.127 -0.7923  1.2486 -2.3607
18734TIP3    H277694   0.719   2.989   1.136  0.7530  0.4386  1.0975
18735TIP3   OH277695   2.978   0.351   5.237 -0.0647  0.3361 -0.4608
18735TIP3    H177696   3.002   0.302   5.315 -0.2598 -1.3051 -1.3797
18735TIP3    H277697   2.882   0.351   5.238 -0.0881  1.8796  0.2033
18736TIP3   OH277698   0.813   0.857  14.664 -0.4305  0.6457  0.0280
18736TIP3    H177699   0.734   0.859  14.610 -1.8642  3.1242  2.0167
18736TIP3    H277700   0.826   0.764  14.683 -1.9688  0.0370 -1.5960
18737TIP3   OH277701   2.304   6.500   5.658  0.1074  0.3409 -0.1453
18737TIP3    H177702   2.257   6.539   5.585 -1.4163  0.1696  0.6915
18737TIP3    H277703   2.377   6.453   5.618  1.7937  3.5949 -1.2354
18738TIP3   OH277704   5.170   1.698  10.697 -0.1783 -0.1964 -0.0687
18738TIP3    H177705   5.126   1.626  10.653  0.9359  0.3807 -2.2148
18738TIP3    H277706   5.216   1.745  10.628 -0.6216  2.4175  1.2860
18739TIP3   OH277707   4.487   0.770   5.764  0.2530 -0.1793 -0.5259
18739TIP3    H177708   4.504   0.777   5.858  0.2219 -0.4903 -0.4963
18739TIP3    H277709   4.396   0.742   5.758 -0.4522  2.0004 -0.6961
18740TIP3   OH277710   3.816   1.631   2.956  0.2390  0.3179 -0.0812
18740TIP3    H177711   3.769   1.697   2.906 -0.8099 -1.7881 -2.0481
18740TIP3    H277712   3.750   1.565   2.978  1.4785 -0.7662  0.5830
18741TIP3   OH277713   6.176   4.607   0.426 -0.1732  0.2970 -0.3829
18741TIP3    H177714   6.235   4.663   0.374 -0.8404  1.1163 -0.2813
18741TIP3    H277715   6.235   4.559   0.484  0.3298  2.7293  1.2917
18742TIP3   OH277716   4.586   0.767  13.146  0.2923  0.2545  1.0374
18742TIP3    H177717   4.567   0.853  13.184  1.8880  0.9378  0.3693
18742TIP3    H277718   4.658   0.783  13.085  1.0010 -1.6626  1.3187
18743TIP3   OH277719   2.684   1.579  15.163  0.6597  0.1350  0.0091
18743TIP3    H177720   2.755   1.630  15.123 -0.0119  0.8921 -0.2521
18743TIP3    H277721   2.699   1.490  15.132  1.9003  0.1348  0.5290
18744TIP3   OH277722   4.017   2.571   2.983  0.3916  0.8003  0.3257
18744TIP3    H177723   4.109   2.558   3.007  0.2796 -0.5603  0.0865
18744TIP3    H277724   4.012   2.543   2.891 -0.1197  1.6064  0.0942
18745TIP3   OH277725   4.830   3.810  12.379  0.3074  0.1398 -0.2170
18745TIP3    H177726   4.863   3.744  12.440  0.2548  1.3909  1.2218
18745TIP3    H277727   4.860   3.780  12.293  0.8730 -1.3774  0.4685
18746TIP3   OH277728   6.691   2.744  12.433  0.1851  0.2687  0.8566
18746TIP3    H177729   6.767   2.731  12.377  0.9574 -1.2265  2.1696
18746TIP3    H277730   6.726   2.781  12.514 -0.7375  1.2351  0.8319
18747TIP3   OH277731   3.093   4.075  13.290  0.0609  0.4102 -0.3830
18747TIP3    H177732   3.155   4.028  13.235  1.0991  1.3273 -0.0311
18747TIP3    H277733   3.139   4.154  13.317 -0.6195  0.2666  1.3481
18748TIP3   OH277734   6.479   1.644  11.871  0.1921  0.1128  0.6154
18748TIP3    H177735   6.572   1.633  11.850  0.0055  1.8385 -1.5504
18748TIP3    H277736   6.476   1.647  11.966  2.2719 -0.5274  0.7637
18749TIP3   OH277737   5.718   4.561  12.733  0.0727  0.2507  0.2898
18749TIP3    H177738   5.729   4.467  12.746  1.4823  0.2648 -0.6061
18749TIP3    H277739   5.659   4.568  12.657  0.8326  0.0627 -0.3302
18750TIP3   OH277740   5.072   3.359  14.745  0.4674  0.1096  0.1843
18750TIP3    H177741   5.108   3.446  14.763  0.3484  0.1052  0.4328
18750TIP3    H277742   5.122   3.329  14.668 -0.5724  1.0521 -0.9056
18751TIP3   OH277743   1.692   1.147  11.051 -0.1454  0.0175  0.8272
18751TIP3    H177744   1.659   1.073  11.001 -2.2711  1.0557  0.6032
18751TIP3    H277745   1.782   1.158  11.020 -0.8135 -0.4617 -1.4731
18752TIP3   OH277746   0.742   4.868   2.403 -0.1068 -0.4206 -0.1206
18752TIP3    H177747   0.674   4.905   2.347  0.3351  0.3433 -0.1752
18752TIP3    H277748   0.778   4.795   2.353 -1.9560 -1.8857  0.5782
18753TIP3   OH277749   1.000   0.290   0.694 -0.5294 -0.1050  0.6474
18753TIP3    H177750   1.091   0.260   0.688  0.1126  1.9072 -1.3060
18753TIP3    H277751   0.961   0.264   0.610 -1.5276 -0.1914  1.1190
18754TIP3   OH277752   6.592   5.189   4.804  0.0926 -0.2361  0.0520
18754TIP3    H177753   6.595   5.126   4.876 -0.5829  0.1777  0.4487
18754TIP3    H277754   6.678   5.181   4.762  0.4301 -0.6021  0.7920
18755TIP3   OH277755   2.034   2.509   6.660 -0.3088 -0.0578  0.4044
18755TIP3    H177756   2.071   2.574   6.601 -0.0949 -0.4796  0.0684
18755TIP3    H277757   2.106   2.485   6.718 -1.1700  2.3624  2.7016
18756TIP3   OH277758   3.543   1.571  13.803  0.2341 -0.1468  0.5020
18756TIP3    H177759   3.462   1.582  13.853 -0.1695  0.2732 -0.2339
18756TIP3    H277760   3.552   1.652  13.753  0.3635 -0.7493 -0.4805
18757TIP3   OH277761   4.329   0.631  15.774 -0.0398  0.4992 -0.2609
18757TIP3    H177762   4.296   0.623  15.864 -0.1361 -0.6180 -0.3790
18757TIP3    H277763   4.290   0.711  15.741 -0.8156  0.3958  0.3678
18758TIP3   OH277764   6.709   5.615  13.909  0.1782  0.6777  0.0991
18758TIP3    H177765   6.739   5.696  13.950  1.8959  1.6278 -2.7358
18758TIP3    H277766   6.670   5.643  13.826  1.1125 -1.3550 -1.1141
18759TIP3   OH277767   3.838   1.943  14.816  0.2708  0.8009  0.1600
18759TIP3    H177768   3.866   1.870  14.871  1.1978  0.8261 -0.2558
18759TIP3    H277769   3.830   1.905  14.729 -0.1951  0.9861  0.1214
18760TIP3   OH277770   2.628   2.815  15.479  0.3782  0.3683  0.2975
18760TIP3    H177771   2.557   2.877  15.461  0.4642  0.2946 -0.2964
18760TIP3    H277772   2.684   2.861  15.541  0.2973  0.7823  0.0668
18761TIP3   OH277773   2.147   3.471  12.622 -0.4346 -0.0592 -0.0424
18761TIP3    H177774   2.173   3.553  12.664  1.1780 -0.3687 -0.3512
18761TIP3    H277775   2.228   3.420  12.617 -1.2242 -1.3062 -0.6701
18762TIP3   OH277776   3.646   3.985  12.954  0.3356  0.5805 -0.4229
18762TIP3    H177777   3.706   4.030  12.896  2.6080 -1.4862  0.1534
18762TIP3    H277778   3.702   3.931  13.010 -2.0238 -1.1592  0.4515
18763TIP3   OH277779   2.026   2.133   5.591  0.3344  0.0137 -0.1994
18763TIP3    H177780   1.977   2.197   5.643 -0.7391 -0.8059 -0.1680
18763TIP3    H277781   2.110   2.176   5.572 -0.4925  1.5719 -0.4854
18764TIP3   OH277782   1.713   3.810   2.833 -0.7981  0.6111 -0.7713
18764TIP3    H177783   1.799   3.831   2.797 -0.5009  1.4244  0.3600
18764TIP3    H277784   1.708   3.715   2.829 -0.1839  0.5959 -1.5832
18765TIP3   OH277785   2.874   0.201  12.863 -0.7779  0.2886 -0.3805
18765TIP3    H177786   2.924   0.121  12.845  0.5020  0.6931  1.1142
18765TIP3    H277787   2.882   0.253  12.782 -0.9763 -0.7468 -1.0825
18766TIP3   OH277788   4.935   6.604  14.589  0.3564  0.3817 -0.2592
18766TIP3    H177789   4.948   6.670  14.657  1.1883  1.5314 -1.4767
18766TIP3    H277790   4.881   6.648  14.524  1.2409  0.0092 -1.2698
18767TIP3   OH277791   2.261   0.263  12.348 -0.3023  0.2473 -0.1134
18767TIP3    H177792   2.250   0.297  12.437 -1.3093  2.9663 -1.1619
18767TIP3    H277793   2.355   0.273  12.330  0.3143 -2.2765  1.2723
18768TIP3   OH277794   5.762   3.761   2.456 -0.1896 -0.3725 -0.5314
18768TIP3    H177795   5.716   3.796   2.379 -1.5062 -0.0087  0.3800
18768TIP3    H277796   5.696   3.708   2.501  0.3456  0.0069  0.7283
18769TIP3   OH277797   3.094   6.381  14.472 -0.0652 -0.5949 -0.0900
18769TIP3    H177798   3.090   6.352  14.563  1.7879 -2.5265 -0.5380
18769TIP3    H277799   3.097   6.301  14.421 -1.0680  0.4463 -1.8910
18770TIP3   OH277800   0.581   6.036  15.474 -0.2506 -0.1570 -0.2062
18770TIP3    H177801   0.592   5.986  15.393 -0.3740 -0.9133  0.2293
18770TIP3    H277802   0.573   5.969  15.542 -0.0974  0.4682  0.4393
18771TIP3   OH277803   1.187   5.751  16.273 -0.3329 -0.2054 -0.1129
18771TIP3    H177804   1.196   5.825  16.333 -1.0545 -0.5362  0.4176
18771TIP3    H277805   1.093   5.732  16.273 -0.0104 -1.9425  0.7631
18772TIP3   OH277806   5.512   6.445   1.476 -0.0737  0.4498 -0.1838
18772TIP3    H177807   5.498   6.512   1.542  0.3837 -0.2817  0.6724
18772TIP3    H277808   5.553   6.373   1.523 -0.1465 -0.2602 -1.1774
18773TIP3   OH277809   0.130   2.551   5.382  0.1261  0.3231  0.2625
18773TIP3    H177810   0.083   2.583   5.459 -1.6174  0.8260 -0.9420
18773TIP3    H277811   0.132   2.626   5.322  0.1945 -0.4515 -0.7327
18774TIP3   OH277812   2.033   1.054   1.186 -1.0341 -0.4080  0.5197
18774TIP3    H177813   2.017   0.978   1.242 -0.3941  0.3922  1.8153
18774TIP3    H277814   2.118   1.088   1.214 -1.5768  1.1451  0.3795
18775TIP3   OH277815   2.243   2.456  13.253 -0.2793  0.2734  0.3681
18775TIP3    H177816   2.245   2.393  13.181  0.4723  1.6410 -0.8743
18775TIP3    H277817   2.174   2.424  13.311 -1.0744 -0.7643 -1.0707
18776TIP3   OH277818   1.411   5.230  12.203  0.0192  0.3533 -0.3021
18776TIP3    H177819   1.374   5.317  12.213  0.9151  0.9395 -1.6590
18776TIP3    H277820   1.474   5.239  12.131  1.7385 -0.8979  0.9422
18777TIP3   OH277821   0.829   2.386   2.803 -0.1362 -0.8264  0.2355
18777TIP3    H177822   0.791   2.321   2.862  0.2282 -0.6562  0.6668
18777TIP3    H277823   0.897   2.428   2.855 -0.2880 -0.1798 -0.0819
18778TIP3   OH277824   2.855   4.254  16.714  0.2114 -0.1296  0.3754
18778TIP3    H177825   2.874   4.275  16.623  0.4805 -1.5411  0.0717
18778TIP3    H277826   2.772   4.206  16.710  0.2960 -0.3190  0.8530
18779TIP3   OH277827   5.920   3.301  16.924  0.7953  0.0959 -0.2057
18779TIP3    H177828   5.883   3.340  16.845 -1.0711 -0.5975  0.2654
18779TIP3    H277829   5.932   3.208  16.902  1.3591  0.1260 -0.0384
18780TIP3   OH277830   4.319   1.706  10.791  0.1303  0.3462 -0.1584
18780TIP3    H177831   4.338   1.663  10.875 -1.1277 -2.0362 -1.0067
18780TIP3    H277832   4.355   1.647  10.725  0.0433  1.5897 -1.3578
18781TIP3   OH277833   5.786   4.429   6.557 -0.1540  0.0903 -0.0322
18781TIP3    H177834   5.734   4.505   6.531  0.3872  0.2252 -0.7473
18781TIP3    H277835   5.861   4.431   6.499  0.2737 -0.5351  0.4921
18782TIP3   OH277836   2.545   2.757   0.865 -0.0345  0.6413  0.3576
18782TIP3    H177837   2.463   2.797   0.837 -0.7663 -0.0874  1.3870
18782TIP3    H277838   2.594   2.743   0.784 -0.8413  1.2763 -0.2494
18783TIP3   OH277839   2.112   5.713   2.912 -0.0630  0.1285  0.1268
18783TIP3    H177840   2.101   5.764   2.832 -0.4558  0.6016  0.4742
18783TIP3    H277841   2.052   5.753   2.974 -0.3724 -0.7627  0.4119
18784TIP3   OH277842   5.439   5.465   4.618 -0.0108 -0.4772 -0.4187
18784TIP3    H177843   5.505   5.401   4.646 -1.1174 -1.7694 -0.6838
18784TIP3    H277844   5.418   5.513   4.698  1.3843  0.0975 -0.3679
18785TIP3   OH277845   1.358   5.625   2.687  0.2135  0.2379 -0.4894
18785TIP3    H177846   1.321   5.712   2.672 -0.0694  0.0439 -0.9243
18785TIP3    H277847   1.341   5.608   2.780  0.6534  0.8247 -0.2988
18786TIP3   OH277848   5.366   5.985  14.461 -0.0305 -0.0919 -0.1683
18786TIP3    H177849   5.396   5.969  14.372 -2.5130  0.5583 -1.1916
18786TIP3    H277850   5.286   5.933  14.470  0.4863 -0.6397  1.9251
18787TIP3   OH277851   0.677   1.100   0.581  0.0249 -0.3757  0.6521
18787TIP3    H177852   0.730   1.058   0.514  0.6562  1.5374 -0.1232
18787TIP3    H277853   0.721   1.183   0.598 -1.5613  0.3404  1.5506
18788TIP3   OH277854   0.649   0.711   3.522  0.3514  0.3291 -0.0778
18788TIP3    H177855   0.676   0.624   3.493 -1.7166  0.3070 -2.2667
18788TIP3    H277856   0.583   0.695   3.589 -2.0204 -0.0250 -2.3116
18789TIP3   OH277857   4.102   3.129  15.275 -0.3873 -0.3702 -0.2785
18789TIP3    H177858   4.162   3.128  15.350 -0.2475 -0.2150 -0.3890
18789TIP3    H277859   4.041   3.057  15.293  0.9522 -1.7576 -1.0939
18790TIP3   OH277860   0.272   4.608  13.557 -0.2142 -0.0769 -0.0064
18790TIP3    H177861   0.258   4.631  13.465 -1.2137  0.1387  0.1921
18790TIP3    H277862   0.185   4.593  13.592  0.2542 -1.7872  0.5127
18791TIP3   OH277863   3.112   3.794   3.213 -0.7219  0.5261 -0.7077
18791TIP3    H177864   3.187   3.735   3.212 -0.0721  1.2625  0.8968
18791TIP3    H277865   3.131   3.858   3.145  0.2154  0.8337 -0.1703
18792TIP3   OH277866   6.637   2.318   5.068 -0.5831 -0.4368 -0.1699
18792TIP3    H177867   6.623   2.342   5.160 -1.6142  3.2210 -1.1210
18792TIP3    H277868   6.560   2.266   5.045 -0.9202 -0.3349  0.6863
18793TIP3   OH277869   3.428   4.319   0.689 -0.2540 -0.1094 -0.5713
18793TIP3    H177870   3.483   4.322   0.610  1.2368 -1.0917  0.3798
18793TIP3    H277871   3.406   4.226   0.699  1.5126 -0.3819  1.4085
18794TIP3   OH277872   6.674   4.213  11.200  0.3707 -0.3909  0.4743
18794TIP3    H177873   6.644   4.296  11.163 -0.6524 -0.7351  0.5061
18794TIP3    H277874   6.657   4.148  11.132 -1.0052 -0.9384  1.3078
18795TIP3   OH277875   1.218   3.369  16.756 -0.0443 -0.5698  0.2054
18795TIP3    H177876   1.249   3.416  16.679 -0.2558  0.7925  0.9119
18795TIP3    H277877   1.140   3.322  16.726 -0.6797  0.6960 -0.2306
18796TIP3   OH277878   6.735   0.012  13.651  0.2865  0.0802 -0.1255
18796TIP3    H177879   6.809   0.039  13.705  0.4003  1.2709 -0.8307
18796TIP3    H277880   6.757   0.043  13.563 -0.5210 -0.5807 -0.5735
18797TIP3   OH277881   0.363   2.279   4.710  0.4482 -0.4148 -0.3650
18797TIP3    H177882   0.325   2.338   4.645  0.7114 -1.3559 -1.4025
18797TIP3    H277883   0.333   2.192   4.684  0.1529 -0.7737  1.0730
18798TIP3   OH277884   2.537   6.037   3.071  0.1751 -0.3890  0.2726
18798TIP3    H177885   2.449   6.047   3.034  0.1654  0.3410  0.4861
18798TIP3    H277886   2.594   6.084   3.011  0.2725  0.0717  0.7161
18799TIP3   OH277887   0.392   1.840   1.004  0.1555  0.5049  0.2048
18799TIP3    H177888   0.458   1.909   1.002  1.3094 -0.5457  0.8163
18799TIP3    H277889   0.309   1.887   1.009  0.8545  1.8515 -0.3575
18800TIP3   OH277890   2.197   1.405  17.077  0.1681  0.0564 -0.8379
18800TIP3    H177891   2.127   1.436  17.020 -0.9774 -0.5894  0.1737
18800TIP3    H277892   2.200   1.310  17.062  0.2501 -0.0369 -0.2404
18801TIP3   OH277893   4.979   6.649  13.995 -0.7520 -0.4509 -0.2965
18801TIP3    H177894   4.923   6.712  14.040 -0.2904 -0.6149  0.5119
18801TIP3    H277895   4.927   6.569  13.989 -1.3988  0.0367 -1.4619
18802TIP3   OH277896   2.371   5.882  12.813  0.1101 -0.9458 -0.3934
18802TIP3    H177897   2.395   5.972  12.796 -0.5592 -0.5245  0.7647
18802TIP3    H277898   2.293   5.888  12.869 -0.9075 -2.2278 -1.5842
18803TIP3   OH277899   1.207   1.895  15.923 -0.4573  0.3282  0.0666
18803TIP3    H177900   1.292   1.851  15.921  0.3195  1.6997  1.4709
18803TIP3    H277901   1.226   1.987  15.906 -1.6057  0.7205  0.7470
18804TIP3   OH277902   5.442   1.147  12.921 -0.2639  0.0785 -0.3553
18804TIP3    H177903   5.437   1.172  12.829 -1.0755  0.1263 -0.3121
18804TIP3    H277904   5.520   1.191  12.954  1.8953 -2.4794 -1.7512
18805TIP3   OH277905   2.917   2.117  11.189 -0.2229 -1.0755  0.1865
18805TIP3    H177906   2.835   2.068  11.188 -0.2995 -0.9410 -0.3070
18805TIP3    H277907   2.898   2.196  11.138  0.2176 -1.0568  0.0495
18806TIP3   OH277908   3.954   3.476   5.007  0.0578  0.1705  0.2667
18806TIP3    H177909   3.877   3.487   4.951 -0.7018 -1.0995  1.0096
18806TIP3    H277910   3.923   3.497   5.095  0.3322 -1.0655  0.6855
18807TIP3   OH277911   5.923   4.230   1.900  0.1532 -0.3704 -0.1704
18807TIP3    H177912   5.945   4.194   1.986  0.2108  2.2077  1.0007
18807TIP3    H277913   5.876   4.159   1.856 -1.7770 -1.1478  2.8008
18808TIP3   OH277914   2.783   5.815   2.970  0.1373 -0.2575  0.0179
18808TIP3    H177915   2.839   5.782   3.040 -0.3891  1.4354  1.3151
18808TIP3    H277916   2.836   5.882   2.926 -0.0697 -0.2681 -0.2516
18809TIP3   OH277917   0.430   0.743  12.600  0.0944 -0.5024  0.3685
18809TIP3    H177918   0.499   0.774  12.659  0.9682 -1.7536  0.0433
18809TIP3    H277919   0.468   0.667  12.557 -1.2678 -0.8212 -0.3166
18810TIP3   OH277920   4.031   5.177   0.699  0.5961  0.3383 -0.2122
18810TIP3    H177921   3.989   5.099   0.663  0.5496  0.0226  0.5047
18810TIP3    H277922   4.029   5.164   0.794  0.5351  1.2368 -0.0721
18811TIP3   OH277923   4.466   0.459  13.461 -0.2963 -0.3572 -0.2321
18811TIP3    H177924   4.386   0.437  13.508 -1.4085  0.6555 -1.5758
18811TIP3    H277925   4.438   0.471  13.370  0.8957  2.4620 -0.3413
18812TIP3   OH277926   4.941   5.680   0.487 -0.5036  0.3656 -0.1848
18812TIP3    H177927   4.979   5.593   0.471 -0.5030  0.0193  1.5164
18812TIP3    H277928   4.848   5.663   0.502 -0.5587  0.7002 -0.1501
18813TIP3   OH277929   0.990   2.226   5.719 -0.4606 -0.5221  0.0775
18813TIP3    H177930   0.995   2.321   5.704 -2.7544 -0.6617 -2.2164
18813TIP3    H277931   1.052   2.189   5.657 -0.8810 -0.5783 -0.3145
18814TIP3   OH277932   3.138   4.521   1.660 -0.0893 -0.5498 -0.0046
18814TIP3    H177933   3.195   4.457   1.615  1.6600  0.4875  0.6325
18814TIP3    H277934   3.194   4.598   1.672 -1.5560  0.4048  0.9739
18815TIP3   OH277935   2.249   4.121   1.751  0.0982  0.1766  0.3586
18815TIP3    H177936   2.253   4.068   1.672  0.0541 -1.1154  1.1880
18815TIP3    H277937   2.276   4.061   1.821 -0.5079  1.0981  1.4104
18816TIP3   OH277938   1.894   2.743  12.081 -0.0434 -0.5735  0.5832
18816TIP3    H177939   1.866   2.661  12.123 -0.0975 -0.4834  0.7226
18816TIP3    H277940   1.986   2.753  12.107  0.3502 -1.2527 -0.4686
18817TIP3   OH277941   2.077   0.529   0.916 -0.3107  0.3606  0.7253
18817TIP3    H177942   2.100   0.459   0.977 -1.6546  0.2843  1.1806
18817TIP3    H277943   2.143   0.524   0.847  0.6762 -0.1614  1.6908
18818TIP3   OH277944   3.068   6.711  11.264  0.0827  0.3745 -0.2354
18818TIP3    H177945   3.061   6.626  11.307 -0.4464  0.9037  0.7404
18818TIP3    H277946   3.161   6.719  11.242  0.1282 -0.4706 -0.3798
18819TIP3   OH277947   2.491   5.873  13.296 -0.0761 -0.7900 -0.7682
18819TIP3    H177948   2.536   5.844  13.376  0.8617  1.7579 -0.2980
18819TIP3    H277949   2.561   5.895  13.235 -0.7381  0.3482 -1.1367
18820TIP3   OH277950   4.397   5.414  11.702 -0.0680  0.1910 -0.4669
18820TIP3    H177951   4.387   5.319  11.715 -0.1370  0.1357 -0.9045
18820TIP3    H277952   4.484   5.434  11.737 -0.3302  0.0814  0.2437
18821TIP3   OH277953   1.937   2.655   1.755  0.1398 -0.3498  0.5799
18821TIP3    H177954   1.908   2.706   1.679 -0.5478 -2.5505 -0.7153
18821TIP3    H277955   2.017   2.611   1.725  1.0532  0.3859  1.8675
18822TIP3   OH277956   4.401   1.532   4.260 -0.6414  0.3270  0.6395
18822TIP3    H177957   4.482   1.576   4.285 -0.7423  0.7971  0.1580
18822TIP3    H277958   4.425   1.476   4.186 -0.4217 -0.7831  1.5224
18823TIP3   OH277959   0.718   5.850   6.087 -0.6249  0.4562 -0.9090
18823TIP3    H177960   0.673   5.773   6.053  1.5205 -1.1465 -0.3727
18823TIP3    H277961   0.690   5.922   6.030  0.5812 -1.5457 -4.3023
18824TIP3   OH277962   0.613   3.728   6.412  0.4946  0.5331 -0.1265
18824TIP3    H177963   0.642   3.761   6.497 -0.6482 -0.0987  0.5338
18824TIP3    H277964   0.695   3.711   6.365  1.2518 -1.1033  1.6263
18825TIP3   OH277965   3.507   3.405  13.116 -0.0026 -0.2745  0.1118
18825TIP3    H177966   3.512   3.491  13.158  2.9179 -0.0299 -0.5337
18825TIP3    H277967   3.457   3.421  13.035  1.3487  1.0899 -0.5005
18826TIP3   OH277968   2.791   1.073  16.918  0.5378  0.2154  0.0384
18826TIP3    H177969   2.715   1.106  16.965 -0.2276  1.5930 -2.0279
18826TIP3    H277970   2.860   1.136  16.937  0.9483 -0.5506  1.1979
18827TIP3   OH277971   0.658   0.199  11.507  0.7697  0.8325 -0.0445
18827TIP3    H177972   0.705   0.257  11.567  2.2431  1.4373 -1.6877
18827TIP3    H277973   0.720   0.184  11.435 -0.1575 -1.5043 -0.4579
18828TIP3   OH277974   3.099   5.626   3.949  0.0288  0.2933 -0.1269
18828TIP3    H177975   3.029   5.664   3.895 -0.4504  0.8745  0.8708
18828TIP3    H277976   3.094   5.675   4.031  1.6051  0.3301 -0.0293
18829TIP3   OH277977   1.738   2.801   3.902  0.0219  0.0644  0.0533
18829TIP3    H177978   1.676   2.789   3.831 -1.0408 -1.3635  1.1635
18829TIP3    H277979   1.710   2.882   3.946 -0.6364 -0.1963  0.1196
18830TIP3   OH277980   2.787   4.241  14.788  0.0919 -0.2339 -0.4558
18830TIP3    H177981   2.735   4.236  14.708 -3.6562 -1.4161  1.7904
18830TIP3    H277982   2.841   4.319  14.777 -2.5080  1.4099 -2.9421
18831TIP3   OH277983   1.625   3.059  13.477  0.2959 -0.5097 -0.1442
18831TIP3    H177984   1.591   3.133  13.428 -0.7671  0.5834  2.1177
18831TIP3    H277985   1.548   3.021  13.520  1.3719 -0.2721  2.1228
18832TIP3   OH277986   2.129   3.328  16.522  0.9023  0.8271 -0.6135
18832TIP3    H177987   2.185   3.305  16.596  1.4665  1.8688 -0.6897
18832TIP3    H277988   2.111   3.245  16.479 -0.0992  0.0958  1.1293
18833TIP3   OH277989   5.357   5.650  14.015 -0.3219 -0.0312  0.2066
18833TIP3    H177990   5.293   5.718  14.035 -1.6095 -0.3016 -2.4834
18833TIP3    H277991   5.415   5.689  13.950 -0.2975 -1.0623 -0.4227
18834TIP3   OH277992   2.092   1.709  13.870  0.1537 -0.1545  0.0800
18834TIP3    H177993   2.072   1.795  13.834  0.0041  0.1678  0.9059
18834TIP3    H277994   2.021   1.653  13.838 -1.0500  0.5481  1.3776
18835TIP3   OH277995   2.448   2.795   6.093  0.7968 -0.3722 -0.0604
18835TIP3    H177996   2.472   2.856   6.023  0.7977  0.8758  0.9922
18835TIP3    H277997   2.432   2.712   6.048 -0.6251  0.7377 -1.7199
18836TIP3   OH277998   0.177   3.227   0.691  0.2882  0.0204 -0.7568
18836TIP3    H177999   0.222   3.251   0.772  1.4627 -1.4043 -0.9524
18836TIP3    H278000   0.247   3.223   0.626 -0.3188 -0.9347 -1.3604
18837TIP3   OH278001   4.155   0.581  12.962  0.2052  0.2178 -0.1623
18837TIP3    H178002   4.101   0.504  12.942  1.2169 -0.5245 -0.1252
18837TIP3    H278003   4.092   0.648  12.987 -0.6444 -0.9188  0.8683
18838TIP3   OH278004   3.584   5.623  13.674  0.2926 -0.0144 -0.4886
18838TIP3    H178005   3.589   5.613  13.769  0.0126  1.4953 -0.2898
18838TIP3    H278006   3.671   5.654  13.648  0.2698 -0.1154 -0.6926
18839TIP3   OH278007   3.443   3.866  15.617  0.1486 -0.4566  0.0315
18839TIP3    H178008   3.494   3.890  15.539 -1.9293 -1.1483 -1.6284
18839TIP3    H278009   3.475   3.925  15.685  1.8798  0.3414 -1.3777
18840TIP3   OH278010   3.386   5.148  10.847  0.3402  0.0312 -0.3011
18840TIP3    H178011   3.469   5.122  10.806  1.3295 -0.7269  1.9953
18840TIP3    H278012   3.406   5.232  10.889 -0.0728 -0.1271  0.2181
18841TIP3   OH278013   1.599   2.241   3.503 -0.6454  0.0065  0.6267
18841TIP3    H178014   1.553   2.162   3.477 -0.4196  0.6174 -1.8596
18841TIP3    H278015   1.679   2.209   3.545 -1.6102 -1.0367  1.7523
18842TIP3   OH278016   1.353   0.101   1.704  0.1588  0.1946 -0.5822
18842TIP3    H178017   1.374   0.008   1.716 -1.2348  0.1358  2.0734
18842TIP3    H278018   1.260   0.102   1.683  0.1377  0.9700 -0.4702
18843TIP3   OH278019   4.537   3.438  13.441 -0.1987  0.1728 -0.2138
18843TIP3    H178020   4.599   3.481  13.382  0.4088  0.4751  0.6256
18843TIP3    H278021   4.491   3.376  13.385 -0.3093  1.1170 -1.2120
18844TIP3   OH278022   4.882   2.836   0.834  0.3296 -0.2924  0.5043
18844TIP3    H178023   4.815   2.900   0.858  0.2362 -0.0337 -0.4174
18844TIP3    H278024   4.836   2.752   0.837 -0.4347  0.0091 -1.4506
18845TIP3   OH278025   6.503   0.345   3.746  0.2425 -0.1521 -0.0217
18845TIP3    H178026   6.559   0.267   3.743 -0.9949 -1.0713  0.0124
18845TIP3    H278027   6.551   0.407   3.800  1.2392 -0.9015 -0.0265
18846TIP3   OH278028   1.313   4.984   1.149  0.5311 -0.2615  0.7368
18846TIP3    H178029   1.374   4.929   1.100  2.6282  0.4239  2.4196
18846TIP3    H278030   1.337   4.971   1.240 -1.3913  0.6451  1.4287
18847TIP3   OH278031   5.689   1.062  17.088  0.3076 -0.7241 -0.0452
18847TIP3    H178032   5.669   1.149  17.055  0.1118 -1.2202 -1.2949
18847TIP3    H278033   5.783   1.064  17.107  0.4201 -0.4222 -0.6351
18848TIP3   OH278034   2.310   3.338   0.764  0.0160 -0.5078 -0.0343
18848TIP3    H178035   2.256   3.360   0.688  0.3632 -2.3907 -0.8851
18848TIP3    H278036   2.254   3.282   0.817 -0.5248  1.4480  1.6018
18849TIP3   OH278037   0.641   6.221  11.779 -0.2223 -0.1892 -0.0589
18849TIP3    H178038   0.705   6.156  11.751 -1.1823 -0.9783 -0.4719
18849TIP3    H278039   0.670   6.302  11.736  0.0221 -0.7195 -0.9336
18850TIP3   OH278040   1.659   4.105   3.869  0.8124  0.6766 -0.2117
18850TIP3    H178041   1.650   4.198   3.892  0.5405 -0.0542  3.0345
18850TIP3    H278042   1.571   4.078   3.843 -0.0122  0.5834  2.3594
18851TIP3   OH278043   0.282   1.274  17.268 -0.5345  0.1708  0.1152
18851TIP3    H178044   0.246   1.348  17.316  1.5092  1.4316 -0.1870
18851TIP3    H278045   0.313   1.312  17.186 -3.3029 -1.7939 -2.0465
18852TIP3   OH278046   6.566   2.401  12.048  0.8891  0.3602  0.3573
18852TIP3    H178047   6.570   2.306  12.059 -1.0945  0.2139  0.0735
18852TIP3    H278048   6.543   2.413  11.956  1.1961  1.1353  0.3791
18853TIP3   OH278049   5.333   5.191   2.023  0.8077 -0.0025 -0.5958
18853TIP3    H178050   5.418   5.173   2.064  0.2335 -2.3918 -0.2900
18853TIP3    H278051   5.289   5.251   2.084  2.2714  1.3626 -0.8184
18854TIP3   OH278052   4.952   2.165   5.338  0.6454 -0.6576 -0.2446
18854TIP3    H178053   5.013   2.214   5.394 -0.2564 -1.7049  1.7519
18854TIP3    H278054   5.001   2.149   5.258  1.9805  0.9772  0.1861
18855TIP3   OH278055   4.466   2.648  11.634  0.4637 -0.0033 -0.0011
18855TIP3    H178056   4.468   2.573  11.574  0.9652 -0.1323  0.1717
18855TIP3    H278057   4.508   2.719  11.585  0.9667 -0.1365  0.2213
18856TIP3   OH278058   0.846   1.587  16.223  0.4956 -0.5159  0.0728
18856TIP3    H178059   0.849   1.594  16.318  0.2432 -0.2160  0.0603
18856TIP3    H278060   0.785   1.516  16.206 -0.2701  0.1124  0.1224
18857TIP3   OH278061   6.241   5.635  15.210 -0.2452 -0.2297  0.0309
18857TIP3    H178062   6.150   5.654  15.232 -0.2102 -1.1385  1.0306
18857TIP3    H278063   6.245   5.540  15.201  0.3849 -0.1120 -1.1210
18858TIP3   OH278064   3.726   5.338  13.944 -0.4303  0.6229  0.0496
18858TIP3    H178065   3.692   5.396  14.013  0.9635 -0.6125  1.8807
18858TIP3    H278066   3.821   5.349  13.948 -0.1869 -1.0868 -0.1333
18859TIP3   OH278067   3.773   4.154   1.334  0.1439  0.3434 -0.4999
18859TIP3    H178068   3.849   4.098   1.354 -0.3674 -0.3121 -0.3561
18859TIP3    H278069   3.805   4.243   1.349  0.4912  0.0123  0.9121
18860TIP3   OH278070   4.726   1.463   3.620  0.9169  0.2210 -0.3817
18860TIP3    H178071   4.758   1.455   3.530  1.3008  1.6259 -0.3822
18860TIP3    H278072   4.798   1.429   3.673  1.6550  1.5671 -0.4927
18861TIP3   OH278073   6.575   5.199  15.753 -0.2067  0.0377 -0.0869
18861TIP3    H178074   6.567   5.292  15.773  1.8861  0.2062  0.1969
18861TIP3    H278075   6.578   5.195  15.658  0.4314  0.3538 -0.0861
18862TIP3   OH278076   6.201   5.958   6.552  0.2662  0.1770  0.0240
18862TIP3    H178077   6.257   6.011   6.609 -0.1266  0.5392  0.0811
18862TIP3    H278078   6.258   5.887   6.522  0.6249  0.2748  0.4512
18863TIP3   OH278079   4.253   5.819  16.006 -0.2374  0.3444 -0.3579
18863TIP3    H178080   4.283   5.810  15.915  0.9297 -0.3294  0.0731
18863TIP3    H278081   4.273   5.909  16.028  0.2425  0.2794 -0.5129
18864TIP3   OH278082   1.643   0.306  17.140 -0.0855 -0.2546  0.0521
18864TIP3    H178083   1.621   0.387  17.185  0.6535 -0.7897  1.4201
18864TIP3    H278084   1.738   0.309  17.129 -0.3312  0.5757 -2.9539
18865TIP3   OH278085   4.921   0.019  14.992  0.4713 -0.5538 -0.1940
18865TIP3    H178086   4.826   0.028  14.985  0.7835  3.6742 -1.4461
18865TIP3    H278087   4.940   0.042  15.083  0.3975  0.6166 -0.4621
18866TIP3   OH278088   3.026   1.019   2.913 -0.7342  0.2317 -0.4989
18866TIP3    H178089   3.092   1.086   2.930  1.1463 -1.0301 -2.2808
18866TIP3    H278090   3.008   0.981   2.999 -0.4838  1.7997  0.2764
18867TIP3   OH278091   6.615   4.935   5.823 -0.3530 -0.8773  0.6191
18867TIP3    H178092   6.558   4.985   5.881  0.3384  0.1328  0.4627
18867TIP3    H278093   6.576   4.945   5.736  1.3957  2.0696  0.0259
18868TIP3   OH278094   0.307   1.177  16.454 -0.3079  0.2653 -0.3629
18868TIP3    H178095   0.385   1.196  16.507  0.7939  1.8187 -2.3882
18868TIP3    H278096   0.252   1.255  16.464  0.0087  0.6608 -1.6438
18869TIP3   OH278097   4.625   2.759   6.091  0.1776  0.2951 -0.1959
18869TIP3    H178098   4.597   2.674   6.056  0.6456 -0.1442  0.4651
18869TIP3    H278099   4.676   2.798   6.021 -0.4021  0.2135 -0.6631
18870TIP3   OH278100   5.763   6.071  13.821 -0.4709  0.4497 -0.1619
18870TIP3    H178101   5.697   6.138  13.798 -0.9718  0.8369  2.2024
18870TIP3    H278102   5.760   6.010  13.747 -1.4146  1.9753 -1.4754
18871TIP3   OH278103   3.644   5.637   5.425  0.2855  0.0902 -0.0122
18871TIP3    H178104   3.602   5.558   5.389 -0.9171 -0.2469  1.9592
18871TIP3    H278105   3.698   5.604   5.497  0.3962  0.9874  0.3209
18872TIP3   OH278106   5.808   5.046  16.710  0.5959 -0.0660 -0.2274
18872TIP3    H178107   5.743   5.041  16.641 -2.8395 -2.7627  2.8094
18872TIP3    H278108   5.872   4.978  16.689 -0.5536 -1.0361 -0.6552
18873TIP3   OH278109   3.262   4.041  11.505 -0.2390 -0.0740  0.3017
18873TIP3    H178110   3.326   4.081  11.565 -0.3075  0.8382 -0.2130
18873TIP3    H278111   3.288   4.072  11.419  0.5744 -2.3176 -0.3164
18874TIP3   OH278112   6.416   3.151  12.028  0.1785  0.0651  0.2102
18874TIP3    H178113   6.386   3.240  12.006 -0.7854  0.0813  1.4396
18874TIP3    H278114   6.481   3.131  11.961 -0.3793  1.2651 -0.7573
18875TIP3   OH278115   3.041   0.329  16.030  0.5240 -0.0838 -0.8690
18875TIP3    H178116   3.086   0.298  15.951  0.4715 -0.2184 -0.8459
18875TIP3    H278117   3.062   0.423  16.034  3.4696 -0.7068  0.9271
18876TIP3   OH278118   4.762   5.902   4.606  0.0689  0.4515  0.2956
18876TIP3    H178119   4.809   5.826   4.574 -0.1410 -0.3947  1.8816
18876TIP3    H278120   4.823   5.944   4.667  0.2237  1.6326 -0.6404
18877TIP3   OH278121   3.430   1.165  14.222 -0.2920 -0.1379 -0.3713
18877TIP3    H178122   3.447   1.256  14.197 -1.9269  0.0646 -0.8654
18877TIP3    H278123   3.372   1.171  14.298  0.9421 -0.7952  0.6764
18878TIP3   OH278124   5.958   1.552   3.979  0.3633 -0.1252 -0.1527
18878TIP3    H178125   6.030   1.599   3.937  1.2880  0.6891  2.1786
18878TIP3    H278126   5.987   1.461   3.982 -0.8737 -0.7991 -3.5005
18879TIP3   OH278127   4.426   3.658  14.466  0.2361  0.6369 -0.7940
18879TIP3    H178128   4.490   3.652  14.537 -0.8474 -1.2794  0.1330
18879TIP3    H278129   4.445   3.583  14.410 -0.9609  0.1909 -0.6526
18880TIP3   OH278130   4.813   4.787  16.790  0.7694 -0.5096  0.4585
18880TIP3    H178131   4.742   4.753  16.737 -0.3837 -0.7719  2.0884
18880TIP3    H278132   4.792   4.879  16.804  1.0541 -0.4449  0.4724
18881TIP3   OH278133   5.990   6.725   0.240 -0.7530 -0.0715  0.2871
18881TIP3    H178134   5.898   6.698   0.243 -1.0030  0.4622 -1.4381
18881TIP3    H278135   6.024   6.684   0.160  1.0110 -1.6714  1.7704
18882TIP3   OH278136   1.468   4.197  14.720  0.0158  0.4544  0.3263
18882TIP3    H178137   1.418   4.256  14.777 -0.8525 -0.1608  0.2205
18882TIP3    H278138   1.543   4.170  14.773 -0.4063  0.4491  0.9302
18883TIP3   OH278139   1.966   6.733   6.030 -0.0977  0.4044  0.6676
18883TIP3    H178140   2.016   6.659   5.996  0.1151  0.3693  1.0446
18883TIP3    H278141   1.934   6.703   6.115 -0.8912  0.3744  0.3676
18884TIP3   OH278142   0.471   6.619  15.837  0.3365  0.3355  0.4956
18884TIP3    H178143   0.425   6.588  15.760  0.7867  0.9412 -0.0316
18884TIP3    H278144   0.545   6.559  15.848  1.1339  1.0897 -0.4462
18885TIP3   OH278145   6.304   6.446  16.097  0.0615  0.0588 -0.7654
18885TIP3    H178146   6.331   6.387  16.167 -0.2401  1.7680  0.8500
18885TIP3    H278147   6.385   6.483  16.063  0.0887  1.8691  1.1124
18886TIP3   OH278148   3.550   1.469   1.780  0.1349 -0.3582 -0.5271
18886TIP3    H178149   3.628   1.485   1.727 -0.8160 -1.9925 -2.5639
18886TIP3    H278150   3.511   1.390   1.743 -2.1388  0.0135  0.8400
18887TIP3   OH278151   2.430   2.046  15.141  0.3052  0.4330 -0.7990
18887TIP3    H178152   2.424   1.950  15.145  0.0433  0.5007  0.8492
18887TIP3    H278153   2.340   2.076  15.140  0.3825  0.6973 -0.1142
18888TIP3   OH278154   2.291   4.962  13.406  0.1848  0.0709  0.0372
18888TIP3    H178155   2.379   4.975  13.442 -0.4302  1.3991  1.1771
18888TIP3    H278156   2.234   4.962  13.483 -0.8687 -0.2886 -0.7263
18889TIP3   OH278157   1.855   2.319   5.679  0.2377 -0.0952 -1.0939
18889TIP3    H178158   1.899   2.386   5.627  2.3679 -0.3979  0.1914
18889TIP3    H278159   1.776   2.299   5.630  0.7104  1.6601 -2.7105
18890TIP3   OH278160   5.281   5.452  16.667 -0.6528 -0.5364 -0.4368
18890TIP3    H178161   5.302   5.519  16.602 -1.7176 -0.3734 -0.6171
18890TIP3    H278162   5.364   5.438  16.713 -0.2403  0.3918 -0.8606
18891TIP3   OH278163   4.521   0.773  16.160  0.0909  0.0429  0.4012
18891TIP3    H178164   4.570   0.852  16.180  0.5495  0.0662 -0.7281
18891TIP3    H278165   4.519   0.770  16.064 -0.3428 -1.0494  0.4287
18892TIP3   OH278166   4.870   4.625  17.035 -0.3017  0.2492 -0.0087
18892TIP3    H178167   4.803   4.604  17.100 -0.3629 -0.7777 -0.3806
18892TIP3    H278168   4.822   4.669  16.964 -0.4426  0.2285  0.0742
18893TIP3   OH278169   3.942   4.337   0.802 -0.6644  0.4391 -0.2169
18893TIP3    H178170   4.007   4.378   0.745 -1.9766  3.0829  0.0307
18893TIP3    H278171   3.869   4.399   0.804 -2.2186 -1.3014  1.4032
18894TIP3   OH278172   3.364   1.640   1.183 -0.3003  0.1861  0.0090
18894TIP3    H178173   3.325   1.699   1.119  1.2890  0.6306 -0.6001
18894TIP3    H278174   3.424   1.696   1.233 -0.6734 -0.3921  1.1367
18895TIP3   OH278175   6.552   5.172  16.030  0.3339  0.4599 -0.1977
18895TIP3    H178176   6.566   5.164  15.936 -0.9211 -2.4846 -0.2419
18895TIP3    H278177   6.635   5.142  16.069  0.8138  1.5743 -0.3104
18896TIP3   OH278178   1.935   1.581   1.781  0.4430 -0.2270  0.0982
18896TIP3    H178179   1.992   1.548   1.711 -0.1943 -0.2745 -0.4075
18896TIP3    H278180   1.866   1.515   1.788  0.6433 -0.3599  0.9692
18897TIP3   OH278181   5.297   4.535  13.766 -0.3557  0.2630 -0.5090
18897TIP3    H178182   5.202   4.532  13.774 -0.2396  1.1289  1.8247
18897TIP3    H278183   5.316   4.624  13.737 -0.1750  1.2975  2.4192
18898TIP3   OH278184   4.711   6.725  13.794 -0.2324  0.6199 -0.6501
18898TIP3    H178185   4.792   6.673  13.793 -1.0993 -0.7594 -0.3973
18898TIP3    H278186   4.710   6.767  13.708 -0.1924 -0.8733 -1.4179
18899TIP3   OH278187   2.288   6.132   2.922 -0.1356  0.2377  0.2919
18899TIP3    H178188   2.247   6.210   2.961 -0.3528  1.0183 -1.3960
18899TIP3    H278189   2.216   6.084   2.882 -0.0533 -1.0590  1.6019
18900TIP3   OH278190   0.053   5.213  10.391  0.9581  0.5965  0.1956
18900TIP3    H178191   0.146   5.189  10.391  0.9716  0.5939  1.5180
18900TIP3    H278192   0.008   5.133  10.417  0.6850  0.9217  0.7264
18901TIP3   OH278193   6.618   1.527  13.602  0.4869  0.3247 -0.5747
18901TIP3    H178194   6.679   1.601  13.601 -0.4139  1.0699 -0.6462
18901TIP3    H278195   6.535   1.563  13.573 -0.1697 -0.5500  0.1714
18902TIP3   OH278196   6.457   5.309  11.814  0.5408 -0.3583 -0.1032
18902TIP3    H178197   6.553   5.304  11.809  0.5877  1.1544 -1.5113
18902TIP3    H278198   6.430   5.337  11.727 -1.1457 -0.0264  0.4862
18903TIP3   OH278199   5.268   5.408   2.190 -0.0512  0.0236  0.8487
18903TIP3    H178200   5.199   5.448   2.137  0.6823 -0.3196 -0.3863
18903TIP3    H278201   5.259   5.451   2.275 -2.0465 -0.3101  0.8636
18904TIP3   OH278202   4.030   5.367   5.591 -0.3235  0.0672 -0.1924
18904TIP3    H178203   4.034   5.292   5.650 -0.1059 -2.3717 -3.0775
18904TIP3    H278204   3.966   5.343   5.525 -0.4104  2.5644 -1.1344
18905TIP3   OH278205   5.296   6.291   5.850  0.6896  0.0988 -1.3193
18905TIP3    H178206   5.316   6.264   5.940 -0.1537 -0.8985 -1.4076
18905TIP3    H278207   5.370   6.260   5.798  0.4011 -0.8093 -1.2031
18906TIP3   OH278208   0.425   1.379  16.261 -0.5333 -0.3852  0.5999
18906TIP3    H178209   0.414   1.301  16.315 -2.9799 -0.2699  0.3586
18906TIP3    H278210   0.378   1.447  16.308  1.1016  0.8642  0.5208
18907TIP3   OH278211   3.332   3.624   3.206 -0.0399 -0.0574 -0.4710
18907TIP3    H178212   3.341   3.640   3.300  0.4343 -2.7092  0.0106
18907TIP3    H278213   3.419   3.642   3.171 -0.3449  1.4211 -0.5195
18908TIP3   OH278214   3.887   5.807   2.984  0.3649  0.8654 -0.2948
18908TIP3    H178215   3.861   5.760   2.905 -0.3773  0.2748  0.2866
18908TIP3    H278216   3.861   5.749   3.056 -1.6502  2.6319  0.5037
18909TIP3   OH278217   1.468   5.947   1.073  0.0287 -0.4649  0.1471
18909TIP3    H178218   1.535   6.009   1.045  0.9372 -0.8061  1.4743
18909TIP3    H278219   1.504   5.907   1.152 -2.5068  0.6776  2.0163
18910TIP3   OH278220   1.274   3.239  16.261  0.0309 -0.2933 -0.2958
18910TIP3    H178221   1.325   3.320  16.268  0.6727 -0.6220 -1.0229
18910TIP3    H278222   1.236   3.243  16.173 -4.1376  1.6376  1.3249
18911TIP3   OH278223   0.032   1.984  12.441  0.3030  0.6950  0.1948
18911TIP3    H178224  -0.012   1.998  12.525  0.2655 -1.9815  0.7006
18911TIP3    H278225   0.121   1.959  12.465  0.3409  0.0724 -0.5622
18912TIP3   OH278226   1.377   5.743   4.443  0.0880  0.2240 -0.2455
18912TIP3    H178227   1.287   5.771   4.458  0.1534  0.7040 -0.7186
18912TIP3    H278228   1.369   5.659   4.398 -0.1347  0.5296 -0.7882
18913TIP3   OH278229   4.536   3.495   2.004 -0.0890  0.7834  0.0432
18913TIP3    H178230   4.613   3.510   1.950 -0.0477 -0.2587 -0.2101
18913TIP3    H278231   4.570   3.457   2.085 -0.1416  2.3957  0.8703
18914TIP3   OH278232   4.659   5.375  16.089  0.2820 -0.1365 -0.0070
18914TIP3    H178233   4.706   5.355  16.170  0.7927 -0.9827 -0.5072
18914TIP3    H278234   4.702   5.454  16.056  1.2510 -0.8063 -0.3713
18915TIP3   OH278235   2.547   3.858  14.119 -0.4056  0.2175 -0.0657
18915TIP3    H178236   2.556   3.901  14.204  0.2148  1.6267 -0.8105
18915TIP3    H278237   2.532   3.930  14.058  0.3078 -0.6688 -1.3174
18916TIP3   OH278238   2.411   2.466   6.643 -0.1505  0.6860  0.8087
18916TIP3    H178239   2.489   2.423   6.609 -0.4823  0.5098  0.2534
18916TIP3    H278240   2.372   2.509   6.566 -2.0065 -1.3610  0.5094
18917TIP3   OH278241   6.299   4.310  12.352 -0.2697 -0.3066  0.2027
18917TIP3    H178242   6.359   4.258  12.405  1.7216  1.5072 -0.1280
18917TIP3    H278243   6.280   4.255  12.276 -0.5174 -1.6310  1.2005
18918TIP3   OH278244   0.062   0.696   4.024  0.7805 -0.0278  0.6523
18918TIP3    H178245   0.018   0.746   4.092 -0.8053 -1.9315  1.1221
18918TIP3    H278246  -0.008   0.670   3.964  1.7425 -0.6441 -0.2412
18919TIP3   OH278247   3.806   0.705   1.011  0.6854 -0.1885 -0.2139
18919TIP3    H178248   3.734   0.663   1.059  0.3883  0.9524  0.3669
18919TIP3    H278249   3.763   0.751   0.939  0.8757  0.1302 -0.1258
18920TIP3   OH278250   3.415   5.971  14.502  0.0632 -0.3459 -0.0931
18920TIP3    H178251   3.334   5.947  14.548 -0.6178  2.5442  0.4015
18920TIP3    H278252   3.483   5.919  14.545 -0.7078  1.3429  3.5872
18921TIP3   OH278253   1.102   5.784  12.348  0.0550  0.3295 -0.6412
18921TIP3    H178254   1.090   5.792  12.443 -0.8999 -0.6564 -0.6545
18921TIP3    H278255   1.197   5.776  12.337  0.1358 -0.2499  0.3116
18922TIP3   OH278256   4.378   4.025  14.963 -0.3563  0.4758 -0.3310
18922TIP3    H178257   4.355   4.011  14.871  1.0741 -0.5425 -0.5875
18922TIP3    H278258   4.425   3.945  14.987 -0.1020  1.0285  1.0757
18923TIP3   OH278259   3.463   4.271   2.083 -0.4181  0.0922 -0.3432
18923TIP3    H178260   3.475   4.184   2.045  1.6123 -0.5005  1.4612
18923TIP3    H278261   3.474   4.331   2.009  0.7212 -1.0980 -1.1884
18924TIP3   OH278262   2.993   4.942  15.857  0.1567  0.2318 -0.1151
18924TIP3    H178263   2.908   4.985  15.853 -1.2387 -1.8346  3.2111
18924TIP3    H278264   2.973   4.848  15.853  2.3959 -0.2906 -0.4808
18925TIP3   OH278265   2.710   2.400  16.814  0.0245  0.0052  0.9432
18925TIP3    H178266   2.726   2.463  16.884 -0.4326  0.2531  0.8242
18925TIP3    H278267   2.773   2.329  16.831  1.1598  0.8937  0.5673
18926TIP3   OH278268   5.488   6.224  10.904 -0.4613  0.3189 -0.5696
18926TIP3    H178269   5.419   6.226  10.971  0.0481 -1.4178  0.0560
18926TIP3    H278270   5.545   6.152  10.931  0.6609  0.6358 -2.0045
18927TIP3   OH278271   0.756   3.893   5.310  0.1433 -0.1668  0.1310
18927TIP3    H178272   0.684   3.940   5.268 -0.2630 -0.6668  0.2631
18927TIP3    H278273   0.721   3.806   5.328  0.2431  0.0712  1.6403
18928TIP3   OH278274   2.327   0.843  12.907 -0.3441 -0.1524 -0.2046
18928TIP3    H178275   2.280   0.882  12.833  0.9519  2.0775  0.0456
18928TIP3    H278276   2.290   0.756  12.917 -1.8601  0.2030 -2.2777
18929TIP3   OH278277   2.075   2.690  15.158 -0.4161  0.3955 -0.1623
18929TIP3    H178278   2.055   2.714  15.067 -0.5208  3.1969  0.5193
18929TIP3    H278279   2.166   2.717  15.171 -0.6795  0.8460  0.8062
18930TIP3   OH278280   0.884   3.044  12.318 -0.1106  0.0668  0.1729
18930TIP3    H178281   0.842   3.058  12.233  0.0870 -0.6601 -0.0456
18930TIP3    H278282   0.827   3.089  12.381 -1.7103 -1.6281  0.0054
18931TIP3   OH278283   2.327   4.473  16.577  0.1263  0.6948  0.3516
18931TIP3    H178284   2.408   4.464  16.527  0.5469  0.5254  1.0525
18931TIP3    H278285   2.354   4.511  16.660 -0.4210  0.0039  0.8606
18932TIP3   OH278286   2.743   0.246  13.298  0.2075 -0.6703  0.5987
18932TIP3    H178287   2.713   0.337  13.298 -1.5775 -1.1516  2.7232
18932TIP3    H278288   2.779   0.233  13.386 -0.1048 -2.1319  0.5384
18933TIP3   OH278289   5.966   2.900  16.367 -0.3738  0.6916  0.6481
18933TIP3    H178290   5.916   2.977  16.395 -3.3649  0.1340 -2.4092
18933TIP3    H278291   5.982   2.851  16.448  1.5056  4.2480  2.6943
18934TIP3   OH278292   4.255   5.137  14.754 -0.2013  0.3531  0.5976
18934TIP3    H178293   4.198   5.069  14.790  0.3802 -0.3121  0.3040
18934TIP3    H278294   4.199   5.213  14.744 -0.6408  0.2190  1.8576
18935TIP3   OH278295   6.492   1.413  14.460  0.1740  0.1768  0.1334
18935TIP3    H178296   6.483   1.379  14.371 -1.6798  2.4284 -0.6523
18935TIP3    H278297   6.417   1.376  14.508 -0.2548  0.9101  0.0430
18936TIP3   OH278298   4.788   3.154   1.113  0.0578 -0.1810  0.7216
18936TIP3    H178299   4.747   3.226   1.065  3.0343  0.8500 -0.5027
18936TIP3    H278300   4.750   3.075   1.075 -0.0268  0.6878 -1.0810
18937TIP3   OH278301   2.743   1.233  15.384  0.0246  0.2120 -0.4558
18937TIP3    H178302   2.808   1.295  15.350  0.8351 -0.0436  0.5867
18937TIP3    H278303   2.725   1.175  15.310  1.5753 -0.1930 -0.5413
18938TIP3   OH278304   1.515   1.823  11.701  0.3729  0.3560 -0.2112
18938TIP3    H178305   1.595   1.812  11.752  0.2901 -1.3256 -0.3835
18938TIP3    H278306   1.530   1.772  11.622 -0.8843 -0.0292 -0.2164
18939TIP3   OH278307   3.463   1.010   5.078 -0.4139  0.3032 -0.2570
18939TIP3    H178308   3.377   1.028   5.040 -0.7946 -2.1750 -0.7484
18939TIP3    H278309   3.465   0.914   5.087  2.5001  0.2457 -0.7700
18940TIP3   OH278310   5.246   6.346   4.180  0.4563 -0.3456  0.1299
18940TIP3    H178311   5.256   6.269   4.237  1.5521  0.8824  1.7221
18940TIP3    H278312   5.182   6.400   4.226 -0.6676 -0.4889 -1.2259
18941TIP3   OH278313   4.672   3.908   3.071  0.2081  0.1341  0.2829
18941TIP3    H178314   4.650   3.965   2.997  0.0974  0.5005  0.5946
18941TIP3    H278315   4.693   3.968   3.143  1.6565 -0.1863  0.1776
18942TIP3   OH278316   0.197   5.681  13.544  0.3568  0.3290 -0.2802
18942TIP3    H178317   0.166   5.594  13.519  0.8050  0.5364 -1.6365
18942TIP3    H278318   0.122   5.723  13.586  0.7326 -1.4577  2.4217
18943TIP3   OH278319   0.325   4.924   2.741 -0.4016 -0.3392  0.1748
18943TIP3    H178320   0.342   4.923   2.647 -0.3521 -0.6675  0.1849
18943TIP3    H278321   0.253   4.863   2.753 -2.6881  2.1488 -0.0498
18944TIP3   OH278322   2.892   0.229   3.863 -0.6895  0.1014 -0.2839
18944TIP3    H178323   2.916   0.136   3.862  1.1748  0.5394  0.3464
18944TIP3    H278324   2.847   0.241   3.947 -1.0806 -0.2503 -0.4373
18945TIP3   OH278325   2.731   1.208   3.487  0.6747 -0.4721  0.8135
18945TIP3    H178326   2.661   1.160   3.532 -1.6195  0.7341 -1.2505
18945TIP3    H278327   2.786   1.140   3.449  1.4845 -1.4805  3.5041
18946TIP3   OH278328   2.345   3.944   0.968  0.2368 -0.3454 -0.2009
18946TIP3    H178329   2.286   3.990   1.029  0.1110  0.4420 -0.8965
18946TIP3    H278330   2.311   3.855   0.965  0.0187 -0.2968  0.5981
18947TIP3   OH278331   1.568   3.506  11.740  0.3455 -0.2095 -0.3698
18947TIP3    H178332   1.546   3.413  11.747  0.5045 -0.1813  0.7260
18947TIP3    H278333   1.531   3.546  11.819  1.6091  0.3865 -0.0527
18948TIP3   OH278334   6.054   1.120   2.712  0.1774  0.2527 -0.2223
18948TIP3    H178335   6.011   1.185   2.767  0.4511  0.7318 -0.5687
18948TIP3    H278336   6.048   1.039   2.762  0.1267  0.6075  0.3610
18949TIP3   OH278337   5.527   2.019  17.139  0.0249  0.4922 -0.5371
18949TIP3    H178338   5.580   2.037  17.217  0.7157 -1.4461 -0.5180
18949TIP3    H278339   5.449   1.975  17.173  0.7609 -1.2097 -0.9930
18950TIP3   OH278340   1.635   0.404  14.633  0.1260 -0.2996 -0.1888
18950TIP3    H178341   1.599   0.387  14.720  0.1155  1.8168  0.2797
18950TIP3    H278342   1.578   0.472  14.596  0.5658 -0.6383 -1.5634
18951TIP3   OH278343   5.009   2.578  14.450 -0.1770  0.0431 -0.5003
18951TIP3    H178344   4.920   2.555  14.475  0.0501  0.0170  0.3125
18951TIP3    H278345   4.999   2.629  14.369 -0.9792  0.5700 -0.0838
18952TIP3   OH278346   5.890   0.068  14.751  0.2066 -0.4165 -0.0874
18952TIP3    H178347   5.826   0.075  14.822  0.3277  0.9645 -0.0739
18952TIP3    H278348   5.946  -0.005  14.775 -1.6703 -2.0120 -0.3565
18953TIP3   OH278349   5.181   0.929   2.708  0.3284  0.1604 -0.2204
18953TIP3    H178350   5.127   0.973   2.642  0.6157  0.0007 -0.5705
18953TIP3    H278351   5.198   0.842   2.670  0.5925  0.1101  0.0105
18954TIP3   OH278352   4.721   6.593  13.031  0.4619 -0.0625  0.3255
18954TIP3    H178353   4.688   6.504  13.030 -1.0711  0.4822 -0.7132
18954TIP3    H278354   4.758   6.604  13.119  0.8449 -1.7522  0.4021
18955TIP3   OH278355   3.913   3.034  11.639  0.5450 -0.2005 -0.2343
18955TIP3    H178356   3.974   3.025  11.712 -0.7644  1.2838  1.1128
18955TIP3    H278357   3.863   3.113  11.658 -1.6784 -1.2173 -1.3440
18956TIP3   OH278358   1.371   0.549   2.671 -0.4520  0.2810 -0.5107
18956TIP3    H178359   1.421   0.467   2.676 -0.9689  0.0322  1.1388
18956TIP3    H278360   1.386   0.580   2.581  0.7432 -0.9803 -0.7938
18957TIP3   OH278361   6.089   3.574  14.456  0.3704 -0.5463 -0.0260
18957TIP3    H178362   6.125   3.624  14.530  0.1193 -1.6457  0.8776
18957TIP3    H278363   6.064   3.640  14.392  1.6978  0.3831  0.3622
18958TIP3   OH278364   2.056   0.577   3.001 -0.5640 -0.1471 -0.3727
18958TIP3    H178365   2.010   0.659   3.019 -0.0680 -0.0007  0.2601
18958TIP3    H278366   2.023   0.515   3.066  0.6701  0.1711  0.6012
18959TIP3   OH278367   6.057   3.373  15.555  0.5543  0.0448 -0.5435
18959TIP3    H178368   5.985   3.417  15.602  0.8779  2.4028 -2.0716
18959TIP3    H278369   6.023   3.287  15.534 -1.1878  0.4897  0.2370
18960TIP3   OH278370   4.578   1.838  14.460  0.2790  0.0822 -0.0646
18960TIP3    H178371   4.565   1.852  14.366 -1.4288  0.9273  0.2545
18960TIP3    H278372   4.501   1.878  14.501  1.5773  0.7886  1.7879
18961TIP3   OH278373   4.833   2.060  14.150 -0.1019 -0.3100 -0.0202
18961TIP3    H178374   4.903   2.007  14.187  0.1854  0.8356  1.1861
18961TIP3    H278375   4.839   2.047  14.056  0.5823 -1.6087  0.1889
18962TIP3   OH278376   4.576   3.046   1.730  0.0819 -0.4555  0.4838
18962TIP3    H178377   4.588   3.138   1.753  0.0418 -0.1706 -0.5672
18962TIP3    H278378   4.483   3.030   1.743  0.0520 -0.2868  0.4826
18963TIP3   OH278379   1.808   3.584  14.583 -0.6813  0.0030 -0.3723
18963TIP3    H178380   1.887   3.628  14.552 -0.1113  0.0522  1.0548
18963TIP3    H278381   1.746   3.655  14.600 -0.9543 -0.0160 -1.2348
18964TIP3   OH278382   4.678   2.261   2.826 -0.0828 -0.8717 -0.3819
18964TIP3    H178383   4.689   2.229   2.736 -1.3145 -1.7138 -0.2594
18964TIP3    H278384   4.709   2.188   2.880  1.8592  0.1098 -0.0963
18965TIP3   OH278385   4.118   4.519  12.459 -0.5223 -0.2593  0.0276
18965TIP3    H178386   4.149   4.428  12.454  0.1761 -0.0858  0.9988
18965TIP3    H278387   4.155   4.561  12.381  2.0600  0.0331  1.3183
18966TIP3   OH278388   5.511   0.339  14.660 -0.1994 -0.2868 -0.2450
18966TIP3    H178389   5.572   0.303  14.596 -1.0242 -0.4799 -0.9416
18966TIP3    H278390   5.562   0.347  14.740  0.1737 -2.5332 -0.1860
18967TIP3   OH278391   6.456   1.373  13.288  0.4998  0.0008 -0.0921
18967TIP3    H178392   6.430   1.307  13.223  0.9212  1.1338 -1.4755
18967TIP3    H278393   6.393   1.443  13.277  1.6038  0.9677 -0.5501
18968TIP3   OH278394   0.592   1.072  11.240 -0.1209  0.0703 -0.0944
18968TIP3    H178395   0.670   1.025  11.210  1.1516  2.4647 -0.8650
18968TIP3    H278396   0.547   1.098  11.159 -2.2266 -1.9004  0.3358
18969TIP3   OH278397   3.798   1.807   5.067  0.5865 -0.0391  0.3811
18969TIP3    H178398   3.736   1.758   5.014  0.7888 -0.1888  0.2824
18969TIP3    H278399   3.882   1.762   5.055  1.0449  1.0383 -0.6837
18970TIP3   OH278400   3.482   5.093  14.240  0.0167  0.2883  0.9594
18970TIP3    H178401   3.495   5.094  14.334  0.8984 -0.2018  0.8461
18970TIP3    H278402   3.566   5.065  14.204 -0.5948 -0.4841  0.0793
18971TIP3   OH278403   5.311   4.595   4.749 -0.3729  0.1478 -0.1917
18971TIP3    H178404   5.364   4.529   4.704 -2.2895 -1.0644 -0.7910
18971TIP3    H278405   5.352   4.604   4.835  0.1739 -1.5542 -0.2359
18972TIP3   OH278406   2.583   1.890   6.158  1.2427  0.3377  0.5648
18972TIP3    H178407   2.586   1.795   6.170 -1.6691 -0.2372 -1.8741
18972TIP3    H278408   2.495   1.915   6.188  1.8881  2.2489  1.0035
18973TIP3   OH278409   1.325   4.982  17.061  0.0847  0.1017  0.7754
18973TIP3    H178410   1.330   5.060  17.115 -0.9206  0.0916  0.9005
18973TIP3    H278411   1.349   5.011  16.973  2.2342  0.0163  1.2912
18974TIP3   OH278412   3.295   2.214   0.950  0.4714  0.2774  0.7336
18974TIP3    H178413   3.207   2.180   0.935 -0.5296  2.5761  1.0711
18974TIP3    H278414   3.342   2.141   0.990 -0.3731 -1.9671 -2.0401
18975TIP3   OH278415   1.986   3.990  13.405 -0.0006 -0.2019  0.0174
18975TIP3    H178416   2.066   3.997  13.353  0.0434  0.3518  0.1496
18975TIP3    H278417   1.967   4.080  13.433  0.5884 -0.6053  1.8633
18976TIP3   OH278418   2.724   2.769  10.237  0.0249  0.0162 -0.0058
18976TIP3    H178419   2.749   2.769  10.329  0.5903  3.2284 -0.0196
18976TIP3    H278420   2.653   2.833  10.232  0.2452  0.1649 -1.8432
18977TIP3   OH278421   5.408   5.712   0.784 -0.3147  0.1312 -0.2389
18977TIP3    H178422   5.408   5.668   0.869 -2.2830  0.5306  0.0263
18977TIP3    H278423   5.423   5.805   0.804 -2.2705  0.4739 -0.0910
18978TIP3   OH278424   6.158   0.596  17.224 -0.2584 -0.7280  0.1992
18978TIP3    H178425   6.130   0.517  17.179 -0.2937 -0.5729 -0.0531
18978TIP3    H278426   6.179   0.567  17.313 -1.6420 -0.7812  0.5443
18979TIP3   OH278427   0.194   0.312   3.781 -0.3912  0.0099 -0.1622
18979TIP3    H178428   0.218   0.233   3.830 -0.8730 -0.5354 -0.7944
18979TIP3    H278429   0.260   0.376   3.806 -0.4969 -0.3193  1.0448
18980TIP3   OH278430   4.895   1.007  12.759  0.3500  0.2898 -0.0604
18980TIP3    H178431   4.889   0.923  12.715  1.0574  0.7325 -1.0431
18980TIP3    H278432   4.988   1.016  12.781  0.5251  1.3659 -1.1212
18981TIP3   OH278433   3.178   1.721   0.719  0.0186  0.3173 -0.4883
18981TIP3    H178434   3.147   1.632   0.701  0.6768  0.1009 -0.5785
18981TIP3    H278435   3.258   1.708   0.771  0.5306  0.8333 -1.1326
18982TIP3   OH278436   2.622   3.482  12.083 -0.3585  0.6745 -0.1690
18982TIP3    H178437   2.550   3.448  12.137 -0.1578  2.1346  1.1103
18982TIP3    H278438   2.650   3.407  12.031 -0.1479 -1.0409  2.2330
18983TIP3   OH278439   4.216   6.191  17.226 -0.2712  0.1936 -0.3292
18983TIP3    H178440   4.174   6.253  17.167 -1.4387 -0.0040  0.2657
18983TIP3    H278441   4.144   6.151  17.274  0.6512  0.3892  1.2881
18984TIP3   OH278442   2.945   3.207  11.559  0.1285 -0.0706 -0.1844
18984TIP3    H178443   2.901   3.160  11.488  1.0844 -1.2225 -0.0491
18984TIP3    H278444   3.037   3.184  11.549  0.3810  0.3771  0.9620
18985TIP3   OH278445   2.982   1.139   4.484  0.2631  0.1379  0.1946
18985TIP3    H178446   3.005   1.050   4.460  3.2325  0.1325  2.5317
18985TIP3    H278447   2.990   1.189   4.402  2.5280 -1.0952 -0.4040
18986TIP3   OH278448   2.721   3.388   2.107  0.2326 -0.1904  1.0086
18986TIP3    H178449   2.745   3.363   2.196 -3.1612 -0.5327  1.9942
18986TIP3    H278450   2.753   3.317   2.052  0.7654 -0.9259  2.2270
18987TIP3   OH278451   5.300   5.146   5.520 -0.1406 -0.3923 -0.3055
18987TIP3    H178452   5.306   5.217   5.584 -0.6233  0.4552 -1.1797
18987TIP3    H278453   5.231   5.173   5.460  0.5300 -0.9999 -1.3874
18988TIP3   OH278454   6.362   6.309  10.351 -0.3095 -0.6480  0.0851
18988TIP3    H178455   6.275   6.289  10.387 -1.3150  0.6339 -1.4902
18988TIP3    H278456   6.402   6.367  10.416 -0.4031 -1.6338  1.0589
18989TIP3   OH278457   6.362   3.842   5.300 -0.5148  0.0789 -0.5354
18989TIP3    H178458   6.382   3.877   5.213 -1.0614  0.7668 -0.3989
18989TIP3    H278459   6.352   3.748   5.287 -3.1877  0.4195 -1.7603
18990TIP3   OH278460   5.986   3.761   1.785 -0.5801 -0.2853  0.4171
18990TIP3    H178461   6.003   3.814   1.707 -0.1147 -0.8437  0.1355
18990TIP3    H278462   6.070   3.759   1.831 -0.1948 -1.9067 -0.2804
18991TIP3   OH278463   2.555   2.915   2.940 -0.2946 -0.2707  0.3527
18991TIP3    H178464   2.636   2.891   2.894  0.0746 -0.1076  0.9139
18991TIP3    H278465   2.568   3.007   2.963  0.0379 -0.6774  1.8570
18992TIP3   OH278466   3.364   5.756  15.302 -0.3632  0.0025  0.2053
18992TIP3    H178467   3.458   5.748  15.319 -0.3021 -0.0724 -0.1592
18992TIP3    H278468   3.323   5.705  15.373 -0.2317  1.7881  1.6294
18993TIP3   OH278469   0.494   0.756   3.004 -0.0831 -0.6669 -0.5089
18993TIP3    H178470   0.424   0.691   2.997 -3.0965  1.7296  3.0822
18993TIP3    H278471   0.454   0.838   2.974  2.2134  0.3065 -1.0887
18994TIP3   OH278472   4.317   0.859  12.186 -0.0223  0.4253 -0.3673
18994TIP3    H178473   4.257   0.933  12.197 -0.5824 -0.2684  1.7647
18994TIP3    H278474   4.280   0.809  12.113 -0.9682  1.0156 -0.3170
18995TIP3   OH278475   2.055   4.007  15.969  0.3677  0.2111 -0.1156
18995TIP3    H178476   2.064   4.089  15.921  0.4804 -0.7339 -1.7890
18995TIP3    H278477   2.140   3.995  16.012  0.6457  0.5395 -0.5691
18996TIP3   OH278478   5.474   2.081  12.422 -0.2869  0.1097 -0.5560
18996TIP3    H178479   5.400   2.141  12.436  0.0579  0.0889  1.5390
18996TIP3    H278480   5.508   2.064  12.509  1.2147 -1.1608 -1.3557
18997TIP3   OH278481   3.251   3.549  13.513  0.5858  0.0039 -0.0853
18997TIP3    H178482   3.161   3.577  13.497  0.3296 -0.7686 -0.0196
18997TIP3    H278483   3.257   3.463  13.471  0.9134 -0.5245  1.0037
18998TIP3   OH278484   4.405   4.328  10.973  0.1837 -0.2520 -0.2672
18998TIP3    H178485   4.333   4.371  11.020 -1.3249 -2.0781 -0.7607
18998TIP3    H278486   4.428   4.388  10.902 -1.6283 -0.0938 -0.7579
18999TIP3   OH278487   3.451   4.708  11.179 -0.0054 -0.5698  0.5621
18999TIP3    H178488   3.399   4.661  11.113 -1.2341  0.1650  0.9802
18999TIP3    H278489   3.541   4.681  11.162 -0.3246 -0.6472 -1.2325
19000TIP3   OH278490   3.149   2.934  14.959 -0.0493 -0.0787 -0.0731
19000TIP3    H178491   3.100   3.002  14.914 -0.4633  0.0195  0.5105
19000TIP3    H278492   3.087   2.897  15.022  0.3276 -0.6375 -0.0232
19001TIP3   OH278493   2.734   1.432  12.314 -0.2014 -0.1522 -0.5885
19001TIP3    H178494   2.665   1.444  12.249  1.5386 -0.4747 -2.6189
19001TIP3    H278495   2.739   1.516  12.359 -1.3596  0.1376 -0.9565
19002TIP3   OH278496   0.212   0.572  11.851  0.1321  0.6664 -0.2389
19002TIP3    H178497   0.268   0.620  11.790  2.8731 -2.6706 -0.6260
19002TIP3    H278498   0.200   0.486  11.811 -2.2007  0.0089  1.6517
19003TIP3   OH278499   4.017   3.797  12.380  0.5013  0.2856  0.0976
19003TIP3    H178500   4.096   3.845  12.357  0.0621  0.5672 -0.8610
19003TIP3    H278501   3.965   3.859  12.432 -0.2603  1.0530 -1.4980
19004TIP3   OH278502   6.768   1.008  17.165  0.5533 -0.0623  0.3069
19004TIP3    H178503   6.842   1.021  17.105  0.4739  0.0540  0.2357
19004TIP3    H278504   6.741   1.096  17.190 -0.0287 -0.0821 -0.2351
19005TIP3   OH278505   6.411   1.873   3.472 -0.2035  0.1169  0.2543
19005TIP3    H178506   6.330   1.866   3.522 -1.4494 -0.3608 -1.6984
19005TIP3    H278507   6.388   1.839   3.385  1.7493  1.1791 -0.7408
19006TIP3   OH278508   2.662   6.301   5.011 -0.0302 -0.3122 -0.0012
19006TIP3    H178509   2.725   6.349   4.957  0.0009 -1.6109 -1.1655
19006TIP3    H278510   2.666   6.345   5.096  1.5487  0.4115 -0.3987
19007TIP3   OH278511   5.624   0.247   0.996 -0.4311 -0.1169  0.1645
19007TIP3    H178512   5.530   0.267   0.994 -0.2046  1.0164 -0.8710
19007TIP3    H278513   5.664   0.328   1.027  0.1939 -0.7362  1.0116
19008TIP3   OH278514   3.236   0.588   0.364  0.2984  0.2024  0.0994
19008TIP3    H178515   3.143   0.567   0.368  0.9322 -3.2049 -0.1392
19008TIP3    H278516   3.268   0.540   0.287  2.1069  2.2176 -0.5209
19009TIP3   OH278517   0.657   3.371   3.966 -0.3480  0.1313  0.4370
19009TIP3    H178518   0.711   3.365   4.045 -1.0599 -0.2787  0.8960
19009TIP3    H278519   0.581   3.423   3.993 -0.2073  0.6854 -0.1997
19010TIP3   OH278520   4.294   2.666   0.457  0.1398 -0.1725  0.0573
19010TIP3    H178521   4.236   2.597   0.489 -0.0807 -0.1310 -0.2498
19010TIP3    H278522   4.382   2.637   0.482  0.3036 -1.6965 -1.9859
19011TIP3   OH278523   4.176   1.046  10.282  0.1820  0.4735 -0.2846
19011TIP3    H178524   4.179   0.950  10.280 -0.6728  0.3009  2.4669
19011TIP3    H278525   4.249   1.070  10.340 -0.1168  1.4420 -0.3003
19012TIP3   OH278526   6.615   6.480  11.387  0.0750  0.9815 -0.0369
19012TIP3    H178527   6.698   6.479  11.434 -0.6387 -1.5397  1.3814
19012TIP3    H278528   6.640   6.491  11.295  1.8982  1.0773  0.4338
19013TIP3   OH278529   1.121   3.117  16.439  0.0123 -0.3332  0.0345
19013TIP3    H178530   1.164   3.185  16.388 -1.0890 -0.9247 -1.7649
19013TIP3    H278531   1.145   3.035  16.396  0.5646 -1.0411  1.6064
19014TIP3   OH278532   3.392   0.803  16.079  0.6315  0.1023  0.0043
19014TIP3    H178533   3.420   0.716  16.107  1.5598 -0.4187 -2.3090
19014TIP3    H278534   3.297   0.794  16.066  0.9008 -1.0269 -1.5285
19015TIP3   OH278535   5.845   2.625  12.374 -0.3534  0.0057  0.1185
19015TIP3    H178536   5.858   2.653  12.465 -2.2626 -1.1120  0.7874
19015TIP3    H278537   5.930   2.589  12.348  0.2965  0.5698  1.3531
19016TIP3   OH278538   3.528   0.472   2.333  0.6565  0.2956  0.4032
19016TIP3    H178539   3.617   0.472   2.298  0.4882  1.5345 -0.0774
19016TIP3    H278540   3.472   0.470   2.255  0.2559 -1.0042  0.7155
19017TIP3   OH278541   1.969   2.791   0.671  0.2261 -0.3299 -0.1299
19017TIP3    H178542   1.885   2.767   0.710 -0.0988  1.5976  0.4659
19017TIP3    H278543   1.976   2.737   0.593 -0.8210 -1.6560  0.6564
19018TIP3   OH278544   5.387   6.063  16.669 -0.1770  0.0002 -0.8237
19018TIP3    H178545   5.450   6.015  16.722 -1.6870  1.2403  2.3992
19018TIP3    H278546   5.334   5.995  16.627 -0.7592 -1.2037  1.6914
19019TIP3   OH278547   4.716   2.929  14.334  0.1151 -0.1385  0.0041
19019TIP3    H178548   4.749   2.953  14.420 -0.1969  1.3083 -0.2459
19019TIP3    H278549   4.760   2.989  14.274  0.6484 -1.4009 -0.9049
19020TIP3   OH278550   4.454   3.483   0.574  0.6569  0.0776  0.2234
19020TIP3    H178551   4.475   3.397   0.538 -2.4563 -0.3668 -0.8594
19020TIP3    H278552   4.439   3.466   0.667  0.2204 -0.5601  0.0480
19021TIP3   OH278553   4.554   0.508   0.293  0.4091  0.2891  0.2807
19021TIP3    H178554   4.493   0.443   0.327  1.4277 -0.1117  1.4009
19021TIP3    H278555   4.510   0.543   0.215 -1.0412 -0.2871  0.8058
19022TIP3   OH278556   3.404   6.724  16.255  0.1175  0.6395  0.0042
19022TIP3    H178557   3.447   6.658  16.201  0.1682 -0.1164  0.9349
19022TIP3    H278558   3.311   6.717  16.231 -0.0084 -0.4199  0.7398
19023TIP3   OH278559   5.956   0.275   3.559  0.1099  0.2488  0.4468
19023TIP3    H178560   6.034   0.292   3.507 -0.3297 -2.6305 -1.3756
19023TIP3    H278561   5.959   0.181   3.577 -1.5755  0.5358  2.6951
19024TIP3   OH278562   1.741   0.752  11.954 -0.2016 -0.6442 -0.0198
19024TIP3    H178563   1.717   0.763  11.862 -0.2556 -0.2975  0.0323
19024TIP3    H278564   1.791   0.831  11.975 -0.5595 -0.5143  0.3624
19025TIP3   OH278565   5.185   1.821   4.492  0.1589  0.2238 -0.4547
19025TIP3    H178566   5.213   1.730   4.484 -2.9723 -0.7824 -1.2694
19025TIP3    H278567   5.261   1.866   4.531  1.8813 -2.6376 -0.2102
19026TIP3   OH278568   2.710   0.438   4.670 -0.6324 -0.1484 -0.2713
19026TIP3    H178569   2.760   0.519   4.657 -0.2451 -0.4514 -0.7206
19026TIP3    H278570   2.621   0.467   4.691 -0.5453  0.3907 -0.6422
19027TIP3   OH278571   5.024   1.596   6.006 -0.0387  0.1827  0.5101
19027TIP3    H178572   5.023   1.508   6.044 -0.1689  0.0956  0.3084
19027TIP3    H278573   5.054   1.583   5.916  1.3762  0.5262  0.9170
19028TIP3   OH278574   6.380   5.962   4.339 -0.3664  0.0390 -0.3251
19028TIP3    H178575   6.458   5.917   4.372  0.0523 -0.9587 -2.5145
19028TIP3    H278576   6.370   6.037   4.397  0.0172 -1.7819  2.3200
19029TIP3   OH278577   0.727   5.869   1.176  1.0059  0.2506  0.2108
19029TIP3    H178578   0.688   5.918   1.248  0.4794 -1.4528  1.1420
19029TIP3    H278579   0.709   5.777   1.196  2.2715 -0.3806 -1.2600
19030TIP3   OH278580   4.843   2.984  14.557  0.1014  0.1582  0.3860
19030TIP3    H178581   4.863   3.027  14.641 -1.0307 -0.6324  1.0933
19030TIP3    H278582   4.879   2.895  14.567 -0.1158  0.0326  0.0654
19031TIP3   OH278583   1.861   4.829  13.918 -0.1555  0.2702  0.3225
19031TIP3    H178584   1.799   4.802  13.850  0.8113  1.2556 -1.0067
19031TIP3    H278585   1.889   4.916  13.891  1.7391 -0.1101  0.9249
19032TIP3   OH278586   0.963   3.408   2.319 -0.2679  0.3311 -0.0713
19032TIP3    H178587   0.997   3.330   2.363 -0.0009 -0.2212 -1.2035
19032TIP3    H278588   1.013   3.413   2.237  1.3034  2.9942  0.9335
19033TIP3   OH278589   3.825   1.989  16.728 -0.4593 -0.2822 -0.4225
19033TIP3    H178590   3.868   1.907  16.705 -1.1223 -0.8434  0.2516
19033TIP3    H278591   3.738   1.982  16.688 -0.8882 -0.3808  0.4897
19034TIP3   OH278592   3.679   3.800  13.259 -0.1016 -0.0062 -0.4652
19034TIP3    H178593   3.756   3.851  13.233 -0.7884  0.7448 -1.0518
19034TIP3    H278594   3.607   3.862  13.258 -0.2173  0.1428  3.3284
19035TIP3   OH278595   4.948   3.798  16.617  0.1191  0.1484 -0.1947
19035TIP3    H178596   4.959   3.893  16.617 -0.4207  0.2138  0.1081
19035TIP3    H278597   4.903   3.778  16.699  1.1671 -0.4892  0.2509
19036TIP3   OH278598   6.736   0.203  11.914 -0.1362 -1.1404  0.0094
19036TIP3    H178599   6.685   0.283  11.899 -0.8352 -1.6132 -0.1857
19036TIP3    H278600   6.819   0.219  11.868  0.5588  0.2547  1.5896
19037TIP3   OH278601   1.274   4.365  11.309 -0.1692 -0.1485 -0.3460
19037TIP3    H178602   1.259   4.350  11.403  0.3137  2.4942  0.2283
19037TIP3    H278603   1.223   4.297  11.266 -2.9152  0.3833  1.7847
19038TIP3   OH278604   5.003   2.342  17.191  0.1919 -0.3278 -0.0446
19038TIP3    H178605   4.976   2.254  17.218  0.7996 -0.7607 -0.7956
19038TIP3    H278606   4.973   2.349  17.100 -0.0042  0.3127  0.0655
19039TIP3   OH278607   4.642   3.066  14.828 -0.1566  0.0105  0.0123
19039TIP3    H178608   4.711   3.092  14.890 -0.6216  0.4323  0.3567
19039TIP3    H278609   4.663   2.975  14.807  0.0602 -0.1152  0.7207
19040TIP3   OH278610   2.503   5.416   4.142 -0.4048 -0.1528  0.1207
19040TIP3    H178611   2.546   5.477   4.083  0.8253 -0.2683  0.8668
19040TIP3    H278612   2.433   5.467   4.182 -0.7314  0.1545 -0.8061
19041TIP3   OH278613   2.759   5.267   2.893 -0.3836  0.1690 -0.9177
19041TIP3    H178614   2.792   5.347   2.851 -1.1770 -0.6205 -3.1703
19041TIP3    H278615   2.672   5.290   2.924 -0.6034  0.1951 -1.5463
19042TIP3   OH278616   1.012   0.120  14.430 -0.1021 -0.1898 -0.0526
19042TIP3    H178617   1.038   0.089  14.343 -2.3477 -1.0811 -0.4918
19042TIP3    H278618   1.071   0.075  14.490  0.8378 -0.3369 -1.0530
19043TIP3   OH278619   4.520   5.265   4.993  0.2540 -0.1921 -0.7642
19043TIP3    H178620   4.603   5.253   4.948 -0.0351  0.6289 -1.5418
19043TIP3    H278621   4.484   5.346   4.957  1.1577  1.9752  2.6960
19044TIP3   OH278622   1.455   4.993   3.512  0.7783 -0.3875 -0.0219
19044TIP3    H178623   1.409   5.014   3.430  1.5616  0.1238 -0.3449
19044TIP3    H278624   1.538   5.041   3.506  0.5532  0.2232  1.3880
19045TIP3   OH278625   6.171   3.978  11.276  0.3814 -0.2319 -0.2245
19045TIP3    H178626   6.138   3.960  11.188 -0.5292 -1.6528  0.3605
19045TIP3    H278627   6.102   4.030  11.318  0.1320 -0.7893  0.0842
19046TIP3   OH278628   4.284   0.439  13.973 -0.2047  0.7136  0.0231
19046TIP3    H178629   4.191   0.451  13.957 -0.1773  2.4496  0.9332
19046TIP3    H278630   4.309   0.513  14.029  1.7865  0.4941 -0.4772
19047TIP3   OH278631   2.870   6.487  15.254  0.4195  0.1036 -0.4559
19047TIP3    H178632   2.938   6.512  15.316 -0.9968 -0.3612  1.3727
19047TIP3    H278633   2.865   6.391  15.261 -1.7378  0.2304  1.0317
19048TIP3   OH278634   2.564   3.554  14.829  0.0360 -0.8820 -0.0978
19048TIP3    H178635   2.636   3.555  14.891  0.1189 -1.1286 -0.1882
19048TIP3    H278636   2.487   3.580  14.881 -0.1291 -2.2939  0.4090
19049TIP3   OH278637   1.393   4.199   2.850 -0.2985 -0.1353 -0.2170
19049TIP3    H178638   1.456   4.132   2.876  0.3835 -0.0652 -1.5834
19049TIP3    H278639   1.370   4.243   2.931  1.3439 -0.2391  0.3453
19050TIP3   OH278640   5.630   5.416   5.557  1.0186  0.7811 -0.4990
19050TIP3    H178641   5.694   5.487   5.550 -0.1039  1.7172 -1.7759
19050TIP3    H278642   5.589   5.413   5.470 -0.5517  0.0957  0.2421
19051TIP3   OH278643   6.431   1.037   3.863 -0.1638 -0.0877 -0.9816
19051TIP3    H178644   6.426   1.116   3.810 -1.2341 -0.0096 -0.7776
19051TIP3    H278645   6.369   0.977   3.822 -0.7607 -0.1432 -0.0184
19052TIP3   OH278646   5.235   5.915  14.838  0.4080  0.1936 -0.2305
19052TIP3    H178647   5.196   5.975  14.902  0.8939 -0.5140  0.7477
19052TIP3    H278648   5.290   5.856  14.890 -0.0694 -1.1249 -1.1537
19053TIP3   OH278649   2.480   5.270   2.466  0.3212  0.3521  0.3431
19053TIP3    H178650   2.525   5.294   2.385 -1.2630  0.5853 -0.5223
19053TIP3    H278651   2.522   5.189   2.494  2.5801  1.5651  0.7036
19054TIP3   OH278652   3.917   0.560  13.561  0.0022 -0.2011 -0.5712
19054TIP3    H178653   3.950   0.639  13.604 -1.8272  1.5954 -2.2666
19054TIP3    H278654   3.942   0.570  13.469 -2.4208 -0.2907 -1.2990
19055TIP3   OH278655   0.275   3.750   4.165 -0.8583 -0.6102  0.0498
19055TIP3    H178656   0.215   3.676   4.167 -0.9235 -0.5760 -0.4840
19055TIP3    H278657   0.237   3.810   4.101  0.4209 -1.1824 -1.3094
19056TIP3   OH278658   0.901   2.869   2.616  0.2879  0.5245 -0.8164
19056TIP3    H178659   0.837   2.860   2.687 -1.4068 -1.7675 -2.4933
19056TIP3    H278660   0.946   2.785   2.613  0.4192  0.6126 -2.3279
19057TIP3   OH278661   5.371   6.061  15.163 -0.0826 -0.1443  0.3567
19057TIP3    H178662   5.460   6.027  15.155  0.7778  2.2544 -1.3847
19057TIP3    H278663   5.381   6.156  15.163 -2.6930  0.2259 -0.7054
19058TIP3   OH278664   2.552   6.093  14.431 -0.4340  0.1510 -0.1285
19058TIP3    H178665   2.637   6.118  14.465 -0.4400  0.8403 -0.6113
19058TIP3    H278666   2.499   6.172  14.436 -1.3469 -0.4847  1.0256
19059TIP3   OH278667   3.680   2.043   4.863  0.2602  0.2469  0.4563
19059TIP3    H178668   3.718   1.962   4.895 -1.9323 -1.3075 -0.6364
19059TIP3    H278669   3.746   2.110   4.881  2.0720 -1.7364  1.5067
19060TIP3   OH278670   2.254   2.061  12.795  0.0834  0.3194 -0.3792
19060TIP3    H178671   2.251   2.097  12.706  0.3855 -0.3876 -0.6844
19060TIP3    H278672   2.175   2.007  12.801 -0.0462  0.5321 -0.1398
19061TIP3   OH278673   6.726   6.533   0.298  0.1900 -0.6113 -0.2406
19061TIP3    H178674   6.814   6.571   0.297  0.2943 -0.8535 -0.4968
19061TIP3    H278675   6.672   6.597   0.253  0.7047 -1.5428 -2.3324
19062TIP3   OH278676   4.092   3.965   2.912 -0.2033 -0.1908 -0.2703
19062TIP3    H178677   4.172   3.925   2.948 -0.3553  0.1090  0.4023
19062TIP3    H278678   4.119   3.999   2.826  0.0021 -1.4871 -0.7520
19063TIP3   OH278679   3.197   5.264  13.288  0.0571  0.0073 -0.3152
19063TIP3    H178680   3.170   5.276  13.380 -2.3932  0.9360 -1.0793
19063TIP3    H278681   3.167   5.176  13.266  1.3149 -0.5102 -0.0626
19064TIP3   OH278682   2.346   0.701  17.232 -0.1020  0.0393 -0.0485
19064TIP3    H178683   2.393   0.765  17.179 -1.5104 -0.9410 -2.6132
19064TIP3    H278684   2.259   0.740  17.245 -0.1962 -0.3196  0.4239
19065TIP3   OH278685   6.412   0.777   3.267 -0.5567 -0.1442  0.1841
19065TIP3    H178686   6.371   0.775   3.181 -0.6028  0.5312  0.1810
19065TIP3    H278687   6.344   0.812   3.325  0.3831  2.3245 -0.0703
19066TIP3   OH278688   3.224   4.505  14.342 -0.9234  0.7319 -0.4721
19066TIP3    H178689   3.193   4.415  14.335 -2.1341  1.1839 -1.4109
19066TIP3    H278690   3.188   4.536  14.425 -1.4502  0.6763 -0.6728
19067TIP3   OH278691   3.026   3.811   0.722  0.6747 -0.0925 -0.1072
19067TIP3    H178692   3.060   3.790   0.635  1.1104  0.0257  0.0332
19067TIP3    H278693   2.946   3.861   0.706  0.8527  0.0862 -0.4378
19068TIP3   OH278694   2.048   1.153   3.882 -0.4964  0.1391  0.3519
19068TIP3    H178695   2.090   1.124   3.801 -0.5487 -0.1602  0.4307
19068TIP3    H278696   2.069   1.246   3.888  1.2905 -0.2756  1.0657
19069TIP3   OH278697   5.321   2.113  10.623  0.0377  0.2513 -0.0405
19069TIP3    H178698   5.385   2.181  10.642  0.3562 -0.1480  0.3239
19069TIP3    H278699   5.259   2.154  10.562  0.3628  0.7868 -0.0094
19070TIP3   OH278700   6.809   3.064  16.568  0.1249 -0.4935  0.0879
19070TIP3    H178701   6.857   3.144  16.592  0.0692 -0.5407  0.3669
19070TIP3    H278702   6.736   3.096  16.515 -0.1112 -0.3133  0.5088
19071TIP3   OH278703   3.976   5.806   0.882 -0.1209 -0.3038 -0.4401
19071TIP3    H178704   3.965   5.887   0.831  0.3498  0.1186  0.1216
19071TIP3    H278705   4.044   5.827   0.946  0.1314 -1.2089 -0.4068
19072TIP3   OH278706   4.493   3.577   3.329 -0.6730  0.1874  0.0644
19072TIP3    H178707   4.546   3.499   3.315  0.0470  1.0137 -2.3214
19072TIP3    H278708   4.555   3.650   3.321 -2.0498  1.1844 -2.7665
19073TIP3   OH278709   2.015   1.521  15.621 -0.5341 -0.9935  0.7955
19073TIP3    H178710   2.020   1.520  15.716  0.2205 -0.4892  0.7620
19073TIP3    H278711   1.921   1.510  15.602 -0.9563  0.8047  1.6205
19074TIP3   OH278712   1.533   5.355  16.823  0.2340 -0.2320  0.1980
19074TIP3    H178713   1.601   5.384  16.762 -0.2784  0.4583 -0.0601
19074TIP3    H278714   1.488   5.435  16.847 -0.5812 -0.7049  0.2579
19075TIP3   OH278715   5.031   0.921  13.102 -0.2689 -0.4148 -0.1081
19075TIP3    H178716   5.120   0.939  13.135  0.4232 -2.1001 -0.9612
19075TIP3    H278717   4.974   0.968  13.164  1.1469 -0.2862  1.1856
19076TIP3   OH278718   3.789   3.267   4.832 -0.5042 -0.0243 -0.2743
19076TIP3    H178719   3.754   3.346   4.790 -2.1169 -0.3162  0.4308
19076TIP3    H278720   3.742   3.262   4.915  0.1443 -1.3187  0.0393
19077TIP3   OH278721   4.805   1.211  16.083  0.0049  0.3608 -0.1949
19077TIP3    H178722   4.859   1.282  16.118 -0.5626  1.0389 -0.6717
19077TIP3    H278723   4.851   1.183  16.003 -0.4149  1.0464 -0.6879
19078TIP3   OH278724   1.543   0.906  16.553  0.0272  0.0830 -0.7145
19078TIP3    H178725   1.586   0.862  16.479  1.4260 -0.9024  0.6196
19078TIP3    H278726   1.541   0.840  16.622 -1.0125  1.0652  0.2381
19079TIP3   OH278727   6.392   2.955  11.310  0.7338 -0.8461  0.2387
19079TIP3    H178728   6.344   2.947  11.227 -1.2462 -0.2299  1.2471
19079TIP3    H278729   6.479   2.919  11.292 -0.2166 -2.3897 -1.6021
19080TIP3   OH278730   0.447   1.566   1.002  0.0651 -0.2823  0.0554
19080TIP3    H178731   0.401   1.644   0.972  1.3747  0.7994  0.7583
19080TIP3    H278732   0.540   1.590   0.999  0.3663 -0.8163  2.9728
19081TIP3   OH278733   4.301   5.576   5.820 -0.6982  0.2668  0.2980
19081TIP3    H178734   4.351   5.622   5.887 -1.4750  0.2026  0.9230
19081TIP3    H278735   4.220   5.551   5.862 -0.9905 -0.2185 -0.5228
19082TIP3   OH278736   0.865   2.906  12.730  0.1697 -0.3709  0.0791
19082TIP3    H178737   0.774   2.908  12.761 -0.1176  0.7476 -0.8032
19082TIP3    H278738   0.888   2.998  12.716  0.8924 -0.7457 -1.3030
19083TIP3   OH278739   1.371   4.480   5.347 -0.4888  0.0575 -0.1244
19083TIP3    H178740   1.420   4.453   5.270 -0.6843 -1.9209  0.3906
19083TIP3    H278741   1.437   4.492   5.415 -0.2417  2.4298 -0.6767
19084TIP3   OH278742   0.124   1.648  13.140 -0.7282 -0.1671  0.0137
19084TIP3    H178743   0.111   1.739  13.111  0.3290  0.4103  1.2438
19084TIP3    H278744   0.080   1.596  13.073 -1.4289  1.2483 -0.6951
19085TIP3   OH278745   3.373   1.751  14.510  0.5308  0.3166  0.3575
19085TIP3    H178746   3.317   1.813  14.556  0.1602  0.4332 -0.2381
19085TIP3    H278747   3.320   1.722  14.435  0.1722 -1.7112  1.3326
19086TIP3   OH278748   3.327   5.447   2.243  0.5696  0.0846  0.5577
19086TIP3    H178749   3.301   5.519   2.301  1.3159  0.2641  0.6806
19086TIP3    H278750   3.244   5.411   2.212  0.1684  0.4358  1.1840
19087TIP3   OH278751   2.050   5.945   1.036  0.2354  0.2952  0.1093
19087TIP3    H178752   2.012   6.024   0.995 -0.8824 -0.0500  0.4481
19087TIP3    H278753   2.144   5.956   1.026  0.0483  1.1008 -0.9329
19088TIP3   OH278754   5.658   1.307  13.040 -0.3486 -0.7625 -0.2830
19088TIP3    H178755   5.721   1.372  13.009 -2.3656  1.4452 -0.0340
19088TIP3    H278756   5.676   1.298  13.133 -2.3371  2.4370  0.5787
19089TIP3   OH278757   1.384   3.732   3.844  0.3195 -0.0384  0.1888
19089TIP3    H178758   1.372   3.674   3.919  0.0585 -1.2414 -0.7503
19089TIP3    H278759   1.326   3.696   3.777 -0.1893  1.5851 -0.2927
19090TIP3   OH278760   4.798   1.458  13.306 -0.2286  0.3886 -0.4878
19090TIP3    H178761   4.724   1.413  13.349  1.6467 -0.4649  2.1132
19090TIP3    H278762   4.776   1.551  13.313 -0.9158  0.1695  0.5802
19091TIP3   OH278763   0.104   1.365   0.186 -0.1351  0.0991  0.9327
19091TIP3    H178764   0.070   1.357   0.276 -1.2415  0.1941  0.5384
19091TIP3    H278765   0.173   1.430   0.193  0.8528 -1.0097  1.9974
19092TIP3   OH278766   6.681   1.820  13.898  0.6141 -0.0542 -0.3206
19092TIP3    H178767   6.684   1.731  13.934  0.2255  0.1085  0.1308
19092TIP3    H278768   6.773   1.846  13.891  0.7027 -0.0847  0.5970
19093TIP3   OH278769   1.689   6.692  14.293 -0.3842 -0.1211 -0.1388
19093TIP3    H178770   1.626   6.726  14.356  0.8119  0.6289  0.6886
19093TIP3    H278771   1.768   6.677  14.343  0.1899 -0.8036 -1.2077
19094TIP3   OH278772   2.349   3.656   1.012 -0.7020 -0.0245 -0.2644
19094TIP3    H178773   2.408   3.605   0.956  3.3865 -0.7689  4.1055
19094TIP3    H278774   2.279   3.594   1.035  0.1905 -1.2505 -0.7398
19095TIP3   OH278775   1.046   0.210  16.908  0.1234  0.1099 -0.8943
19095TIP3    H178776   1.120   0.170  16.864  0.4622  0.3731 -0.5728
19095TIP3    H278777   0.969   0.172  16.866  0.4388 -0.3101 -1.0991
19096TIP3   OH278778   3.360   0.724   2.312  0.3419  0.2393  0.5826
19096TIP3    H178779   3.269   0.708   2.339  0.5169  1.2072  1.8610
19096TIP3    H278780   3.406   0.644   2.335 -0.0798 -0.0200  0.5326
19097TIP3   OH278781   4.996   3.275   2.672 -0.2996 -0.5677 -0.3276
19097TIP3    H178782   4.936   3.211   2.634  1.3441 -2.0401 -0.5537
19097TIP3    H278783   5.057   3.295   2.602 -0.6416  1.1377 -0.1874
19098TIP3   OH278784   3.004   2.749  11.864  0.5453  0.1247 -0.0060
19098TIP3    H178785   3.017   2.804  11.940 -0.3822  0.4073 -0.0396
19098TIP3    H278786   2.950   2.676  11.895  1.2055 -0.4276 -0.1131
19099TIP3   OH278787   6.296   5.017  12.966  0.1928 -0.0496 -0.2983
19099TIP3    H178788   6.253   5.081  12.909  0.8254  1.0146  0.3658
19099TIP3    H278789   6.266   5.041  13.054 -3.4835 -3.7235 -0.2547
19100TIP3   OH278790   3.566   2.900  11.948 -0.1173  0.6213  1.0028
19100TIP3    H178791   3.601   2.982  11.914 -0.3727  0.4614  0.3400
19100TIP3    H278792   3.550   2.847  11.870  2.1217 -0.9071  1.4774
19101TIP3   OH278793   3.680   4.188   6.008  0.7594  0.3111  0.0819
19101TIP3    H178794   3.713   4.199   5.918 -0.9889 -0.7579 -0.7396
19101TIP3    H278795   3.729   4.113   6.042  1.1694  0.4883 -0.1087
19102TIP3   OH278796   4.193   4.985   3.428  0.3695  0.0667  0.5214
19102TIP3    H178797   4.169   4.935   3.506  0.7126 -1.8673 -0.5360
19102TIP3    H278798   4.282   4.956   3.408  0.3633  0.6817 -0.4787
19103TIP3   OH278799   0.867   3.581  12.303  0.3471 -0.1697  0.9373
19103TIP3    H178800   0.843   3.655  12.247  0.0966 -0.1987  1.0069
19103TIP3    H278801   0.939   3.538  12.256  0.6471  0.2504  1.0079
19104TIP3   OH278802   2.142   6.548   0.757  0.0170 -0.4218 -0.4797
19104TIP3    H178803   2.173   6.513   0.674 -0.2077 -1.4020 -0.1634
19104TIP3    H278804   2.062   6.499   0.776 -0.2239  0.1613  0.0555
19105TIP3   OH278805   6.248   2.454   3.012  0.0067  0.4369 -0.3165
19105TIP3    H178806   6.341   2.463   2.990  0.7198 -4.0978 -0.0523
19105TIP3    H278807   6.210   2.410   2.936 -1.0034 -1.1764  1.0601
19106TIP3   OH278808   1.431   0.205   4.860  0.3405  0.5104 -0.4891
19106TIP3    H178809   1.425   0.293   4.899  1.9907  1.4045 -2.0941
19106TIP3    H278810   1.508   0.166   4.902 -0.8885 -0.5809  0.8685
19107TIP3   OH278811   4.499   4.774  11.319 -0.1546  0.4981 -0.1533
19107TIP3    H178812   4.483   4.698  11.265  1.7287 -0.0241 -0.0337
19107TIP3    H278813   4.583   4.809  11.289  0.1451  1.1490  1.3151
19108TIP3   OH278814   3.551   4.885   5.964  0.6287  0.4544  0.6216
19108TIP3    H178815   3.557   4.797   5.926  0.5255  0.3879  0.7582
19108TIP3    H278816   3.595   4.879   6.048 -0.5114  0.1890  1.2255
19109TIP3   OH278817   6.161   4.432   4.274  0.2597  0.2360 -0.0543
19109TIP3    H178818   6.236   4.373   4.284 -1.2147 -1.8565 -0.7006
19109TIP3    H278819   6.109   4.418   4.354  0.8363  2.1842  0.7167
19110TIP3   OH278820   6.219   1.021   0.409  0.2156  0.1554 -0.2286
19110TIP3    H178821   6.293   1.022   0.348  0.9100  0.8349  0.5882
19110TIP3    H278822   6.211   1.112   0.439 -2.7399  0.7554 -2.3601
19111TIP3   OH278823   6.361   0.666  15.077 -0.1430  0.1786 -0.2020
19111TIP3    H178824   6.286   0.690  15.024 -0.8258 -2.9584 -0.9005
19111TIP3    H278825   6.405   0.598  15.026  1.2258 -0.4369  1.6847
19112TIP3   OH278826   3.790   4.645  13.646 -0.6424 -0.5838 -0.1445
19112TIP3    H178827   3.804   4.561  13.603 -0.2527 -0.5367 -0.1082
19112TIP3    H278828   3.757   4.622  13.733  1.6395 -0.7774  0.7200
19113TIP3   OH278829   5.119   2.271  13.981  0.0455 -0.5360  0.2173
19113TIP3    H178830   5.213   2.283  13.968 -0.2374  0.4919 -0.9666
19113TIP3    H278831   5.088   2.356  14.011 -0.5430 -0.8313  0.4637
19114TIP3   OH278832   3.741   4.678  15.054 -0.1049 -0.3107 -0.6891
19114TIP3    H178833   3.815   4.655  14.998  0.6581  1.3507 -0.4502
19114TIP3    H278834   3.763   4.765  15.087 -1.6966 -0.2145  0.2239
19115TIP3   OH278835   4.503   2.457  10.949  0.0331  0.4964 -0.6189
19115TIP3    H178836   4.461   2.425  10.869  0.6658  0.4879 -0.9563
19115TIP3    H278837   4.589   2.489  10.920  0.2998  0.4231  0.0702
19116TIP3   OH278838   3.160   0.644  16.734 -0.5513 -0.0739  0.0887
19116TIP3    H178839   3.219   0.691  16.676 -0.9227 -0.3641 -0.5230
19116TIP3    H278840   3.106   0.713  16.774  0.4212  0.2303  0.9302
19117TIP3   OH278841   3.612   2.341  16.049  0.3280 -0.4234  0.3498
19117TIP3    H178842   3.658   2.361  15.968  0.1499 -1.2642  0.0449
19117TIP3    H278843   3.641   2.410  16.109  1.8033 -0.7778  0.0986
19118TIP3   OH278844   0.054   3.337   5.451 -0.0453  0.4009  0.2019
19118TIP3    H178845   0.147   3.334   5.429 -0.3471  0.2745 -1.1780
19118TIP3    H278846   0.015   3.269   5.397 -0.9252  0.3582  0.8769
19119TIP3   OH278847   5.363   3.621  14.525 -0.0810  0.1034 -0.3340
19119TIP3    H178848   5.418   3.613  14.602 -0.9722  1.9316  0.5487
19119TIP3    H278849   5.424   3.637  14.453  0.6054  2.3796  0.6569
19120TIP3   OH278850   6.372   5.203   0.611 -0.1643 -0.1556 -0.3522
19120TIP3    H178851   6.288   5.180   0.650 -0.9590  0.3272 -1.6979
19120TIP3    H278852   6.371   5.299   0.607  0.5908 -0.1344 -0.0700
19121TIP3   OH278853   1.964   1.060  14.111  0.3808 -0.0235 -0.3251
19121TIP3    H178854   2.015   0.988  14.073 -0.4222 -0.5801 -0.3824
19121TIP3    H278855   2.007   1.139  14.079  1.1397 -0.4729 -0.4594
19122TIP3   OH278856   4.201   5.889   2.655  0.3484  0.3096 -0.2421
19122TIP3    H178857   4.297   5.884   2.662  0.6479  2.2254 -1.9143
19122TIP3    H278858   4.179   5.828   2.584 -0.0024 -1.7998  1.5715
19123TIP3   OH278859   1.470   4.079   1.714 -0.0294  0.2688  0.2750
19123TIP3    H178860   1.487   4.022   1.639 -0.4842 -2.1947  1.9515
19123TIP3    H278861   1.412   4.029   1.770  0.9863  1.6416  2.7179
19124TIP3   OH278862   0.274   1.171  13.081  0.4951 -0.4115 -0.2019
19124TIP3    H178863   0.198   1.119  13.054  1.2235 -0.4248 -2.4323
19124TIP3    H278864   0.348   1.109  13.077  1.2945  0.5799 -2.4192
19125TIP3   OH278865   2.713   2.106  12.263  0.1289 -0.0773 -0.1737
19125TIP3    H178866   2.628   2.068  12.240  0.3377 -1.1294  0.7193
19125TIP3    H278867   2.729   2.077  12.353  1.5912 -0.1719 -0.4359
19126TIP3   OH278868   3.216   5.303   2.706  0.4380 -0.0937  0.1030
19126TIP3    H178869   3.169   5.380   2.740  1.4063 -0.3243  2.1338
19126TIP3    H278870   3.149   5.236   2.696  0.1117 -0.1731  2.1997
19127TIP3   OH278871   6.495   4.049  15.694 -0.6446  0.0563  0.2465
19127TIP3    H178872   6.544   4.114  15.644  3.9883 -2.3439  1.0953
19127TIP3    H278873   6.466   3.985  15.629  1.8294 -0.9802  0.0671
19128TIP3   OH278874   1.972   2.806  13.774 -0.8253 -0.5345  0.4245
19128TIP3    H178875   1.878   2.789  13.786 -1.2082 -1.1627 -2.6750
19128TIP3    H278876   1.993   2.766  13.690  2.0984  0.2348  0.6865
19129TIP3   OH278877   0.882   4.664   1.275  0.4365  0.3768 -0.1805
19129TIP3    H178878   0.798   4.643   1.234  0.4225  2.4924 -1.3949
19129TIP3    H278879   0.946   4.614   1.224  0.2336  1.5555 -1.6380
19130TIP3   OH278880   4.172   0.533   6.146 -0.0305  0.4522  0.6423
19130TIP3    H178881   4.191   0.441   6.167  0.1263 -0.3040 -2.3972
19130TIP3    H278882   4.110   0.529   6.074 -0.5515  2.7815  0.8866
19131TIP3   OH278883   4.356   3.357   0.825  1.0606 -0.1327  0.5247
19131TIP3    H178884   4.438   3.339   0.872  0.6273 -0.3668  1.1972
19131TIP3    H278885   4.287   3.343   0.890  0.5166  0.7348  0.1524
19132TIP3   OH278886   2.272   4.562  16.098 -0.2344  0.1013  0.2411
19132TIP3    H178887   2.254   4.537  16.188 -0.2672 -0.0265  0.1976
19132TIP3    H278888   2.188   4.551  16.052 -0.2613  0.3257  0.2301
19133TIP3   OH278889   4.713   0.013  11.955 -0.3037  0.3401 -0.5142
19133TIP3    H178890   4.723  -0.081  11.970 -0.2412  0.4982  0.5792
19133TIP3    H278891   4.730   0.052  12.041 -0.2527  1.3572 -0.9730
19134TIP3   OH278892   3.487   1.532   5.209  0.0311  0.0578  0.1777
19134TIP3    H178893   3.467   1.438   5.208 -1.5271  0.3694  0.1220
19134TIP3    H278894   3.531   1.548   5.126  0.5127 -0.6563  0.2844
19135TIP3   OH278895   4.557   2.084   5.596  0.2888 -0.1613 -0.3206
19135TIP3    H178896   4.563   2.096   5.691  1.8829 -0.0704 -0.4113
19135TIP3    H278897   4.467   2.055   5.581  0.6447 -2.4957  1.4761
19136TIP3   OH278898   1.358   2.888   3.285  0.1298  0.1586 -0.4052
19136TIP3    H178899   1.323   2.910   3.199 -0.8224 -1.0969 -0.3726
19136TIP3    H278900   1.322   2.955   3.344  0.3642  0.7193 -0.8927
19137TIP3   OH278901   5.597   5.938   2.684  0.0826 -0.1980 -0.0995
19137TIP3    H178902   5.632   5.964   2.769 -0.2059 -0.4461  0.0986
19137TIP3    H278903   5.672   5.946   2.624 -0.2331  2.0224 -0.2622
19138TIP3   OH278904   5.824   1.156   3.029 -0.3196 -0.0760  0.5205
19138TIP3    H178905   5.871   1.218   2.974 -2.4069 -0.1650 -1.5231
19138TIP3    H278906   5.833   1.072   2.983  0.1964 -0.7551  1.8141
19139TIP3   OH278907   3.091   1.064  17.235 -0.1655  0.2926  0.4957
19139TIP3    H178908   3.090   1.152  17.273  2.4105  0.6386 -0.0569
19139TIP3    H278909   3.132   1.010  17.302 -0.1838 -0.1319  0.1644
19140TIP3   OH278910   1.055   3.318   3.877  0.4638 -0.3930  0.0553
19140TIP3    H178911   1.023   3.327   3.787  2.0651 -1.3383 -0.6392
19140TIP3    H278912   1.135   3.370   3.879  0.3186 -0.1903  1.0260
19141TIP3   OH278913   6.607   0.828  12.909  0.9171  0.0407 -0.4751
19141TIP3    H178914   6.672   0.786  12.966 -0.7750  1.1291  2.4622
19141TIP3    H278915   6.655   0.898  12.865  1.9767  0.2419  0.9334
19142TIP3   OH278916   5.067   3.629  11.710 -0.0359  0.0355  0.2755
19142TIP3    H178917   5.154   3.635  11.749 -0.4880  1.8889  1.1029
19142TIP3    H278918   5.083   3.599  11.620  1.6356  1.8232 -0.0937
19143TIP3   OH278919   3.632   3.996  14.900 -0.4130 -0.2023  0.0675
19143TIP3    H178920   3.722   4.007  14.867 -0.0419 -1.1533  0.7125
19143TIP3    H278921   3.581   3.974  14.823  0.1713 -0.9878 -0.1064
19144TIP3   OH278922   0.625   4.735  13.580 -0.8509  0.0151 -0.1866
19144TIP3    H178923   0.718   4.733  13.559 -0.4310  0.7102  1.4636
19144TIP3    H278924   0.607   4.827  13.599 -1.3601 -0.4190  1.5815
19145TIP3   OH278925   3.868   5.970   4.804 -0.1421  0.0973  0.0321
19145TIP3    H178926   3.866   6.023   4.883 -2.0918  0.2435 -0.0787
19145TIP3    H278927   3.840   6.029   4.734 -0.6649 -0.6092 -0.3714
19146TIP3   OH278928   4.431   2.561   1.537  0.0476  0.2255 -0.1009
19146TIP3    H178929   4.352   2.596   1.497  0.3593 -1.2392 -2.1472
19146TIP3    H278930   4.401   2.483   1.585  0.1429  0.0697 -0.2922
19147TIP3   OH278931   4.769   2.201   2.240  0.1261 -0.1387  0.8468
19147TIP3    H178932   4.781   2.132   2.305  0.0039 -2.6311 -1.6290
19147TIP3    H278933   4.680   2.233   2.256  0.7221  0.6343  3.0110
19148TIP3   OH278934   6.260   4.158  12.103  0.3129 -0.5009  0.3141
19148TIP3    H178935   6.273   4.194  12.016  0.1589 -0.1752  0.4222
19148TIP3    H278936   6.340   4.110  12.122 -0.4976 -2.4634 -0.8915
19149TIP3   OH278937   3.659   6.033  13.544  0.5089  0.0764  0.6325
19149TIP3    H178938   3.597   6.037  13.617  0.0554 -2.9247  0.5526
19149TIP3    H278939   3.744   6.018  13.585  0.5718  0.3687  0.6095
19150TIP3   OH278940   6.009   0.940  11.932  0.2300  0.1721 -0.0421
19150TIP3    H178941   5.978   0.984  12.011 -1.6865 -0.6630 -0.2637
19150TIP3    H278942   5.953   0.974  11.862  0.0165 -1.1496 -0.5407
19151TIP3   OH278943   1.535   1.433   5.605  0.6751  0.9853 -0.0658
19151TIP3    H178944   1.532   1.355   5.549 -2.3612 -0.6200  2.0303
19151TIP3    H278945   1.613   1.421   5.659  2.0911  1.1748 -1.9738
19152TIP3   OH278946   6.651   1.438   0.120  0.3854 -0.7070  0.5713
19152TIP3    H178947   6.618   1.380   0.052 -2.0568  0.6819  0.4646
19152TIP3    H278948   6.722   1.389   0.161  1.7008 -1.7695 -2.6623
19153TIP3   OH278949   3.300   4.917   1.449  0.3347 -0.6074 -0.2689
19153TIP3    H178950   3.355   4.884   1.378 -0.6642 -2.3362 -0.2799
19153TIP3    H278951   3.296   4.846   1.513 -0.9623 -0.1047  0.2608
19154TIP3   OH278952   5.399   1.961   6.181 -0.0673  0.0434  0.3113
19154TIP3    H178953   5.322   1.963   6.239 -0.9976  2.5976 -0.8331
19154TIP3    H278954   5.467   2.007   6.231  0.1298 -0.5139  0.5657
19155TIP3   OH278955   4.291   3.803   5.532  0.3698  0.2521  0.3956
19155TIP3    H178956   4.292   3.897   5.546 -1.4462  0.2107  0.9774
19155TIP3    H278957   4.376   3.773   5.566  1.0934  1.6808 -0.0703
19156TIP3   OH278958   2.515   4.526  15.974  0.3047 -0.1413 -0.0919
19156TIP3    H178959   2.428   4.544  16.011 -0.1261 -0.3960 -0.9458
19156TIP3    H278960   2.497   4.475  15.895  1.2902 -0.9785  0.2105
19157TIP3   OH278961   4.509   6.542  14.644 -0.2534  0.1041 -0.0359
19157TIP3    H178962   4.532   6.566  14.554  1.2580  1.4341  0.6525
19157TIP3    H278963   4.415   6.556  14.650 -0.1084  1.6476 -0.9543
19158TIP3   OH278964   1.884   5.189  13.976 -0.5773  0.0349 -1.0703
19158TIP3    H178965   1.909   5.160  13.888 -0.3317 -0.0217 -0.9842
19158TIP3    H278966   1.934   5.269  13.990 -0.7348  0.1288 -1.0416
19159TIP3   OH278967   0.534   1.373   0.180 -0.2174  0.3595 -0.3129
19159TIP3    H178968   0.456   1.429   0.182 -1.9065 -1.8034 -1.2833
19159TIP3    H278969   0.550   1.350   0.271 -1.0941  0.3652 -0.1538
19160TIP3   OH278970   6.307   0.009   5.026  0.2663  0.7822 -0.2805
19160TIP3    H178971   6.303  -0.025   4.936  1.9790  0.1057 -0.1452
19160TIP3    H278972   6.287  -0.067   5.081  0.8962  0.7729 -0.0582
19161TIP3   OH278973   2.149   0.539  11.400  0.5607 -0.2438 -0.0288
19161TIP3    H178974   2.200   0.460  11.421 -0.0887 -1.3321 -2.2221
19161TIP3    H278975   2.134   0.533  11.306 -1.5297  1.3172  0.1473
19162TIP3   OH278976   6.129   4.131   5.638  0.4314  0.1224 -0.3464
19162TIP3    H178977   6.184   4.123   5.716  1.2459  1.1484 -0.7941
19162TIP3    H278978   6.111   4.041   5.611  1.7332 -0.2322 -0.0757
19163TIP3   OH278979   3.109   4.997  15.570 -0.1378  0.3454 -0.2287
19163TIP3    H178980   3.175   4.928  15.574  1.4976  1.8556  0.2659
19163TIP3    H278981   3.068   4.997  15.657 -0.1807 -0.0245 -0.2487
19164TIP3   OH278982   5.752   1.803   4.640  0.6796 -0.0123 -0.1390
19164TIP3    H178983   5.837   1.840   4.663  1.1099 -0.9458 -0.1595
19164TIP3    H278984   5.766   1.708   4.643 -0.8712 -0.2474  1.8121
19165TIP3   OH278985   2.468   2.381   5.557  0.0496  0.3512  0.1138
19165TIP3    H178986   2.522   2.415   5.628 -1.2740  2.2478  0.3022
19165TIP3    H278987   2.517   2.404   5.477  0.5738  0.0331  0.3387
19166TIP3   OH278988   5.555   1.390   2.212 -0.0072 -0.1592  0.3610
19166TIP3    H178989   5.638   1.434   2.192 -1.0963  1.1482 -1.6072
19166TIP3    H278990   5.544   1.402   2.306  1.7021  0.2223  0.5451
19167TIP3   OH278991   3.749   1.483   2.667 -0.0581  0.1221 -0.0271
19167TIP3    H178992   3.732   1.559   2.612 -3.0219 -1.5396 -1.6572
19167TIP3    H278993   3.719   1.509   2.754 -1.2997  0.7684 -0.6256
19168TIP3   OH278994   1.081   2.159   4.061  0.5356 -0.4623 -1.0920
19168TIP3    H178995   0.987   2.173   4.069  0.8387  0.6953  1.4187
19168TIP3    H278996   1.094   2.133   3.970 -2.1305 -0.1380 -1.6409
19169TIP3   OH278997   3.176   4.222   0.206  0.1875  0.2974 -0.1028
19169TIP3    H178998   3.249   4.171   0.172 -0.1481  0.7512 -1.6081
19169TIP3    H278999   3.206   4.313   0.202 -0.5850  0.5301 -1.1698
19170TIP3   OH279000   0.342   5.585   5.481  0.0680  0.2764  0.2458
19170TIP3    H179001   0.359   5.493   5.500 -0.1615  0.4391  1.2786
19170TIP3    H279002   0.361   5.594   5.388 -0.7612 -1.0079 -0.0675
19171TIP3   OH279003   3.141   6.362   3.993  0.5773 -0.3336  0.3422
19171TIP3    H179004   3.173   6.419   4.062 -0.3805  0.0423  0.4828
19171TIP3    H279005   3.120   6.279   4.037  1.2368 -0.5441  0.2676
19172TIP3   OH279006   1.300   0.165   2.355 -0.3509  0.5391  0.3100
19172TIP3    H179007   1.252   0.093   2.394 -0.8349  1.1296  0.8203
19172TIP3    H279008   1.375   0.124   2.312 -0.7162 -0.2766  0.4459
19173TIP3   OH279009   0.820   5.495   0.524  0.2187  0.3450  0.3796
19173TIP3    H179010   0.908   5.481   0.558 -0.2361 -2.0549  0.7629
19173TIP3    H279011   0.809   5.428   0.457 -1.4719  0.2540  0.7008
19174TIP3   OH279012   5.083   5.335  11.841  0.2419 -0.4532 -0.1291
19174TIP3    H179013   4.995   5.336  11.804 -0.0037 -0.7587  0.4423
19174TIP3    H279014   5.112   5.426  11.837 -0.7345 -0.0690  1.1737
19175TIP3   OH279015   2.560   4.336  12.705  0.5586  0.0599  0.3489
19175TIP3    H179016   2.478   4.301  12.741 -0.5942  0.9383 -1.3048
19175TIP3    H279017   2.555   4.430  12.722  1.3113  0.0937  0.3928
19176TIP3   OH279018   6.194   1.332   3.513  0.1175 -0.1096  0.3132
19176TIP3    H179019   6.260   1.398   3.536  0.4555 -0.7398  1.2175
19176TIP3    H279020   6.116   1.358   3.562 -0.1107  0.2461 -0.2217
19177TIP3   OH279021   2.957   5.090   0.440  0.2441 -0.0707 -0.4521
19177TIP3    H179022   2.967   5.183   0.420 -0.4001 -0.0719 -0.8080
19177TIP3    H279023   3.023   5.047   0.386  0.6261  0.1869 -0.1945
19178TIP3   OH279024   3.387   2.158  11.913  0.1329 -0.1097  0.0790
19178TIP3    H179025   3.401   2.252  11.907 -2.3078  0.3037 -0.2152
19178TIP3    H279026   3.312   2.148  11.971  0.7706 -1.9395  0.6654
19179TIP3   OH279027   5.840   4.571   5.627 -0.0960  0.0364 -0.1829
19179TIP3    H179028   5.921   4.526   5.604  0.3658  1.7551 -2.2594
19179TIP3    H279029   5.869   4.657   5.657 -1.0982  0.1505  0.4915
19180TIP3   OH279030   3.556   0.990   2.557  0.8128  0.0449  0.1875
19180TIP3    H179031   3.539   0.990   2.463 -0.6478 -0.4918  0.4306
19180TIP3    H279032   3.599   1.074   2.573 -0.3331  0.8496 -0.7304
19181TIP3   OH279033   4.458   6.443  15.180  0.7232 -0.4095  0.5907
19181TIP3    H179034   4.525   6.510  15.187 -0.1975  0.8349 -1.4495
19181TIP3    H279035   4.505   6.364  15.154  1.5306  0.1357  0.3591
19182TIP3   OH279036   0.468   1.797   2.561 -0.1577 -0.1736 -0.8257
19182TIP3    H179037   0.492   1.871   2.616  0.1544  0.3235 -1.6194
19182TIP3    H279038   0.380   1.818   2.529 -0.5752 -0.7325 -0.0645
19183TIP3   OH279039   5.029   3.369   5.098  0.0095  0.0427 -0.0271
19183TIP3    H179040   5.119   3.341   5.116  0.2832  0.7566 -0.2424
19183TIP3    H279041   5.003   3.418   5.176 -0.5485 -0.9649  0.4434
19184TIP3   OH279042   1.832   6.074  11.472 -0.1176 -0.6613  0.3780
19184TIP3    H179043   1.764   6.017  11.436 -0.4138 -0.1172  0.0676
19184TIP3    H279044   1.888   6.015  11.523 -1.2419 -0.9988  1.2505
19185TIP3   OH279045   0.580   1.592  12.967  0.1602 -0.4226  0.5530
19185TIP3    H179046   0.621   1.531  12.905 -0.6104 -1.6003  1.1616
19185TIP3    H279047   0.495   1.552  12.987  0.3902 -0.0843  2.3660
19186TIP3   OH279048   0.828   3.104   5.300  0.4425  0.2954 -0.3745
19186TIP3    H179049   0.850   3.141   5.215 -0.6435  1.1812 -0.2998
19186TIP3    H279050   0.746   3.148   5.325  1.2773  0.8492  1.5998
19187TIP3   OH279051   5.619   1.444  15.157  0.1907 -0.3018  0.7282
19187TIP3    H179052   5.558   1.463  15.228  0.6670 -1.6760  1.5404
19187TIP3    H279053   5.619   1.349  15.151  1.1092 -0.2513 -0.2864
19188TIP3   OH279054   6.405   3.538  13.671  0.0145 -0.0433 -0.1883
19188TIP3    H179055   6.426   3.522  13.579 -0.3128 -1.0010 -0.1024
19188TIP3    H279056   6.340   3.472  13.694 -0.3625  0.5615  0.5749
19189TIP3   OH279057   6.743   0.158   3.177  0.0558 -0.0837 -0.0675
19189TIP3    H179058   6.649   0.142   3.171 -0.0669 -0.2810  1.7262
19189TIP3    H279059   6.751   0.236   3.232  0.9356  0.2943 -0.6976
19190TIP3   OH279060   4.259   3.851  11.125  0.1503 -0.2125 -0.2656
19190TIP3    H179061   4.201   3.927  11.127  1.1204  0.5266  0.2880
19190TIP3    H279062   4.232   3.799  11.201  0.5249  0.3705  0.2710
19191TIP3   OH279063   4.492   5.901   5.844 -0.2081 -0.2516  0.1775
19191TIP3    H179064   4.452   5.939   5.923 -0.0546 -1.6086  0.9311
19191TIP3    H279065   4.574   5.863   5.875  1.2047  1.5156 -1.1499
19192TIP3   OH279066   2.194   0.358  17.225 -0.2430 -0.3697 -0.3983
19192TIP3    H179067   2.235   0.382  17.141 -0.0480 -1.8144 -0.7590
19192TIP3    H279068   2.154   0.439  17.257  0.7520  0.5028 -1.2760
19193TIP3   OH279069   5.975   2.596   3.595 -0.2366 -0.2114  0.0471
19193TIP3    H179070   6.043   2.561   3.652  0.0962  1.3306  0.6296
19193TIP3    H279071   5.958   2.526   3.532  0.8321 -1.1681  0.7935
19194TIP3   OH279072   2.753   4.741  14.044 -0.6284 -0.1410 -0.1155
19194TIP3    H179073   2.670   4.759  14.001 -0.6027  0.9579  0.2792
19194TIP3    H279074   2.809   4.706  13.974 -1.5799 -1.4726 -0.2525
19195TIP3   OH279075   0.216   0.523  16.968  0.1115 -0.2972 -0.0251
19195TIP3    H179076   0.168   0.586  16.914  1.3497  0.1213 -0.6971
19195TIP3    H279077   0.244   0.574  17.045 -1.5971 -0.8762  1.0339
19196TIP3   OH279078   1.897   3.806  16.604  0.2357  0.4232  0.1177
19196TIP3    H179079   1.965   3.739  16.605  0.2698  0.4505 -0.2706
19196TIP3    H279080   1.873   3.817  16.696  0.4408  0.0946  0.2122
19197TIP3   OH279081   4.333   3.641  16.474  0.2567  0.7221  0.2508
19197TIP3    H179082   4.382   3.577  16.526 -0.9053  1.2267  2.0655
19197TIP3    H279083   4.296   3.590  16.402  0.0054 -0.5296  1.2192
19198TIP3   OH279084   4.869   0.291  13.322  0.2955  0.0849 -0.2359
19198TIP3    H179085   4.821   0.217  13.360  1.2624 -0.1463  0.5622
19198TIP3    H279086   4.815   0.319  13.248 -1.4657  0.3443  1.1015
19199TIP3   OH279087   0.096   1.945   0.049  0.8068 -0.4540  0.3074
19199TIP3    H179088   0.062   1.995  -0.026  1.7850 -1.8324 -1.1143
19199TIP3    H279089   0.034   1.964   0.120 -0.3578  0.6288 -0.9351
19200TIP3   OH279090   1.791   2.211  13.162  0.3649  0.0058 -0.3659
19200TIP3    H179091   1.725   2.273  13.192  0.4326 -1.1142  2.3068
19200TIP3    H279092   1.740   2.138  13.126  0.2594  0.5977 -1.4754
19201TIP3   OH279093   0.433   2.476   1.533  0.1710 -0.3155  0.0492
19201TIP3    H179094   0.401   2.563   1.509 -0.4773 -0.6631 -0.3924
19201TIP3    H279095   0.380   2.416   1.480  0.8567 -0.9615  0.0815
19202TIP3   OH279096   5.265   1.703  11.283 -0.7607  0.4655 -0.1950
19202TIP3    H179097   5.359   1.720  11.280 -0.7989  0.7871 -3.1994
19202TIP3    H279098   5.257   1.617  11.324  1.0365 -0.4135 -1.5563
19203TIP3   OH279099   2.752   6.295   3.301 -0.3697 -0.2782 -0.0051
19203TIP3    H179100   2.667   6.329   3.271 -0.4002 -0.3869 -0.0432
19203TIP3    H279101   2.743   6.200   3.294 -0.2885 -0.2943  0.1109
19204TIP3   OH279102   2.088   1.576  11.190  0.2609  0.3708  0.3089
19204TIP3    H179103   2.121   1.656  11.232  0.6020 -0.0861  0.9250
19204TIP3    H279104   2.158   1.512  11.201 -0.7758 -0.6130  1.6358
19205TIP3   OH279105   6.783   5.825   7.060 -0.3358 -0.1966 -0.1926
19205TIP3    H179106   6.772   5.919   7.078 -1.5212 -0.4526  0.5036
19205TIP3    H279107   6.850   5.822   6.993  0.8556  1.0753  0.8664
19206TIP3   OH279108   5.859   4.444   1.635  0.3096  0.6483 -0.1002
19206TIP3    H179109   5.846   4.535   1.610 -0.6590  0.3697 -0.6588
19206TIP3    H279110   5.803   4.431   1.712  0.0900  0.4057 -0.2992
19207TIP3   OH279111   2.781   1.696  15.489  0.2473 -0.5830 -0.1252
19207TIP3    H179112   2.736   1.612  15.493  1.1362 -1.0295  1.6911
19207TIP3    H279113   2.715   1.760  15.514 -0.4307 -0.7214 -1.4988
19208TIP3   OH279114   1.925   1.791   0.775 -0.2166  0.4268 -0.0101
19208TIP3    H179115   2.018   1.770   0.790  0.3852  2.1949 -1.0027
19208TIP3    H279116   1.920   1.886   0.784 -1.7691  0.4514 -0.8055
19209TIP3   OH279117   2.794   2.563  10.596  0.3550  0.2933 -0.3760
19209TIP3    H179118   2.791   2.536  10.688  0.9678  0.1830 -0.3837
19209TIP3    H279119   2.723   2.514  10.555 -1.5252  2.1735  0.4910
19210TIP3   OH279120   3.958   1.725  14.298  0.1969 -0.2294  0.5763
19210TIP3    H179121   4.038   1.759  14.258 -0.3389 -1.1191 -1.3551
19210TIP3    H279122   3.890   1.786  14.271 -0.6982 -2.3549 -2.5753
19211TIP3   OH279123   6.287   2.690  13.843 -0.4344 -0.0960  0.1075
19211TIP3    H179124   6.378   2.719  13.844 -0.7712  1.1120 -1.2643
19211TIP3    H279125   6.289   2.609  13.791  0.0089 -0.7350  1.0878
19212TIP3   OH279126   2.634   0.291   2.848 -0.1199 -0.2150 -0.3546
19212TIP3    H179127   2.632   0.374   2.802 -1.9836 -0.3812 -0.6570
19212TIP3    H279128   2.627   0.225   2.779 -2.5337 -0.4763  0.0658
19213TIP3   OH279129   3.095   0.685   3.218  0.2176  0.0832 -0.1439
19213TIP3    H179130   3.060   0.617   3.276 -2.2442 -2.0076 -3.7412
19213TIP3    H279131   3.113   0.640   3.136  2.4335  3.0916 -1.4970
19214TIP3   OH279132   6.734   1.362  16.038 -0.1201 -0.7061 -0.3641
19214TIP3    H179133   6.695   1.376  15.951 -2.4429 -1.1294  0.5126
19214TIP3    H279134   6.769   1.273  16.034  0.7808 -0.3273 -1.1846
19215TIP3   OH279135   5.780   5.319  14.478 -0.3271  0.2105  0.2521
19215TIP3    H179136   5.818   5.232  14.489 -0.4743  0.4387  4.0011
19215TIP3    H279137   5.847   5.378  14.513 -0.6796  1.5398 -1.2309
19216TIP3   OH279138   1.214   1.584  12.732  0.8902  0.2043  0.0506
19216TIP3    H179139   1.160   1.619  12.803 -0.2753 -1.3627 -0.0052
19216TIP3    H279140   1.179   1.496  12.716  0.5097  0.7832 -3.0531
19217TIP3   OH279141   1.952   1.721  12.081 -0.0001 -0.7138  0.1873
19217TIP3    H179142   2.037   1.718  12.039 -0.1158 -1.4640  0.0036
19217TIP3    H279143   1.970   1.706  12.174  0.3959  2.0980  0.6792
19218TIP3   OH279144   3.435   6.048  13.322 -0.2910  0.9141  0.9972
19218TIP3    H179145   3.361   6.024  13.377 -0.0921 -0.3100  0.7480
19218TIP3    H279146   3.508   6.058  13.384  0.0296 -0.8581  0.9612
19219TIP3   OH279147   4.294   4.852  13.949  0.1400  0.5794 -0.3549
19219TIP3    H179148   4.241   4.785  13.906  1.0854 -1.1072  0.9934
19219TIP3    H279149   4.382   4.813  13.955  1.1988  2.6651 -1.1041
19220TIP3   OH279150   5.721   5.016   0.444  0.1073 -0.3004  0.0033
19220TIP3    H179151   5.809   5.027   0.409  0.0341 -1.9073 -0.7596
19220TIP3    H279152   5.687   5.105   0.452  0.9585  0.2253 -1.8431
19221TIP3   OH279153   2.417   3.134  14.639 -0.1300 -0.3930 -0.1384
19221TIP3    H179154   2.364   3.206  14.606 -0.3560 -0.3295  0.3567
19221TIP3    H279155   2.507   3.167  14.637 -0.1823 -0.2600 -0.3299
19222TIP3   OH279156   5.402   0.378   0.061  0.3358 -0.4224 -0.8669
19222TIP3    H179157   5.399   0.473   0.077  0.5989 -0.1866 -2.0573
19222TIP3    H279158   5.375   0.338   0.143  0.5690  0.6853 -0.2352
19223TIP3   OH279159   2.505   5.227  15.919 -0.2327 -0.5854  0.4963
19223TIP3    H179160   2.515   5.234  15.824 -0.4611  0.7726  0.5530
19223TIP3    H279161   2.411   5.215  15.932 -0.2470 -0.4059  0.5615
19224TIP3   OH279162   1.887   4.441   0.393  0.0664  0.9408  0.4165
19224TIP3    H179163   1.890   4.520   0.446 -0.2288  0.8915  0.5100
19224TIP3    H279164   1.847   4.468   0.311  0.6174  1.0381  0.1823
19225TIP3   OH279165   0.903   4.847  17.302 -0.0724 -0.0004  0.3614
19225TIP3    H179166   0.930   4.934  17.272 -0.0095 -0.5269 -1.1736
19225TIP3    H279167   0.978   4.791  17.286 -0.3670 -0.4921  0.6654
19226TIP3   OH279168   4.099   6.808  13.732 -0.2396  0.3145  0.1640
19226TIP3    H179169   4.161   6.850  13.792  1.1682 -2.1973  0.6020
19226TIP3    H279170   4.017   6.856  13.745  1.2418  2.9827  0.4420
19227TIP3   OH279171   0.231   5.680   0.980  0.5218  0.0698 -0.7620
19227TIP3    H179172   0.317   5.666   0.939  0.6340  0.1414 -0.5539
19227TIP3    H279173   0.224   5.609   1.045 -0.4998 -1.2584 -2.2355
19228TIP3   OH279174   4.168   1.880   4.860 -1.1935 -0.4223 -0.4255
19228TIP3    H179175   4.197   1.823   4.789 -1.7672  0.7636 -1.6599
19228TIP3    H279176   4.112   1.825   4.914 -0.5531 -1.4121 -0.7473
19229TIP3   OH279177   0.903   2.573   6.411  0.3420 -0.2110  0.4163
19229TIP3    H179178   0.960   2.649   6.405  0.2650 -0.2051 -0.4362
19229TIP3    H279179   0.961   2.498   6.405  0.3616 -0.2169  0.6665
19230TIP3   OH279180   4.447   2.656  12.066  0.2804  0.1601 -0.1542
19230TIP3    H179181   4.392   2.710  12.123  1.1850  0.9050  0.0276
19230TIP3    H279182   4.526   2.638  12.118  0.6989  0.0417 -0.8185
19231TIP3   OH279183   4.813   6.359   0.564  0.2923 -0.9358  0.3275
19231TIP3    H179184   4.721   6.381   0.553  0.6562  0.3440 -0.3328
19231TIP3    H279185   4.847   6.355   0.474  1.1647 -0.0729  0.6043
19232TIP3   OH279186   4.749   2.385  13.602 -0.0265 -0.4037 -0.4950
19232TIP3    H179187   4.698   2.452  13.647 -0.8480 -0.7357 -0.9279
19232TIP3    H279188   4.819   2.363  13.664 -1.0951 -0.8034  0.6030
19233TIP3   OH279189   4.018   6.679  14.107 -0.1438  0.1500 -0.5355
19233TIP3    H179190   4.099   6.709  14.148 -1.3380  2.3324  0.4018
19233TIP3    H279191   4.046   6.643  14.023  1.8570  0.1574  0.0740
19234TIP3   OH279192   5.006   3.708   3.710 -0.3998  0.5846 -0.4442
19234TIP3    H179193   5.071   3.752   3.765  3.3837 -2.1200 -2.3069
19234TIP3    H279194   5.001   3.761   3.631  1.8663 -0.5389 -1.4406
19235TIP3   OH279195   3.922   1.206  16.203 -0.0914  0.0231 -0.2101
19235TIP3    H179196   3.994   1.144  16.191 -0.3082 -0.4021  0.6211
19235TIP3    H279197   3.847   1.153  16.227 -0.8746  0.4078 -1.6624
19236TIP3   OH279198   5.262   5.512  15.867 -0.0247 -0.0980 -0.0150
19236TIP3    H179199   5.294   5.462  15.942  0.6843 -0.7962 -0.7705
19236TIP3    H279200   5.207   5.451  15.819 -0.9894  0.5363  0.2563
19237TIP3   OH279201   1.363   1.087  15.172  0.2258  0.1955  0.8582
19237TIP3    H179202   1.341   1.179  15.181  0.0972  0.2965 -0.2888
19237TIP3    H279203   1.353   1.050  15.260 -0.9127  1.0217  1.0884
19238TIP3   OH279204   6.782   2.246   4.583  0.1334  0.1129  0.4023
19238TIP3    H179205   6.830   2.268   4.663  1.7649  1.4525 -0.8843
19238TIP3    H279206   6.822   2.300   4.515 -1.5853 -0.5705 -1.2354
19239TIP3   OH279207   1.431   2.248   1.589 -1.2548 -0.5517 -0.0155
19239TIP3    H179208   1.526   2.238   1.585 -1.5135 -3.4286 -1.3799
19239TIP3    H279209   1.408   2.292   1.507 -1.1334  0.1070  0.2962
19240TIP3   OH279210   3.012   2.092   3.564  0.0927 -0.4483 -0.0461
19240TIP3    H179211   3.063   2.143   3.501  0.0985 -0.9759 -0.4757
19240TIP3    H279212   2.921   2.108   3.539  0.1081 -1.2511 -0.6840
19241TIP3   OH279213   2.519   4.759   0.358  0.1145 -0.9188 -0.2538
19241TIP3    H179214   2.429   4.752   0.390  0.2279  0.3257  0.3655
19241TIP3    H279215   2.562   4.819   0.418  1.5574 -1.9912 -0.1645
19242TIP3   OH279216   0.335   3.426   0.165  0.4346  0.5980  0.3131
19242TIP3    H179217   0.389   3.402   0.090 -0.6949  0.3055 -0.4245
19242TIP3    H279218   0.246   3.403   0.139  0.0679  0.1223  1.8915
19243TIP3   OH279219   3.780   1.449   1.303  0.4603 -0.6380 -0.1640
19243TIP3    H179220   3.745   1.368   1.268  0.9067 -0.9172  0.0213
19243TIP3    H279221   3.732   1.518   1.258  1.4876 -0.9691 -1.8627
19244TIP3   OH279222   4.661   3.473  11.823 -0.4594  0.0325  0.1293
19244TIP3    H179223   4.686   3.464  11.915  1.3755  1.5734 -0.1551
19244TIP3    H279224   4.565   3.467  11.824 -0.5521  0.9186  2.2517
19245TIP3   OH279225   5.918   5.080   0.914  0.2523  0.0575  0.9793
19245TIP3    H179226   6.008   5.072   0.882  0.2024 -0.6175  0.9900
19245TIP3    H279227   5.920   5.044   1.002  0.1543  0.8901  1.3264
19246TIP3   OH279228   1.740   3.029  10.727 -0.4491 -0.7779  0.0227
19246TIP3    H179229   1.832   3.006  10.714 -0.4583 -0.2835 -1.0466
19246TIP3    H279230   1.710   3.057  10.640 -1.3007  0.1561  0.5980
19247TIP3   OH279231   2.440   0.560  11.494 -0.0025 -0.5807  0.0058
19247TIP3    H179232   2.425   0.531  11.404  2.4228 -0.9243 -0.3711
19247TIP3    H279233   2.407   0.489  11.548  0.9241 -1.6052 -0.7345
19248TIP3   OH279234   3.503   4.340   1.189 -0.3129 -0.3973 -0.2191
19248TIP3    H179235   3.471   4.423   1.224 -2.3775 -1.0689 -0.3996
19248TIP3    H279236   3.503   4.353   1.094 -0.0041 -0.3871 -0.2178
19249TIP3   OH279237   6.087   5.156  12.782  0.5117  0.2781  0.1860
19249TIP3    H179238   6.029   5.151  12.705  1.5025  1.1245 -0.6505
19249TIP3    H279239   6.144   5.231  12.764  0.6733  0.5808  1.8341
19250TIP3   OH279240   1.388   2.750  16.385 -0.4920  0.7288 -0.2622
19250TIP3    H179241   1.365   2.798  16.464  0.3597 -0.8643  1.0333
19250TIP3    H279242   1.379   2.813  16.314  0.5502  2.7771  1.3277
19251TIP3   OH279243   3.358   5.586  16.299  0.1396  0.4490  0.3298
19251TIP3    H179244   3.321   5.506  16.335 -1.2359  0.9467  0.0863
19251TIP3    H279245   3.394   5.561  16.214 -2.1721  0.4567 -0.7220
19252TIP3   OH279246   1.034   3.757   1.295 -0.1521 -0.1831 -0.0392
19252TIP3    H179247   1.019   3.780   1.204  0.0167 -4.1402 -1.2514
19252TIP3    H279248   0.967   3.692   1.315  0.1628  0.1732  2.5253
19253TIP3   OH279249   6.144   3.659  11.090  0.3420 -0.9006  0.2283
19253TIP3    H179250   6.087   3.735  11.078 -0.2698 -1.5693 -1.2700
19253TIP3    H279251   6.232   3.695  11.092 -0.0624  0.1555  2.6368
19254TIP3   OH279252   0.097   3.883   0.258  0.2121 -0.0896  0.3469
19254TIP3    H179253   0.142   3.967   0.268  0.5715 -0.1399 -0.6895
19254TIP3    H279254   0.168   3.818   0.251 -0.0350 -0.7670  2.8969
19255TIP3   OH279255   2.646   5.890  16.195  0.4654 -0.2371 -0.0553
19255TIP3    H179256   2.730   5.932  16.181  0.5273  0.2352  1.4834
19255TIP3    H279257   2.649   5.860  16.286 -2.1049  2.5239  1.1486
19256TIP3   OH279258   2.992   4.164   1.621  0.1731 -0.0029  0.5741
19256TIP3    H179259   3.070   4.160   1.567  0.8760  0.5953  1.5136
19256TIP3    H279260   2.947   4.081   1.605  0.4168  0.1109 -0.8113
19257TIP3   OH279261   3.363   6.351  11.120  0.1056  0.2095 -0.1665
19257TIP3    H179262   3.416   6.329  11.197 -0.3992 -0.8541 -0.0994
19257TIP3    H279263   3.417   6.411  11.070  1.9054 -1.7558 -0.6898
19258TIP3   OH279264   6.701   3.275  12.885  0.5715  0.0430 -0.4797
19258TIP3    H179265   6.640   3.347  12.903 -0.3106 -0.7832 -0.0102
19258TIP3    H279266   6.767   3.282  12.953  0.5877  0.5122 -0.5412
19259TIP3   OH279267   4.669   0.683  12.753  0.0248 -0.1426  0.7784
19259TIP3    H179268   4.592   0.739  12.738  0.6531  0.3982 -0.5932
19259TIP3    H279269   4.709   0.718  12.832 -0.0748  0.8192  0.4168
19260TIP3   OH279270   2.470   5.174   3.981 -0.2020  0.5852  0.2381
19260TIP3    H179271   2.468   5.216   3.895 -1.7233 -0.2483 -0.1561
19260TIP3    H279272   2.467   5.247   4.043  1.8565  1.2551 -0.3491
19261TIP3   OH279273   0.416   3.972   3.943  0.6580  0.4076 -0.0287
19261TIP3    H179274   0.460   3.989   3.860  1.0148  2.1593  0.4623
19261TIP3    H279275   0.428   4.053   3.993  0.0909 -0.4420  1.5680
19262TIP3   OH279276   3.485   0.225   0.711  0.1166 -0.0716  0.0458
19262TIP3    H179277   3.534   0.289   0.764 -1.3946  1.1625  0.0369
19262TIP3    H279278   3.449   0.164   0.775  1.0175 -0.5334  0.1208
19263TIP3   OH279279   0.854   2.526   0.663 -0.3525 -0.2462  0.2384
19263TIP3    H179280   0.939   2.569   0.662 -0.4483  0.0277  1.3912
19263TIP3    H279281   0.813   2.550   0.580  1.3168 -1.7246 -1.0705
19264TIP3   OH279282   5.338   4.126  14.539 -0.0249  0.2851  0.6591
19264TIP3    H179283   5.253   4.102  14.576 -0.4965  1.9034  0.7162
19264TIP3    H279284   5.402   4.078  14.592 -0.9066 -1.4530  0.2004
19265TIP3   OH279285   4.424   3.683   5.945  0.2622  0.1570 -0.1375
19265TIP3    H179286   4.498   3.718   5.995  0.7017  1.0545 -1.3559
19265TIP3    H279287   4.374   3.761   5.920 -1.5483 -0.4840  1.3027
19266TIP3   OH279288   6.287   4.827  15.405 -0.2858  0.2597  0.9065
19266TIP3    H179289   6.299   4.798  15.314 -0.5955 -0.3048  1.0401
19266TIP3    H279290   6.314   4.919  15.405 -1.4923  0.6336 -0.0305
19267TIP3   OH279291   3.426   6.351  13.970 -0.3986 -0.5405 -0.0103
19267TIP3    H179292   3.375   6.404  14.032 -0.2146  0.3295 -0.5790
19267TIP3    H279293   3.463   6.415  13.909  0.0950 -1.3070 -0.5327
19268TIP3   OH279294   1.595   2.892   5.135 -0.0848 -0.5408  0.4065
19268TIP3    H179295   1.589   2.814   5.080 -0.0895 -0.5468  0.4156
19268TIP3    H279296   1.651   2.952   5.085 -2.3855  0.6006 -0.9495
19269TIP3   OH279297   3.162   1.944  14.598 -0.1152 -0.0480 -0.4288
19269TIP3    H179298   3.089   1.974  14.544  0.2032  0.3063 -0.6667
19269TIP3    H279299   3.208   2.024  14.623 -0.0227 -0.2404  0.0323
19270TIP3   OH279300   4.707   4.953   5.671 -0.8089 -0.4057  0.0862
19270TIP3    H179301   4.649   4.906   5.732 -1.2548  1.6188  1.2989
19270TIP3    H279302   4.653   4.966   5.593 -0.7633 -1.6233 -0.1749
19271TIP3   OH279303   5.004   6.596  11.297  1.0358  0.0001  0.9730
19271TIP3    H179304   5.097   6.621  11.305  1.5402 -1.4648  0.0835
19271TIP3    H279305   4.995   6.569  11.206 -0.1517 -0.3345  1.1819
19272TIP3   OH279306   6.368   3.803  15.599  0.4298 -0.2223 -0.0331
19272TIP3    H179307   6.332   3.823  15.685  1.3080  0.4161  0.2016
19272TIP3    H279308   6.302   3.749  15.557 -0.3796  0.1578  0.7267
19273TIP3   OH279309   5.219   6.485   5.247  0.6348  0.2707  1.0942
19273TIP3    H179310   5.251   6.423   5.312 -0.4653 -0.7510  0.7014
19273TIP3    H279311   5.203   6.432   5.169 -2.3724  0.5571  1.3725
19274TIP3   OH279312   4.206   3.836  14.485 -0.4628 -0.5672 -0.2738
19274TIP3    H179313   4.142   3.791  14.541 -0.4775 -0.3769 -0.1335
19274TIP3    H279314   4.280   3.776  14.479  0.0557 -0.0865  0.9701
19275TIP3   OH279315   4.658   6.689   2.058 -0.1732  0.4769  0.0783
19275TIP3    H179316   4.629   6.758   1.998  1.2675  0.4456 -0.6975
19275TIP3    H279317   4.680   6.734   2.139  1.2037  1.0236 -0.5739
19276TIP3   OH279318   3.214   3.534   5.701 -1.0791  0.4629  0.8985
19276TIP3    H179319   3.174   3.584   5.772 -1.3229 -1.2898  2.0770
19276TIP3    H279320   3.200   3.442   5.726  0.7944 -0.2116 -0.3044
19277TIP3   OH279321   2.840   1.623   5.293 -0.3332  0.3459 -0.5738
19277TIP3    H179322   2.838   1.699   5.350 -1.4630  0.5840 -0.9043
19277TIP3    H279323   2.816   1.549   5.350 -0.2148  0.3915 -0.4663
19278TIP3   OH279324   0.259   4.186  10.995 -0.0879  0.5229 -0.1511
19278TIP3    H179325   0.196   4.239  10.946 -0.1122  0.4158 -0.2365
19278TIP3    H279326   0.313   4.145  10.927 -0.3219  0.1263 -0.1020
19279TIP3   OH279327   1.822   4.137  10.447  0.6749 -0.2143  0.0296
19279TIP3    H179328   1.771   4.214  10.475 -1.3619 -0.8582 -1.7117
19279TIP3    H279329   1.785   4.064  10.497  2.6396 -0.1833  1.7168
19280TIP3   OH279330   6.271   1.943   2.602  0.1185 -0.1017 -0.4544
19280TIP3    H179331   6.321   2.015   2.563  1.1136 -0.1201  0.7102
19280TIP3    H279332   6.338   1.878   2.623 -0.5313 -0.5473  0.2515
19281TIP3   OH279333   6.296   4.455  16.823  0.5739 -0.2522 -0.4276
19281TIP3    H179334   6.234   4.509  16.775 -0.9956 -1.9908 -0.4402
19281TIP3    H279335   6.279   4.476  16.915  1.2880  0.6117 -0.4682
19282TIP3   OH279336   0.227   3.707  13.872 -0.5159  0.1782  0.3562
19282TIP3    H179337   0.316   3.686  13.842 -0.3199 -1.1444  1.7547
19282TIP3    H279338   0.194   3.625  13.909 -3.1476  0.0543 -1.9343
19283TIP3   OH279339   3.443   5.049  15.691 -0.7499  0.1033 -0.3534
19283TIP3    H179340   3.376   5.081  15.751  0.0850  2.5934 -0.6685
19283TIP3    H279341   3.442   4.954  15.703 -1.9586  0.3584  2.1344
19284TIP3   OH279342   2.903   1.940   3.758  0.0587 -0.5346  0.4318
19284TIP3    H179343   2.827   1.900   3.716  0.4911 -1.5536  0.5688
19284TIP3    H279344   2.946   1.990   3.689 -0.3258 -0.5691  0.1660
19285TIP3   OH279345   6.485   5.565  16.489  0.5846  0.2898 -0.4200
19285TIP3    H179346   6.422   5.493  16.500 -0.0555  0.9233  0.2252
19285TIP3    H279347   6.440   5.628  16.433 -0.6067  2.0777  2.3414
19286TIP3   OH279348   4.684   0.212  16.689  0.4292  0.1032  0.1411
19286TIP3    H179349   4.611   0.267  16.716 -0.3787 -0.5925 -0.5627
19286TIP3    H279350   4.760   0.249  16.733 -0.0644  1.8504 -0.4041
19287TIP3   OH279351   0.158   1.349   5.508 -0.0418  0.5739 -0.6912
19287TIP3    H179352   0.223   1.282   5.528 -0.8674  0.1553  0.7163
19287TIP3    H279353   0.134   1.332   5.416  1.5838  0.5571 -1.1446
19288TIP3   OH279354   2.561   0.097  13.807 -0.1095 -0.4753  0.5965
19288TIP3    H179355   2.600   0.076  13.892  0.2703 -0.4762  0.4222
19288TIP3    H279356   2.467   0.080  13.819 -0.3988  1.5586  1.6588
19289TIP3   OH279357   1.864   6.123   0.243 -0.0971  0.7665 -0.2101
19289TIP3    H179358   1.938   6.065   0.226 -0.0655  0.4733  0.8635
19289TIP3    H279359   1.787   6.073   0.217 -0.0688  0.2234  0.7064
19290TIP3   OH279360   3.179   1.462  16.491  0.1658 -0.6062  0.2045
19290TIP3    H179361   3.148   1.430  16.576 -2.1229 -0.2830 -0.4320
19290TIP3    H279362   3.249   1.401  16.467  0.6898 -0.8620  2.1739
19291TIP3   OH279363   0.804   4.029  12.456  0.1854  0.6047 -0.6056
19291TIP3    H179364   0.883   3.998  12.499 -0.2071  1.1230  0.5194
19291TIP3    H279365   0.736   3.968  12.484 -0.0320  0.8204 -0.6610
19292TIP3   OH279366   1.105   1.765   0.021 -0.2285  0.0720  0.0098
19292TIP3    H179367   1.138   1.718  -0.055 -0.2748  0.8434 -0.5016
19292TIP3    H279368   1.179   1.771   0.081 -0.1843 -0.5062  0.0136
19293TIP3   OH279369   4.963   0.834   5.878 -0.2106 -0.0223  0.2886
19293TIP3    H179370   5.029   0.805   5.816  1.7358  0.1823  2.1505
19293TIP3    H279371   4.948   0.758   5.935 -0.0064  0.5508  1.1325
19294TIP3   OH279372   5.294   6.427   0.577 -0.3137 -0.3099  0.2456
19294TIP3    H179373   5.339   6.507   0.605  2.4618 -1.6406  0.0063
19294TIP3    H279374   5.273   6.381   0.659  2.8956 -1.6780  0.4566
19295TIP3   OH279375   1.491   6.335   6.678  0.3592 -0.3039  0.0630
19295TIP3    H179376   1.422   6.269   6.684 -0.9724  0.9025 -0.9402
19295TIP3    H279377   1.476   6.392   6.754  0.5368 -0.3066  0.0992
19296TIP3   OH279378   2.464   4.164   0.806 -0.1102  0.5636  0.2919
19296TIP3    H179379   2.545   4.172   0.857  1.1982 -1.0937 -1.3760
19296TIP3    H279380   2.422   4.085   0.840 -1.1511  1.4804  1.2317
19297TIP3   OH279381   3.452   1.344   2.214  0.1229  0.5358  0.0404
19297TIP3    H179382   3.501   1.398   2.276 -0.7240  1.8581 -0.3983
19297TIP3    H279383   3.420   1.271   2.266  0.4479  0.9868  0.8896
19298TIP3   OH279384   6.781   6.640  17.134  0.4149 -0.1097  0.1254
19298TIP3    H179385   6.764   6.546  17.134  2.1862 -0.5088  1.5077
19298TIP3    H279386   6.732   6.674  17.060  0.1327 -2.2014 -0.7231
19299TIP3   OH279387   1.734   4.499  14.335 -0.3239  0.4796 -0.2558
19299TIP3    H179388   1.766   4.582  14.299 -1.0548  1.1314  0.5596
19299TIP3    H279389   1.813   4.449  14.355  0.1773  1.5848  0.6343
19300TIP3   OH279390   6.304   4.326   2.764 -0.6092  0.5253  0.2365
19300TIP3    H179391   6.226   4.370   2.798  0.1211  1.3652  0.8823
19300TIP3    H279392   6.363   4.397   2.739 -0.0316 -0.0939 -0.2059
19301TIP3   OH279393   3.616   6.749   4.194  0.2063 -0.5029  0.0771
19301TIP3    H179394   3.549   6.739   4.127  0.1113  1.8405 -0.2735
19301TIP3    H279395   3.694   6.708   4.156  0.0886  0.5525 -1.3962
19302TIP3   OH279396   5.425   0.744   0.792 -0.2284 -0.3991 -0.2618
19302TIP3    H179397   5.405   0.748   0.885  0.5764 -1.0274 -0.0554
19302TIP3    H279398   5.441   0.652   0.774  1.3397 -0.0767 -0.6407
19303TIP3   OH279399   2.656   4.354  13.969  0.4402 -0.0187  0.2796
19303TIP3    H179400   2.604   4.283  14.007  0.4310  0.1064  0.5017
19303TIP3    H279401   2.654   4.423  14.035 -1.6548  1.1818 -0.9300
19304TIP3   OH279402   5.712   5.698  15.264 -0.2478  0.0229 -0.6586
19304TIP3    H179403   5.719   5.783  15.306 -0.6081  0.2656 -1.0840
19304TIP3    H279404   5.675   5.641  15.332 -0.5161  0.3317 -0.5423
19305TIP3   OH279405   1.134   6.397   0.113 -1.0257 -0.1281 -0.9142
19305TIP3    H179406   1.182   6.332   0.165  1.6343  1.0755 -1.6841
19305TIP3    H279407   1.071   6.435   0.175 -0.2922 -1.0766  0.4694
19306TIP3   OH279408   3.846   6.512   0.332 -0.1948  0.1827 -0.1044
19306TIP3    H179409   3.864   6.471   0.417 -0.2832  0.1511 -0.1015
19306TIP3    H279410   3.773   6.463   0.296 -0.4630  0.4970  0.0082
19307TIP3   OH279411   0.753   4.109  16.859  0.5907 -0.2013  0.2487
19307TIP3    H179412   0.758   4.014  16.853  0.9167 -0.1453 -0.4246
19307TIP3    H279413   0.672   4.132  16.814  2.2094  0.0862 -2.7649
19308TIP3   OH279414   3.881   4.144  16.347 -0.9941  0.0005  0.2029
19308TIP3    H179415   3.896   4.120  16.255  2.0529  2.7762 -0.2177
19308TIP3    H279416   3.944   4.092  16.396  0.1790  1.3090  0.1650
19309TIP3   OH279417   5.431   5.032   1.257 -0.0091 -0.2512  0.5040
19309TIP3    H179418   5.406   5.035   1.165  0.4900 -0.9809  0.3330
19309TIP3    H279419   5.408   4.943   1.285 -1.0035  0.2415  1.3418
19310TIP3   OH279420   6.020   4.965  15.860 -0.0173 -0.2468  0.0324
19310TIP3    H179421   6.050   4.949  15.771  0.1975 -1.1804  0.2547
19310TIP3    H279422   6.093   5.010  15.903  0.1825 -0.4833 -0.0561
19311TIP3   OH279423   5.684   0.416  14.893  0.2355 -0.0637 -0.5641
19311TIP3    H179424   5.645   0.501  14.871  0.0361  0.3539  1.2436
19311TIP3    H279425   5.698   0.419  14.988  1.5286 -1.5274 -0.6581
19312TIP3   OH279426   3.881   2.795   0.972  0.2900  0.5136  0.0866
19312TIP3    H179427   3.866   2.703   0.950  1.1524  0.2558  0.5026
19312TIP3    H279428   3.924   2.792   1.058  1.9421  1.1963 -0.6698
19313TIP3   OH279429   3.303   3.815  14.457 -0.0873 -0.3177 -0.4345
19313TIP3    H179430   3.337   3.904  14.457 -0.9024  0.0368  1.1992
19313TIP3    H279431   3.378   3.760  14.479 -0.1836  0.2982  1.5980
19314TIP3   OH279432   5.026   1.707   0.822  0.1215  0.2239  0.6261
19314TIP3    H179433   5.094   1.770   0.846 -0.1000  0.6151  0.2499
19314TIP3    H279434   4.948   1.737   0.867 -0.5988  1.6566 -1.4325
19315TIP3   OH279435   6.461   4.842   2.335 -0.3975  0.1225 -0.1674
19315TIP3    H179436   6.477   4.936   2.340 -2.1953  0.7269 -3.2034
19315TIP3    H279437   6.374   4.835   2.294 -1.7123 -2.8908  2.6832
19316TIP3   OH279438   0.982   1.204   1.641  0.0611  0.6475 -0.5077
19316TIP3    H179439   0.914   1.171   1.699  1.9722 -0.6046  1.1658
19316TIP3    H279440   1.022   1.276   1.690  0.0542  1.2670 -1.3900
19317TIP3   OH279441   3.146   3.990   1.967  0.1300 -0.7659 -0.2734
19317TIP3    H179442   3.132   3.943   2.049  1.0273 -0.4616  0.0739
19317TIP3    H279443   3.078   3.959   1.908 -0.1488 -1.4396  0.4010
19318TIP3   OH279444   2.725   2.991  11.920 -0.3734 -0.3579  0.7754
19318TIP3    H179445   2.656   3.038  11.967 -0.8134  0.0743 -0.2823
19318TIP3    H279446   2.776   3.059  11.877 -0.7167 -0.8028 -0.3678
19319TIP3   OH279447   4.433   6.659   1.743 -0.6800 -0.8767  0.1789
19319TIP3    H179448   4.386   6.590   1.788  0.2770 -0.7999  1.3484
19319TIP3    H279449   4.493   6.614   1.683  1.4136 -1.2279  2.3853
19320TIP3   OH279450   0.903   4.909   3.572  0.0648 -0.2991  0.0017
19320TIP3    H179451   0.821   4.952   3.594 -0.1256 -0.5262 -0.2607
19320TIP3    H279452   0.884   4.859   3.493  0.0728 -1.5122  0.7507
19321TIP3   OH279453   4.002   6.774  15.159  0.5970 -0.2641  0.8585
19321TIP3    H179454   4.068   6.707  15.139  1.0229 -0.2575  2.1940
19321TIP3    H279455   4.050   6.857  15.155  1.1749 -0.3853  3.7118
19322TIP3   OH279456   2.251   5.582  16.938 -0.1163 -0.6245  0.0456
19322TIP3    H179457   2.261   5.616  16.849  1.0439  0.0475  0.4091
19322TIP3    H279458   2.240   5.659  16.993  0.5724 -0.9295  0.6429
19323TIP3   OH279459   6.092   4.528  16.611 -0.0527 -0.0855  0.0214
19323TIP3    H179460   6.117   4.477  16.535 -1.3028  0.0085 -0.4782
19323TIP3    H279461   6.000   4.504  16.627 -0.3836  1.3024  0.3345
19324TIP3   OH279462   5.915   4.223  14.242 -0.1982 -0.4851 -0.0842
19324TIP3    H179463   5.889   4.195  14.155  1.4682 -0.4798 -0.6289
19324TIP3    H279464   5.946   4.144  14.286 -0.1402 -0.3331  0.1589
19325TIP3   OH279465   2.093   3.633  10.807  0.0517 -0.0792  0.6203
19325TIP3    H179466   2.135   3.647  10.723 -0.4292  1.9132  0.6735
19325TIP3    H279467   2.024   3.699  10.812  0.2221  0.0312  2.6620
19326TIP3   OH279468   4.013   2.767   4.989 -0.2335  0.5536 -0.1544
19326TIP3    H179469   3.967   2.772   4.905 -3.4047  0.7726  1.4383
19326TIP3    H279470   4.036   2.675   4.998 -1.6925  0.1255 -0.4400
19327TIP3   OH279471   2.755   0.190   4.488  0.0756 -0.2465  0.7371
19327TIP3    H179472   2.664   0.203   4.461 -0.9136 -2.4359  2.6395
19327TIP3    H279473   2.775   0.268   4.541 -0.1303  0.9492 -0.8646
19328TIP3   OH279474   3.077   3.799   4.140 -0.0487 -0.0416 -0.1240
19328TIP3    H179475   3.036   3.715   4.161 -1.4082  0.5454 -0.3231
19328TIP3    H279476   3.144   3.811   4.207  0.7727 -1.6844 -0.6120
19329TIP3   OH279477   2.816   0.771  12.487 -0.0518  0.1507 -0.0348
19329TIP3    H179478   2.847   0.862  12.484  1.8533 -0.4774 -2.3341
19329TIP3    H279479   2.748   0.766  12.421 -0.2223 -0.0886  0.1561
19330TIP3   OH279480   6.529   6.203  14.039  0.0626  0.1047  0.1600
19330TIP3    H179481   6.612   6.238  14.006 -0.0926 -0.8755 -1.3682
19330TIP3    H279482   6.549   6.111  14.061 -0.7469 -0.3067 -0.7794
19331TIP3   OH279483   6.106   2.452  11.396  0.0635 -0.2509  0.0956
19331TIP3    H179484   6.131   2.430  11.486 -1.4718 -0.0744  0.5875
19331TIP3    H279485   6.011   2.449  11.396 -0.0492  1.6968 -1.0282
19332TIP3   OH279486   0.496   5.380  16.271  0.2537 -0.2982  0.2483
19332TIP3    H179487   0.422   5.419  16.224  0.1044 -1.4111 -0.4858
19332TIP3    H279488   0.501   5.428  16.353 -1.7429 -0.6657  0.6242
19333TIP3   OH279489   2.056   5.748  11.186  0.0716  0.3030  0.2118
19333TIP3    H179490   2.109   5.728  11.109 -0.2069 -3.1670  0.7867
19333TIP3    H279491   1.966   5.753  11.152 -0.2295 -2.5716  0.3715
19334TIP3   OH279492   4.688   3.850  10.897  0.5367  0.7253  0.4670
19334TIP3    H179493   4.728   3.796  10.829  0.3770 -0.5329  1.3294
19334TIP3    H279494   4.727   3.937  10.886 -1.2229  1.2483 -2.7165
19335TIP3   OH279495   0.775   3.661  16.109 -0.2957  0.3325 -0.0057
19335TIP3    H179496   0.836   3.592  16.084  1.5263  0.7311  2.8783
19335TIP3    H279497   0.731   3.628  16.187 -1.4179  1.3653 -0.1562
19336TIP3   OH279498   1.176   5.688   0.007  0.3453  0.4941 -0.4119
19336TIP3    H179499   1.100   5.731  -0.034  0.4757  1.9227  0.7498
19336TIP3    H279500   1.250   5.714  -0.047  0.1481 -0.1325 -1.0030
19337TIP3   OH279501   0.534   3.652  14.572 -0.8418 -0.0770 -0.1945
19337TIP3    H179502   0.493   3.575  14.612 -2.3196  0.7308 -0.0668
19337TIP3    H279503   0.541   3.630  14.479 -0.7243 -0.5885 -0.0666
19338TIP3   OH279504   2.284   2.601  11.643  0.3613  0.2060  0.2246
19338TIP3    H179505   2.299   2.695  11.657  2.3390 -0.1708  1.0908
19338TIP3    H279506   2.313   2.561  11.725  0.1069 -1.2073 -0.3592
19339TIP3   OH279507   3.134   5.703   1.721  0.1287  0.5429  0.0722
19339TIP3    H179508   3.055   5.715   1.670  1.4705 -0.8343 -2.5579
19339TIP3    H279509   3.107   5.649   1.795 -1.4953  0.6713 -0.3948
19340TIP3   OH279510   5.485   5.256   1.389  0.2569  0.1121  0.5477
19340TIP3    H179511   5.462   5.180   1.336 -1.2588  0.1010  1.1625
19340TIP3    H279512   5.401   5.288   1.422  0.9000  1.8680  0.5645
19341TIP3   OH279513   6.042   0.229  13.420  0.4396 -0.2132 -0.3014
19341TIP3    H179514   5.979   0.296  13.392 -0.1173 -0.6788 -0.1809
19341TIP3    H279515   6.125   0.257  13.380  0.4239  1.0109  0.4486
19342TIP3   OH279516   2.760   2.822   6.052 -0.5912  0.2159  0.0518
19342TIP3    H179517   2.668   2.836   6.031 -0.4367  0.4662 -0.4749
19342TIP3    H279518   2.788   2.752   5.993 -0.3986  0.2711  0.0784
19343TIP3   OH279519   5.824   1.543   3.705 -0.0790  0.4584  0.7202
19343TIP3    H179520   5.883   1.471   3.725  1.4648  1.9440  1.7632
19343TIP3    H279521   5.835   1.604   3.778 -0.7456  2.1136 -0.5063
19344TIP3   OH279522   4.579   3.149  16.196  0.4350 -0.2503 -0.1368
19344TIP3    H179523   4.592   3.079  16.259  1.9753 -1.2277 -1.4492
19344TIP3    H279524   4.667   3.171  16.165 -0.1573  1.0752 -1.0183
19345TIP3   OH279525   1.736   2.101  16.290 -0.4453 -0.1311  0.1588
19345TIP3    H179526   1.729   2.196  16.301  0.5579  0.1507 -1.3651
19345TIP3    H279527   1.646   2.072  16.278 -0.9859  0.3216  2.5913
19346TIP3   OH279528   2.500   6.361   3.099  0.0705 -0.5208  0.2912
19346TIP3    H179529   2.528   6.308   3.024  1.7069  0.1110  0.4173
19346TIP3    H279530   2.406   6.374   3.085 -0.0881 -2.2058 -0.4954
19347TIP3   OH279531   2.636   1.308  14.046  0.2580  0.1353 -0.4109
19347TIP3    H179532   2.709   1.320  13.985  1.9503 -0.2020  1.4633
19347TIP3    H279533   2.559   1.298  13.989  1.0383  3.7676 -2.4684
19348TIP3   OH279534   2.198   6.748   1.078 -0.5188  0.6765  0.1923
19348TIP3    H179535   2.205   6.808   1.152 -1.1411 -0.9057  1.6209
19348TIP3    H279536   2.138   6.791   1.018 -3.0138  0.4476  2.3471
19349TIP3   OH279537   1.733   4.778  14.589  0.0599  0.6113  0.6201
19349TIP3    H179538   1.780   4.859  14.607 -1.1392  1.8246 -1.2476
19349TIP3    H279539   1.660   4.805  14.533 -2.6194 -1.1943  2.9120
19350TIP3   OH279540   4.793   2.888   5.911  0.0507  0.5015 -0.1001
19350TIP3    H179541   4.856   2.933   5.854 -0.4032 -0.9515 -1.8616
19350TIP3    H279542   4.826   2.798   5.917 -0.7508  0.2490  0.6762
19351TIP3   OH279543   5.841   5.294   4.671 -0.6343 -0.2866  0.1837
19351TIP3    H179544   5.756   5.288   4.714 -2.0305 -1.2886 -2.4562
19351TIP3    H279545   5.881   5.208   4.685 -1.3894 -0.8590 -0.9832
19352TIP3   OH279546   1.508   6.507  14.196  0.5846  0.1071 -0.4503
19352TIP3    H179547   1.468   6.542  14.117  0.0625 -0.8320 -0.6186
19352TIP3    H279548   1.573   6.572  14.221 -0.3618  1.1856 -0.7352
19353TIP3   OH279549   5.599   6.225   3.499 -0.4376  0.6086  0.5348
19353TIP3    H179550   5.510   6.253   3.478 -0.8720 -0.5491  0.7866
19353TIP3    H279551   5.598   6.131   3.487  1.0471  0.6931 -0.4413
19354TIP3   OH279552   4.080   0.686  13.768 -0.3380 -0.4175  0.1799
19354TIP3    H179553   4.096   0.780  13.769 -0.2724 -0.3849  2.8271
19354TIP3    H279554   4.166   0.647  13.780 -0.6063 -0.6990  1.3362
19355TIP3   OH279555   3.383   1.637   2.605  0.0887 -0.1225 -0.6289
19355TIP3    H179556   3.446   1.708   2.602  0.5632 -0.3774  1.6246
19355TIP3    H279557   3.301   1.678   2.634  0.4980 -0.5072  1.2086
19356TIP3   OH279558   4.453   1.842  16.401  0.0798 -0.3400 -0.2548
19356TIP3    H179559   4.425   1.878  16.486  1.0327  1.4303 -0.6303
19356TIP3    H279560   4.501   1.763  16.424  1.2482  0.6639  1.0036
19357TIP3   OH279561   6.375   6.115  14.446  0.6594 -0.2350 -0.0639
19357TIP3    H179562   6.299   6.102  14.388  0.3007 -3.0320  0.8702
19357TIP3    H279563   6.339   6.105  14.534  1.9099 -0.2488  0.4560
19358TIP3   OH279564   6.575   1.993   2.806  0.0162  0.2122 -0.2319
19358TIP3    H179565   6.624   2.015   2.885 -2.2312 -1.0604  1.6465
19358TIP3    H279566   6.494   2.044   2.814 -0.9176 -1.1202 -0.8816
19359TIP3   OH279567   2.938   2.851  10.768 -0.2591  0.3455  0.5135
19359TIP3    H179568   3.006   2.791  10.800 -0.1857  0.0007 -0.2656
19359TIP3    H279569   2.978   2.937  10.773 -0.6018  0.4273  2.2854
19360TIP3   OH279570   6.431   5.353  13.676  0.3854 -0.0346 -0.2608
19360TIP3    H179571   6.409   5.427  13.620 -0.1860  0.7439  0.9369
19360TIP3    H279572   6.355   5.344  13.734  0.7672 -1.0825  0.0978
19361TIP3   OH279573   5.672   2.159   1.163  0.3314  0.1105  0.3524
19361TIP3    H179574   5.767   2.171   1.154  0.6278 -1.7804  0.4896
19361TIP3    H279575   5.664   2.084   1.222 -1.2736  0.7696  0.9989
19362TIP3   OH279576   1.841   4.029  11.704 -0.2259  0.0402 -0.5363
19362TIP3    H179577   1.901   3.961  11.736  2.5400  2.2631 -0.6039
19362TIP3    H279578   1.823   4.002  11.613  0.4630 -0.8400 -0.4371
19363TIP3   OH279579   1.553   2.413  14.704 -0.1590 -0.0727  0.3751
19363TIP3    H179580   1.499   2.340  14.733  0.5177 -0.6638  0.1756
19363TIP3    H279581   1.636   2.373  14.679 -0.2117  0.5916 -0.9703
19364TIP3   OH279582   1.538   0.932   3.736  0.0218 -0.0212 -0.2410
19364TIP3    H179583   1.530   0.849   3.688 -1.8160 -0.3433  0.5477
19364TIP3    H279584   1.452   0.946   3.774  0.8849  1.2095  1.3821
19365TIP3   OH279585   5.253   1.949   1.603 -0.5533 -0.2346  0.5674
19365TIP3    H179586   5.289   2.001   1.531  0.6463 -0.9902  0.5951
19365TIP3    H279587   5.160   1.974   1.607 -0.5714  0.0443 -1.0267
19366TIP3   OH279588   3.837   2.640  13.682 -1.2622  0.4871  0.2170
19366TIP3    H179589   3.809   2.621  13.772  0.1324 -1.8044  0.2481
19366TIP3    H279590   3.929   2.614  13.679 -0.7576  2.2444 -1.4286
19367TIP3   OH279591   3.114   4.215   5.238 -0.0030  0.2155  0.3704
19367TIP3    H179592   3.086   4.196   5.148 -0.6143  0.2417  0.5506
19367TIP3    H279593   3.091   4.306   5.252 -1.4847 -0.2504  1.1209
19368TIP3   OH279594   6.005   2.711   4.856 -0.2961 -0.4706 -0.3441
19368TIP3    H179595   5.920   2.690   4.895  0.1386 -0.6633  0.5255
19368TIP3    H279596   6.027   2.635   4.802 -1.1860  0.0538 -1.5043
19369TIP3   OH279597   2.741   0.682   1.350  0.3011  0.1194  0.0008
19369TIP3    H179598   2.730   0.628   1.429 -0.2150  1.4326  0.8583
19369TIP3    H279599   2.751   0.771   1.383 -0.7890  0.8189 -1.4516
19370TIP3   OH279600   1.330   6.139   6.307  0.1898  0.4304 -0.7136
19370TIP3    H179601   1.285   6.067   6.264 -0.2125  0.3984 -0.2495
19370TIP3    H279602   1.276   6.158   6.384  0.7612  0.6478 -0.3618
19371TIP3   OH279603   2.527   5.395  16.584  0.4976  0.1922 -0.3306
19371TIP3    H179604   2.517   5.486  16.611 -0.2955 -0.1228  0.4948
19371TIP3    H279605   2.515   5.397  16.489 -2.0009  0.6504 -0.0646
19372TIP3   OH279606   1.338   1.561  13.492  0.1421 -0.5449 -0.3510
19372TIP3    H179607   1.405   1.497  13.519  1.0074  0.6265  0.3529
19372TIP3    H279608   1.256   1.512  13.496  0.7317 -1.5087  0.5638
19373TIP3   OH279609   5.836   6.519   3.106  0.0145  0.3671  0.0268
19373TIP3    H179610   5.754   6.471   3.115 -0.1092  0.4872 -0.4186
19373TIP3    H279611   5.886   6.469   3.041  0.3255  0.2568  0.3442
19374TIP3   OH279612   3.657   2.557   5.008  0.0098  0.0548 -0.0390
19374TIP3    H179613   3.750   2.552   4.984 -0.1715  0.5795 -0.8943
19374TIP3    H279614   3.628   2.466   5.014  0.4375 -0.1021 -0.3338
19375TIP3   OH279615   3.354   5.467  12.966 -0.0754 -0.4931 -0.0633
19375TIP3    H179616   3.356   5.456  12.871  0.0539 -1.3562  0.0306
19375TIP3    H279617   3.418   5.537  12.983 -0.6061  0.1526 -0.6595
19376TIP3   OH279618   5.361   2.866  13.697 -0.1257  0.0074 -0.6555
19376TIP3    H179619   5.441   2.835  13.655 -0.1659 -0.4887 -0.3774
19376TIP3    H279620   5.349   2.955  13.665  0.9524  0.3556 -0.1207
19377TIP3   OH279621   5.715   2.940  13.050  0.2626 -0.5550  0.2093
19377TIP3    H179622   5.740   2.931  13.142  0.7277  0.7511  0.2358
19377TIP3    H279623   5.714   3.034  13.035  0.4814 -0.7591 -1.2062
19378TIP3   OH279624   1.832   4.530  15.647 -0.1611 -0.3189 -0.2738
19378TIP3    H179625   1.837   4.572  15.733  2.3984  1.1173 -1.0039
19378TIP3    H279626   1.771   4.584  15.598 -0.2987 -0.1066  0.1221
19379TIP3   OH279627   1.204   0.687  16.920 -0.1030 -0.2123 -0.6188
19379TIP3    H179628   1.109   0.683  16.935 -0.1253  0.4947 -0.5275
19379TIP3    H279629   1.242   0.666  17.006 -0.1987  0.8324 -0.3079
19380TIP3   OH279630   2.571   4.759  13.001 -0.5803  0.0795  0.2165
19380TIP3    H179631   2.552   4.852  12.994  1.6649  0.5614 -0.4188
19380TIP3    H279632   2.521   4.719  12.930  0.0643  1.1204 -0.8684
19381TIP3   OH279633   5.403   1.554  10.394 -0.2387  0.4976  0.1323
19381TIP3    H179634   5.491   1.516  10.395 -0.0418  0.9608  0.8014
19381TIP3    H279635   5.353   1.500  10.454 -0.5543 -0.0794 -0.6351
19382TIP3   OH279636   5.552   2.541   2.705  0.1433  0.3777 -0.1823
19382TIP3    H179637   5.604   2.473   2.661  0.9324  0.7491  0.1469
19382TIP3    H279638   5.511   2.496   2.779  0.3522  0.1731 -0.1884
19383TIP3   OH279639   2.582   2.509   4.787  0.2340 -0.5973 -0.5442
19383TIP3    H179640   2.563   2.525   4.879 -1.9485 -0.2333 -0.9931
19383TIP3    H279641   2.518   2.443   4.760  1.5911 -1.5580 -1.5473
19384TIP3   OH279642   3.470   4.717  14.135 -0.0863  0.0413 -0.5925
19384TIP3    H179643   3.476   4.622  14.137 -0.7308 -0.0170  2.0674
19384TIP3    H279644   3.378   4.735  14.115 -0.1874  0.0953 -0.0710
19385TIP3   OH279645   4.382   6.806  14.900 -0.3968 -0.4320  0.0978
19385TIP3    H179646   4.350   6.848  14.820 -0.5178 -0.1008  0.3203
19385TIP3    H279647   4.356   6.714  14.890  0.3049 -0.5640 -0.6164
19386TIP3   OH279648   0.522   6.328  14.526  0.1792  0.6514 -0.4987
19386TIP3    H179649   0.530   6.252  14.469  0.5846 -0.3842  0.9155
19386TIP3    H279650   0.432   6.323  14.560  0.2187  0.7915 -0.3735
19387TIP3   OH279651   5.098   3.707  14.589 -0.2352  0.2729  0.2587
19387TIP3    H179652   5.114   3.672  14.676 -1.8258  0.9779  0.8706
19387TIP3    H279653   5.184   3.708  14.547  0.9119  1.5681  2.4429
19388TIP3   OH279654   6.128   4.817  12.669 -0.0230  0.0402  0.5015
19388TIP3    H179655   6.180   4.806  12.749 -1.7896 -0.9426  1.5682
19388TIP3    H279656   6.089   4.731  12.654  0.5961  0.0782 -1.6960
19389TIP3   OH279657   5.384   0.700   5.450 -0.3361  0.1660  0.6144
19389TIP3    H179658   5.440   0.777   5.443 -1.6024  1.0078 -1.4578
19389TIP3    H279659   5.352   0.686   5.361  0.2807 -3.1475  0.7793
19390TIP3   OH279660   4.866   2.215   4.760 -0.5092  0.0447 -1.1375
19390TIP3    H179661   4.875   2.130   4.804 -0.5165  0.0018 -1.2189
19390TIP3    H279662   4.825   2.272   4.826 -2.6704 -0.6281 -1.8091
19391TIP3   OH279663   2.844   2.625   5.630 -0.9473  0.0632  0.0136
19391TIP3    H179664   2.904   2.581   5.690 -1.9291 -0.8197  0.3740
19391TIP3    H279665   2.898   2.645   5.553 -0.4042 -1.5383 -0.0616
19392TIP3   OH279666   0.934   1.364  14.463 -0.2256  0.4954 -0.0906
19392TIP3    H179667   0.937   1.341  14.370  2.8538 -0.6149  0.1664
19392TIP3    H279668   0.920   1.280  14.508  0.4984  0.6729  0.4914
19393TIP3   OH279669   2.686   2.017   0.820 -0.9200  0.6238  0.1607
19393TIP3    H179670   2.684   1.928   0.854 -2.4995  0.3869 -0.4843
19393TIP3    H279671   2.655   2.071   0.893  2.5328  1.0592  1.4908
19394TIP3   OH279672   1.136   2.633   1.986  0.7794 -0.3818  0.3448
19394TIP3    H179673   1.187   2.642   1.905 -0.6845 -1.9070 -0.8178
19394TIP3    H279674   1.176   2.557   2.030 -0.4394 -1.6002 -0.5844
19395TIP3   OH279675   2.565   5.858  14.278  0.0097  0.0236 -0.4929
19395TIP3    H179676   2.551   5.919  14.351  1.2621 -0.5822  0.3033
19395TIP3    H279677   2.591   5.914  14.205  1.0909  0.4855  0.2147
19396TIP3   OH279678   1.950   2.752   0.220 -0.4982 -0.2215 -0.3700
19396TIP3    H179679   2.033   2.800   0.221 -0.3232 -0.5264 -0.1520
19396TIP3    H279680   1.913   2.765   0.308  1.0870 -3.1200  0.8538
19397TIP3   OH279681   4.640   0.075  13.264  0.4033  0.0613  0.1894
19397TIP3    H179682   4.629  -0.013  13.229  2.3103  0.5428 -1.8046
19397TIP3    H279683   4.551   0.104  13.284 -0.4253 -1.6277 -0.8404
19398TIP3   OH279684   1.427   2.984  15.503  0.1248 -0.4760 -0.4566
19398TIP3    H179685   1.419   3.024  15.416  0.8173  0.7933  0.0419
19398TIP3    H279686   1.337   2.974  15.534 -0.0748  0.4533 -0.7105
19399TIP3   OH279687   3.043   2.024   3.177  0.3177 -0.4408 -0.4119
19399TIP3    H179688   3.052   1.930   3.192  2.4693 -0.4791 -1.5045
19399TIP3    H279689   3.107   2.043   3.108 -1.8743  1.3798 -2.0895
19400TIP3   OH279690   1.760   3.652  14.145 -0.5026  0.0261  0.0212
19400TIP3    H179691   1.781   3.739  14.176 -1.2420  0.1475  0.2029
19400TIP3    H279692   1.763   3.597  14.223  1.1542 -0.3584 -0.2771
19401TIP3   OH279693   0.737   4.348  16.670 -0.1322  0.0490 -0.0075
19401TIP3    H179694   0.673   4.312  16.732  0.3598  0.5863  0.8159
19401TIP3    H279695   0.809   4.379  16.724  0.2176  0.7118 -0.8383
19402TIP3   OH279696   0.427   6.330  13.872  0.2340 -0.2896 -0.0434
19402TIP3    H179697   0.475   6.322  13.954 -0.6190  0.7482  0.5749
19402TIP3    H279698   0.379   6.248  13.864  0.1821 -0.3255  0.5817
19403TIP3   OH279699   1.536   4.688   2.169  0.5834 -0.4701 -0.1001
19403TIP3    H179700   1.443   4.675   2.153  0.2740 -0.3206  1.4256
19403TIP3    H279701   1.572   4.715   2.084 -1.1625  1.6682 -0.2287
19404TIP3   OH279702   0.516   2.266   0.405  0.0155 -0.3675 -0.3088
19404TIP3    H179703   0.494   2.206   0.476  0.4323 -0.6803 -0.4393
19404TIP3    H279704   0.481   2.224   0.326  0.4948 -0.5482 -0.4295
19405TIP3   OH279705   3.442   4.808  16.523 -0.1218 -0.4668  0.0029
19405TIP3    H179706   3.489   4.725  16.527  1.7646  0.5702  0.7462
19405TIP3    H279707   3.352   4.786  16.545  0.5425 -2.1905  1.2241
19406TIP3   OH279708   5.922   0.738   5.936 -0.4032  0.3944  0.0907
19406TIP3    H179709   5.903   0.801   5.866 -3.8304 -1.4885 -0.8854
19406TIP3    H279710   5.948   0.658   5.891  1.5280  0.3143  1.2242
19407TIP3   OH279711   0.676   5.397   3.365 -0.5073 -0.1909  0.9629
19407TIP3    H179712   0.710   5.445   3.440 -1.7460  0.9042  0.8546
19407TIP3    H279713   0.753   5.376   3.313  0.1546  0.8511  1.5025
19408TIP3   OH279714   6.449   3.906  12.984 -0.0110 -0.1007 -0.2327
19408TIP3    H179715   6.497   3.899  12.901  1.2436 -0.8222  0.5313
19408TIP3    H279716   6.421   3.816  13.003 -0.2469  0.0529  0.1595
19409TIP3   OH279717   0.602   0.559   2.759 -0.4574 -0.5349  0.8810
19409TIP3    H179718   0.570   0.603   2.681 -0.9894  2.1641  2.4721
19409TIP3    H279719   0.697   0.558   2.749 -0.4353  0.9996  0.7409
19410TIP3   OH279720   4.947   5.446   4.441 -0.1949  0.0373  0.0421
19410TIP3    H179721   4.919   5.448   4.532  1.5476  1.2269  0.5988
19410TIP3    H279722   4.889   5.508   4.397 -0.3200  0.2995  0.5677
19411TIP3   OH279723   0.165   4.196   0.256 -1.1013 -0.0152  0.1728
19411TIP3    H179724   0.121   4.190   0.171 -2.0196  0.3317  0.5998
19411TIP3    H279725   0.159   4.289   0.278 -1.0395 -0.1343  0.6976
19412TIP3   OH279726   2.446   3.628   3.024  0.5060 -0.5162  0.0883
19412TIP3    H179727   2.356   3.612   2.997  0.4525 -0.9221  0.4902
19412TIP3    H279728   2.457   3.723   3.015 -0.2429 -0.3381  0.8487
19413TIP3   OH279729   4.059   5.573   1.219 -0.3139 -0.6573  0.1525
19413TIP3    H179730   4.030   5.637   1.283 -1.6918  0.0917 -1.1654
19413TIP3    H279731   4.145   5.605   1.190  1.0282 -1.7659  2.5562
19414TIP3   OH279732   2.648   2.202  16.217  0.4131 -0.6073 -0.1241
19414TIP3    H179733   2.617   2.189  16.127 -1.8558 -1.5521  0.7081
19414TIP3    H279734   2.647   2.114  16.255 -1.4881  0.0990  1.6080
19415TIP3   OH279735   3.767   2.155  14.089  0.5571  0.3544  0.1292
19415TIP3    H179736   3.761   2.246  14.117  1.0113  0.7468 -0.9950
19415TIP3    H279737   3.832   2.155  14.018  0.3124 -0.7830 -0.1244
19416TIP3   OH279738   3.809   1.595  13.274 -0.0472  0.1312  0.3448
19416TIP3    H179739   3.775   1.658  13.210  0.5089 -0.1747 -0.2631
19416TIP3    H279740   3.870   1.541  13.225  0.8823  0.2954  1.2870
19417TIP3   OH279741   2.107   3.715  13.426 -0.3626 -0.2933  0.2251
19417TIP3    H179742   2.052   3.647  13.466 -0.7911 -0.2294 -0.2381
19417TIP3    H279743   2.048   3.789  13.415  0.3037  0.4678  1.4950
19418TIP3   OH279744   2.801   4.610   5.288 -0.5281  0.1894 -0.2836
19418TIP3    H179745   2.753   4.533   5.258 -0.6529 -0.3365  1.1708
19418TIP3    H279746   2.786   4.612   5.383  1.1655  0.8226  0.0056
19419TIP3   OH279747   0.798   3.894  15.947 -0.5575  0.1900 -0.1258
19419TIP3    H179748   0.828   3.820  15.999 -1.8093 -1.2640 -1.3840
19419TIP3    H279749   0.706   3.905  15.973 -1.0039 -0.1312 -1.5319
19420TIP3   OH279750   0.438   1.724  12.448 -0.2016  0.1721 -0.1250
19420TIP3    H179751   0.397   1.807  12.470  1.2521  0.7226  0.6857
19420TIP3    H279752   0.443   1.677  12.531 -1.6695 -1.0650 -0.6981
19421TIP3   OH279753   6.378   6.174  11.923 -0.1399  0.0618  0.1616
19421TIP3    H179754   6.454   6.233  11.919  0.0939  0.1190  3.0947
19421TIP3    H279755   6.415   6.086  11.915 -0.0644  0.1563 -0.6329
19422TIP3   OH279756   2.429   5.856   3.515 -0.4489  0.5510 -0.0114
19422TIP3    H179757   2.366   5.909   3.467 -0.8003  0.2841  0.1475
19422TIP3    H279758   2.446   5.905   3.595 -2.9306 -0.8345  1.5061
19423TIP3   OH279759   2.050   0.968   3.607  0.3114  0.3517 -0.1483
19423TIP3    H179760   1.973   1.000   3.654 -0.8684 -1.1153 -0.9790
19423TIP3    H279761   2.042   1.005   3.519 -0.3491 -1.0400 -0.7114
19424TIP3   OH279762   4.763   0.785   0.132 -0.2988  0.1960 -0.2916
19424TIP3    H179763   4.718   0.790   0.216 -2.2949  0.1397 -1.3095
19424TIP3    H279764   4.738   0.865   0.086 -1.1304 -0.8463 -1.7183
19425TIP3   OH279765   0.463   6.119   1.626 -0.2196 -0.0546 -0.5100
19425TIP3    H179766   0.400   6.057   1.591 -0.6007  0.3213 -0.5014
19425TIP3    H279767   0.535   6.120   1.562 -0.0149 -0.8078 -0.2992
19426TIP3   OH279768   5.546   2.887  14.571  0.0513 -0.0781  0.0620
19426TIP3    H179769   5.554   2.796  14.544  0.3049  0.3441 -1.4166
19426TIP3    H279770   5.632   2.925  14.552 -0.4360  0.7531 -0.5619
19427TIP3   OH279771   0.804   0.123   0.886  0.7296 -0.1138  0.1696
19427TIP3    H179772   0.791   0.213   0.916  2.5862 -0.1135  1.1006
19427TIP3    H279773   0.887   0.125   0.838  0.7977 -1.3256  0.2050
19428TIP3   OH279774   6.194   3.051   1.676 -0.1347  0.2195  0.1674
19428TIP3    H179775   6.163   3.063   1.766  1.8959  0.5093  0.8752
19428TIP3    H279776   6.136   3.105   1.623 -1.4010  0.0034  1.2689
19429TIP3   OH279777   4.633   4.214   5.089 -0.0761  0.1741 -0.4197
19429TIP3    H179778   4.579   4.141   5.120  1.5372 -0.2389  1.7199
19429TIP3    H279779   4.723   4.179   5.092  0.5608  1.6581 -1.2336
19430TIP3   OH279780   3.636   5.342  12.474 -0.5089 -0.1146  0.1653
19430TIP3    H179781   3.596   5.418  12.516 -1.4575 -0.3068 -0.3545
19430TIP3    H279782   3.708   5.317  12.531 -2.0866 -0.7104  1.9818
19431TIP3   OH279783   4.560   2.880  12.339  0.2905  0.2688 -0.2541
19431TIP3    H179784   4.533   2.790  12.358 -1.7760  0.7837 -0.4980
19431TIP3    H279785   4.548   2.927  12.422  1.5204  0.3082 -0.0820
19432TIP3   OH279786   2.102   1.217  13.104  0.0060 -0.7793 -0.8887
19432TIP3    H179787   2.013   1.183  13.099  0.0273 -1.0151  0.0214
19432TIP3    H279788   2.144   1.162  13.171  0.6197 -0.2094 -0.7950
19433TIP3   OH279789   4.642   0.794   1.513 -0.4565 -0.3247  0.4495
19433TIP3    H179790   4.610   0.709   1.482  0.4403 -0.0907 -1.2763
19433TIP3    H279791   4.634   0.851   1.437  1.4837  0.4191  0.7482
19434TIP3   OH279792   2.270   3.297   2.567 -0.1590  0.0934 -0.1902
19434TIP3    H179793   2.212   3.365   2.533 -2.1813 -0.8383  1.1668
19434TIP3    H279794   2.342   3.292   2.504 -1.1981  1.7915 -1.5932
19435TIP3   OH279795   5.150   1.892   3.590 -0.7213 -0.2933 -0.2123
19435TIP3    H179796   5.064   1.850   3.594  0.0144 -1.7673  1.3242
19435TIP3    H279797   5.212   1.823   3.614  0.7319  1.1803  0.4686
19436TIP3   OH279798   2.201   2.543   0.930 -0.3550  0.4110 -0.3253
19436TIP3    H179799   2.163   2.595   1.000 -2.0429  0.1615 -1.0151
19436TIP3    H279800   2.242   2.607   0.872  1.2065  0.6061  0.9241
19437TIP3   OH279801   1.754   1.459  12.587 -0.2101  0.1037 -0.3299
19437TIP3    H179802   1.671   1.411  12.585 -0.3989  0.4348 -1.3463
19437TIP3    H279803   1.766   1.488  12.496  1.8086 -1.2547 -0.5377
19438TIP3   OH279804   5.891   1.733   5.167  0.2016 -0.5974 -0.0429
19438TIP3    H179805   5.913   1.770   5.252  1.6463  0.9850 -1.0449
19438TIP3    H279806   5.975   1.710   5.128 -0.3925 -0.8031 -1.2674
19439TIP3   OH279807   1.753   4.800   5.182  0.3461 -0.1751  1.1980
19439TIP3    H179808   1.684   4.735   5.168 -0.4522 -0.3061  4.7901
19439TIP3    H279809   1.711   4.884   5.163  0.2276 -0.4496  0.2054
19440TIP3   OH279810   3.112   5.607  11.097  0.0669 -0.2483 -0.4214
19440TIP3    H179811   3.096   5.681  11.039 -2.5959 -1.1693 -0.9906
19440TIP3    H279812   3.112   5.645  11.185 -0.1466  0.5855 -0.7704
19441TIP3   OH279813   5.438   1.475  16.627  0.4101  0.1316 -0.1216
19441TIP3    H179814   5.467   1.519  16.706  1.6115  1.1384 -1.0888
19441TIP3    H279815   5.381   1.405  16.658  2.7658 -1.0744  1.8059
19442TIP3   OH279816   3.182   0.996   1.832 -0.1707 -0.3692  0.1089
19442TIP3    H179817   3.255   0.986   1.771 -0.3246  1.2130 -0.3817
19442TIP3    H279818   3.203   1.074   1.883 -1.7987  0.5345 -0.5114
19443TIP3   OH279819   6.193   4.223   2.413  0.4823  0.4122 -0.8880
19443TIP3    H179820   6.244   4.142   2.404  0.4086  0.4774 -2.1277
19443TIP3    H279821   6.203   4.266   2.328 -0.5607  1.0691 -0.6868
19444TIP3   OH279822   2.823   6.765   0.961 -0.0542 -0.0912 -0.1788
19444TIP3    H179823   2.764   6.708   0.912  0.3876  1.3620 -2.5099
19444TIP3    H279824   2.866   6.818   0.895  0.7922  1.7929  1.7806
19445TIP3   OH279825   2.560   1.797   5.040  0.9185 -0.7513  0.2036
19445TIP3    H179826   2.633   1.786   4.979  0.0771  0.7965 -1.1686
19445TIP3    H279827   2.566   1.888   5.068 -0.0113 -0.8224  0.6753
19446TIP3   OH279828   3.509   0.362  14.112 -0.5113  0.4692  0.3847
19446TIP3    H179829   3.552   0.278  14.100  0.5569  1.1840 -1.0356
19446TIP3    H279830   3.580   0.426  14.117 -1.2768  1.8466 -3.3186
19447TIP3   OH279831   1.940   5.818  12.808  0.2857  0.0170 -0.1516
19447TIP3    H179832   1.848   5.835  12.789  0.5273 -0.0549 -1.4487
19447TIP3    H279833   1.940   5.733  12.852 -0.3998  0.7516  1.3318
19448TIP3   OH279834   4.976   1.416   4.547  0.7814  0.3773 -0.1942
19448TIP3    H179835   5.012   1.398   4.634  0.5750 -0.1567 -0.2110
19448TIP3    H279836   4.983   1.332   4.501 -0.0715  0.3875 -0.3451
19449TIP3   OH279837   1.917   3.784  17.191  0.7310 -0.8990  0.1175
19449TIP3    H179838   1.922   3.758  17.099 -0.4832 -1.2414  0.1258
19449TIP3    H279839   1.854   3.724  17.230 -2.2472  1.9239  0.1330
19450TIP3   OH279840   5.201   2.943   4.227 -0.0672  0.0463 -0.4153
19450TIP3    H179841   5.237   2.864   4.268 -0.2683 -0.2948 -0.8844
19450TIP3    H279842   5.273   3.006   4.231 -0.0098 -0.0475  0.2586
19451TIP3   OH279843   3.815   2.194  11.752 -0.2729 -0.2380  0.0107
19451TIP3    H179844   3.883   2.167  11.690  0.1306  0.7531  0.0037
19451TIP3    H279845   3.801   2.117  11.808  2.2880  0.1311  1.2985
19452TIP3   OH279846   4.520   4.348   4.187  0.0071 -0.1446  0.3595
19452TIP3    H179847   4.473   4.385   4.112 -0.1484  1.1063  1.0428
19452TIP3    H279848   4.475   4.266   4.205  0.2636 -0.6236 -1.1132
19453TIP3   OH279849   5.227   6.720   1.030 -0.0786  0.0859 -0.4231
19453TIP3    H179850   5.164   6.769   0.978  0.7576  2.7314  0.8577
19453TIP3    H279851   5.173   6.660   1.082 -1.2522  0.2764 -1.3720
19454TIP3   OH279852   4.668   5.786  15.711 -0.0601  0.4187 -0.3311
19454TIP3    H179853   4.575   5.762  15.705  0.4606 -2.8165  1.6997
19454TIP3    H279854   4.709   5.739  15.639  0.0564  1.8582 -1.2364
19455TIP3   OH279855   2.209   2.375   4.602 -0.2249 -0.3879  0.4439
19455TIP3    H179856   2.284   2.402   4.655  0.8425 -1.9663 -0.1754
19455TIP3    H279857   2.241   2.298   4.553 -2.1163 -0.8410 -0.1604
19456TIP3   OH279858   4.700   0.543  13.880 -0.1144  0.8557  0.3143
19456TIP3    H179859   4.707   0.632  13.844  0.3976  0.9747  0.6931
19456TIP3    H279860   4.715   0.554  13.973 -1.2670  0.5265  0.5585
19457TIP3   OH279861   5.039   1.762  12.244 -0.3541  0.3939  0.0719
19457TIP3    H179862   4.976   1.794  12.309 -2.2315  0.1564 -1.5230
19457TIP3    H279863   4.990   1.762  12.162  1.3751 -1.0468 -1.0287
19458TIP3   OH279864   3.038   1.592   1.750 -0.0211  0.4668 -0.1253
19458TIP3    H179865   2.993   1.507   1.750 -0.6807  0.7940  0.7224
19458TIP3    H279866   3.074   1.599   1.839  0.7494  0.7124 -0.4514
19459TIP3   OH279867   0.006   4.763   3.784 -0.1620 -0.6100  0.1148
19459TIP3    H179868   0.084   4.783   3.731  0.9156 -1.0714  1.4599
19459TIP3    H279869   0.023   4.804   3.869 -2.2243  0.8248 -0.1043
19460TIP3   OH279870   4.503   0.278  11.687  0.1348  0.0939 -0.0585
19460TIP3    H179871   4.444   0.300  11.760  0.4209 -2.4282  1.0379
19460TIP3    H279872   4.585   0.254  11.730 -0.1356 -2.9140 -0.9876
19461TIP3   OH279873   3.054   1.068   5.152  0.2077  0.2022  0.0025
19461TIP3    H179874   2.980   1.127   5.140  0.9727  1.2413  0.2327
19461TIP3    H279875   3.045   1.003   5.083 -0.6930  0.5497 -0.2134
19462TIP3   OH279876   6.423   6.089  16.486 -0.1882  0.3508  0.1475
19462TIP3    H179877   6.506   6.129  16.461  0.2972  0.4238  1.7656
19462TIP3    H279878   6.444   6.032  16.560 -1.4247 -0.3344  0.0028
19463TIP3   OH279879   3.947   2.314   5.514 -0.1749 -0.2855 -0.0771
19463TIP3    H179880   4.010   2.249   5.544 -0.2617 -0.6081 -0.5921
19463TIP3    H279881   3.864   2.289   5.556  0.2820  0.8698  1.6255
19464TIP3   OH279882   1.612   5.793   3.416 -0.1486  0.2762  0.5449
19464TIP3    H179883   1.542   5.754   3.363 -0.7584  0.2007  1.3862
19464TIP3    H279884   1.602   5.753   3.502  0.8384  0.3924  0.7244
19465TIP3   OH279885   4.151   1.800   2.741  0.1184 -0.3628 -0.3830
19465TIP3    H179886   4.212   1.741   2.698  2.5219 -0.9204  3.3788
19465TIP3    H279887   4.202   1.879   2.760 -1.4051  0.6428 -0.2702
19466TIP3   OH279888   0.415   5.594   4.032 -0.1674 -0.2561 -0.6277
19466TIP3    H179889   0.440   5.650   4.105 -0.1532 -0.1050 -0.7482
19466TIP3    H279890   0.321   5.611   4.020 -0.1923 -0.3594 -0.5755
19467TIP3   OH279891   0.092   3.434   0.069  0.1144  0.1276  1.0214
19467TIP3    H179892   0.046   3.516   0.048  1.1696  0.4988  0.0264
19467TIP3    H279893   0.080   3.379  -0.009  0.8274  0.0020  0.9940
19468TIP3   OH279894   0.666   2.564   1.331 -0.0900 -1.2775 -0.0669
19468TIP3    H179895   0.700   2.497   1.390  0.9831 -0.1067  0.6982
19468TIP3    H279896   0.686   2.647   1.375 -0.5066 -0.4243 -1.4312
19469TIP3   OH279897   4.175   6.335   4.351  0.3645 -0.6761  0.0746
19469TIP3    H179898   4.207   6.416   4.392  0.6280 -0.8837  0.2887
19469TIP3    H279899   4.251   6.277   4.353  0.0696 -1.0543  0.2546
19470TIP3   OH279900   2.942   1.169  16.371  0.7384  1.1523 -0.0661
19470TIP3    H179901   3.035   1.166  16.390  0.7641  1.5719 -0.1238
19470TIP3    H279902   2.934   1.133  16.283  0.6292 -0.7379  0.6621
19471TIP3   OH279903   4.393   5.740   6.559  0.0772 -0.1122  0.1188
19471TIP3    H179904   4.321   5.786   6.516 -0.0814  0.4657  0.9640
19471TIP3    H279905   4.365   5.648   6.561 -0.2397 -0.0296 -0.3427
19472TIP3   OH279906   4.357   4.763  14.241  0.0832  0.3023  0.6515
19472TIP3    H179907   4.351   4.801  14.153  2.5885 -1.2196 -0.2868
19472TIP3    H279908   4.420   4.817  14.287  0.6359 -0.3183  0.6468
19473TIP3   OH279909   0.309   6.413   2.257 -0.1542  0.2767  0.1342
19473TIP3    H179910   0.273   6.500   2.273  2.4939  1.6179 -0.5383
19473TIP3    H279911   0.355   6.422   2.173 -0.0370 -1.8446 -0.0673
19474TIP3   OH279912   5.607   3.572   1.913 -0.2671  0.3267  0.8790
19474TIP3    H179913   5.670   3.548   1.845 -1.4628  0.5811 -0.3655
19474TIP3    H279914   5.659   3.577   1.993  1.4340  1.2604 -0.2175
19475TIP3   OH279915   2.702   5.787   5.266  0.3686 -0.1755 -0.1994
19475TIP3    H179916   2.707   5.700   5.227  1.0565 -0.0529 -0.3992
19475TIP3    H279917   2.790   5.803   5.301 -0.0755 -0.0360  0.8690
19476TIP3   OH279918   4.498   2.081   6.172 -0.5639 -0.7345  0.3001
19476TIP3    H179919   4.508   2.025   6.248  2.1239 -1.1785 -0.3083
19476TIP3    H279920   4.501   2.170   6.207 -1.2417 -0.9241  0.8704
19477TIP3   OH279921   5.489   0.868  14.106 -0.1762  0.2324 -0.1387
19477TIP3    H179922   5.548   0.888  14.180 -1.2585  2.7228  0.1457
19477TIP3    H279923   5.547   0.862  14.031  0.7130 -0.0065  0.5454
19478TIP3   OH279924   4.929   4.892  15.631  0.4429 -0.4113  0.4111
19478TIP3    H179925   4.923   4.972  15.579  1.3520 -0.0003  0.9190
19478TIP3    H279926   4.878   4.828  15.582 -0.3668  0.4954  0.0392
19479TIP3   OH279927   2.944   1.792   6.636  0.0087  0.2998 -0.2015
19479TIP3    H179928   2.942   1.864   6.574  0.7886  1.3938  0.9988
19479TIP3    H279929   2.852   1.772   6.652 -0.2133  0.0928 -1.5545
19480TIP3   OH279930   2.579   0.820  11.072  0.3576 -0.3887 -0.5036
19480TIP3    H179931   2.491   0.783  11.070 -0.6656  1.7205  1.5255
19480TIP3    H279932   2.566   0.914  11.084  2.8556  0.4989 -3.3583
19481TIP3   OH279933   2.599   3.053   0.657  0.3540  0.7588  0.0717
19481TIP3    H179934   2.679   3.010   0.688  0.0676  0.7196  0.7720
19481TIP3    H279935   2.624   3.145   0.644  0.4762  0.7756  0.4270
19482TIP3   OH279936   6.513   0.827  11.845  0.0493 -0.4573 -0.5733
19482TIP3    H179937   6.606   0.835  11.870  0.1691 -1.3940 -0.7031
19482TIP3    H279938   6.468   0.887  11.904  0.7440  0.0582 -0.5478
19483TIP3   OH279939   5.617   5.195   2.128  0.2378 -0.1096  0.2282
19483TIP3    H179940   5.688   5.150   2.175  0.7835 -0.1291 -0.5979
19483TIP3    H279941   5.646   5.286   2.123  1.0071 -0.4253 -1.5703
19484TIP3   OH279942   1.235   1.842  13.141  0.8616 -0.2490 -0.1577
19484TIP3    H179943   1.164   1.793  13.182 -0.3706  0.9801 -0.7227
19484TIP3    H279944   1.296   1.861  13.213  0.4203 -0.9798  0.4180
19485TIP3   OH279945   4.931   4.404  16.367 -0.2967  0.1638  0.4296
19485TIP3    H179946   4.946   4.329  16.425 -2.4766 -0.8144 -0.1648
19485TIP3    H279947   5.015   4.420  16.325  0.3732 -1.5402  1.0586
19486TIP3   OH279948   3.918   1.760   1.417 -0.3948 -0.3725 -0.6322
19486TIP3    H179949   3.827   1.731   1.406 -0.2569 -0.5932 -1.2272
19486TIP3    H279950   3.915   1.855   1.402 -0.1788 -0.6896 -2.9374
19487TIP3   OH279951   3.006   2.037  13.357  0.4476  0.0604  0.2824
19487TIP3    H179952   2.989   2.120  13.313 -0.8371  0.4663  1.4737
19487TIP3    H279953   2.998   1.971  13.288 -0.9710  0.7175 -0.2084
19488TIP3   OH279954   0.861   0.222   0.475 -0.3219  0.2177 -0.0286
19488TIP3    H179955   0.830   0.233   0.385 -0.3824 -0.0116 -0.0354
19488TIP3    H279956   0.781   0.220   0.527 -0.2707  0.7878  0.0791
19489TIP3   OH279957   0.114   5.297  13.220 -0.4746 -0.6168 -0.1128
19489TIP3    H179958   0.183   5.271  13.159 -0.4651  0.4193 -0.5760
19489TIP3    H279959   0.099   5.220  13.274 -0.4648 -1.5541 -1.4036
19490TIP3   OH279960   5.516   3.778  11.077 -0.2429  0.2912 -0.5407
19490TIP3    H179961   5.446   3.809  11.020 -0.0351 -0.2775 -1.1153
19490TIP3    H279962   5.486   3.692  11.108 -0.2513  0.4935  0.0246
19491TIP3   OH279963   0.260   0.641   2.911 -0.2994 -0.2198 -0.1162
19491TIP3    H179964   0.278   0.665   2.820 -1.1039  0.5895 -0.0771
19491TIP3    H279965   0.266   0.546   2.912  1.2337 -0.1611 -0.6792
19492TIP3   OH279966   3.078   2.790  16.354 -0.6309  0.2428  0.7950
19492TIP3    H179967   3.116   2.703  16.343  0.7072  0.9288 -0.4782
19492TIP3    H279968   3.144   2.838  16.405 -0.1110  1.2069 -0.7108
19493TIP3   OH279969   3.642   2.108  15.281 -0.2450 -0.4149 -0.4486
19493TIP3    H179970   3.681   2.103  15.194 -0.2025  0.2553 -0.4727
19493TIP3    H279971   3.548   2.100  15.267 -0.1606 -1.5963 -0.4314
19494TIP3   OH279972   5.984   1.042  13.023 -0.6979  0.3568 -0.3604
19494TIP3    H179973   5.957   1.002  12.940  0.9092  1.1254 -1.3011
19494TIP3    H279974   5.961   1.134  13.014 -0.3337  0.4818 -0.0301
19495TIP3   OH279975   0.807   2.328   2.136 -0.2016 -0.6509  0.1864
19495TIP3    H179976   0.855   2.258   2.092 -0.9550 -0.5022 -0.9031
19495TIP3    H279977   0.821   2.405   2.082 -1.3003 -0.5013  0.0920
19496TIP3   OH279978   1.528   4.866   3.829 -0.4915 -0.0937  0.1172
19496TIP3    H179979   1.581   4.814   3.890  0.6564  0.6329 -0.2307
19496TIP3    H279980   1.592   4.910   3.773 -1.4958 -1.2299 -2.0738
19497TIP3   OH279981   3.444   6.406  14.604  0.0908  0.6503 -0.3468
19497TIP3    H179982   3.524   6.399  14.552 -0.7132  0.9996 -1.6777
19497TIP3    H279983   3.418   6.316  14.620  0.1097  0.5293 -0.9519
19498TIP3   OH279984   0.784   4.987   6.087 -0.4013 -0.2956  0.6970
19498TIP3    H179985   0.801   4.952   6.174  2.0310  1.1109  0.8912
19498TIP3    H279986   0.867   5.028   6.062 -1.6010  0.9287 -1.5253
19499TIP3   OH279987   3.361   0.825   2.668 -0.0939  0.0250 -0.4710
19499TIP3    H179988   3.408   0.745   2.643  0.4746  0.6890 -1.5668
19499TIP3    H279989   3.429   0.893   2.671 -0.1082  0.0625  2.7687
19500TIP3   OH279990   0.184   3.576  14.601  0.6652  0.2104  0.3163
19500TIP3    H179991   0.254   3.520  14.634  2.0625  1.0381 -1.1127
19500TIP3    H279992   0.188   3.567  14.506  0.7197  2.4176  0.0505
19501TIP3   OH279993   0.357   4.245   2.050 -0.5476 -0.0466 -0.8322
19501TIP3    H179994   0.352   4.230   1.956 -0.9284 -0.4401 -0.7488
19501TIP3    H279995   0.318   4.167   2.090  0.1650 -0.1666 -0.3349
19502TIP3   OH279996   4.157   4.686  13.757  0.2089 -0.0704  0.3189
19502TIP3    H179997   4.169   4.751  13.688  4.1706  0.1503  0.9559
19502TIP3    H279998   4.116   4.611  13.713 -0.2432  1.1991 -1.5146
19503TIP3   OH279999   0.976   2.841   4.928 -0.6163  0.3979 -0.2114
19503TIP3    H180000   0.931   2.873   5.007 -0.2555  1.3105 -0.3558
19503TIP3    H280001   1.049   2.789   4.962 -0.9005  0.1625  0.0451
19504TIP3   OH280002   6.391   2.573   3.436  0.1599 -0.3195  0.1513
19504TIP3    H180003   6.302   2.539   3.426  0.1266 -0.3640  0.5901
19504TIP3    H280004   6.398   2.598   3.528  0.4414  0.1404  0.0119
19505TIP3   OH280005   5.695   4.525  11.601  0.3847  0.0090  0.2009
19505TIP3    H180006   5.644   4.583  11.545  0.2180  0.0730  0.4222
19505TIP3    H280007   5.775   4.574  11.619  0.4382 -0.0101  0.0247
19506TIP3   OH280008   0.812   2.898  17.231  0.2392 -0.4485 -0.1381
19506TIP3    H180009   0.896   2.909  17.187 -0.1686 -0.5367 -0.9438
19506TIP3    H280010   0.787   2.987  17.257  0.1118 -0.2966 -0.7750
19507TIP3   OH280011   2.685   1.473   1.565  0.4268  0.0570  0.1902
19507TIP3    H180012   2.724   1.389   1.540  1.4860  0.6257 -0.1591
19507TIP3    H280013   2.757   1.535   1.558 -0.3631  1.0150  0.3664
19508TIP3   OH280014   3.723   3.057  17.134  0.1354  0.5162  0.1700
19508TIP3    H180015   3.687   3.097  17.213 -2.5324  0.4901 -0.9368
19508TIP3    H280016   3.783   2.990  17.167 -0.5891  0.7657  2.1623
19509TIP3   OH280017   3.919   5.367   5.332 -0.1530  0.2996  0.1930
19509TIP3    H180018   3.983   5.317   5.281  0.3138 -0.1333  1.1880
19509TIP3    H280019   3.898   5.442   5.276 -0.3767 -0.6519 -1.0537
19510TIP3   OH280020   1.081   5.034  16.471  0.2702  0.5240 -0.0961
19510TIP3    H180021   1.002   4.996  16.434  1.7964 -3.5118  0.3346
19510TIP3    H280022   1.087   4.998  16.560  2.5758  0.6285 -0.1302
19511TIP3   OH280023   4.378   6.112  16.657 -0.0720 -0.2242 -0.0335
19511TIP3    H180024   4.457   6.071  16.692  0.3036 -1.0728 -1.7650
19511TIP3    H280025   4.393   6.206  16.667  1.3306 -0.3581 -0.6285
19512TIP3   OH280026   4.391   3.691   1.236 -0.1601  0.4381 -0.1034
19512TIP3    H180027   4.327   3.625   1.211 -0.0149  0.3964 -0.3713
19512TIP3    H280028   4.390   3.691   1.332  1.9578 -2.0985  0.0461
19513TIP3   OH280029   1.654   4.204  12.457 -0.0173  0.0334  0.2763
19513TIP3    H180030   1.599   4.274  12.493  0.7312  1.3338 -1.0103
19513TIP3    H280031   1.660   4.223  12.364  3.1493  0.3607  0.4364
19514TIP3   OH280032   6.011   2.646   0.788 -0.2126  0.5767  0.0625
19514TIP3    H180033   6.082   2.591   0.821  2.9069  2.8213 -2.3233
19514TIP3    H280034   6.010   2.631   0.693 -0.5100  3.1489 -0.4285
19515TIP3   OH280035   1.827   5.968   3.364  0.1870 -0.2072 -0.1687
19515TIP3    H180036   1.834   6.039   3.300  2.1307  0.1351  0.3570
19515TIP3    H280037   1.733   5.956   3.375 -0.2340  2.2972 -0.2857
19516TIP3   OH280038   4.468   4.363   3.847  0.5027  0.1871  0.0608
19516TIP3    H180039   4.509   4.288   3.804 -0.9017 -0.7845  0.3365
19516TIP3    H280040   4.420   4.407   3.777  0.3999  0.1626  0.1155
19517TIP3   OH280041   2.664   1.764   5.851 -0.0243  0.0576  0.0784
19517TIP3    H180042   2.584   1.742   5.802 -0.5532  1.1257  0.4245
19517TIP3    H280043   2.654   1.720   5.935 -0.8215  1.1351  0.5674
19518TIP3   OH280044   6.457   4.636  17.266 -0.1793 -0.8594  0.8182
19518TIP3    H180045   6.514   4.712  17.271 -1.7857  0.4026  0.6386
19518TIP3    H280046   6.517   4.561  17.264  1.4404  0.3907  0.7979
19519TIP3   OH280047   0.069   4.352  12.119  0.3180  0.1972 -0.2640
19519TIP3    H180048   0.120   4.312  12.189  1.1136  0.7845 -0.5030
19519TIP3    H280049  -0.020   4.321  12.135  0.6828 -0.5912  0.3368
19520TIP3   OH280050   1.046   5.131  14.881 -0.0090 -0.3845  0.4242
19520TIP3    H180051   1.057   5.055  14.825  1.7740 -0.6955  1.1375
19520TIP3    H280052   1.116   5.191  14.855  0.7402 -0.4596  2.1699
19521TIP3   OH280053   5.999   1.325   3.713  0.2736  0.7894  0.2688
19521TIP3    H180054   6.034   1.321   3.802 -0.9670  0.4257  0.7663
19521TIP3    H280055   5.935   1.253   3.709  1.3737 -0.1708 -1.4024
19522TIP3   OH280056   3.439   3.361   3.365  0.1961 -0.5177  0.0891
19522TIP3    H180057   3.433   3.439   3.420  0.5492  0.2704 -0.9553
19522TIP3    H280058   3.432   3.395   3.276 -1.4000 -1.8620 -0.3478
19523TIP3   OH280059   4.033   1.935   5.648 -0.1751  0.1029 -0.4974
19523TIP3    H180060   4.077   1.861   5.691 -0.6273  0.7234  1.0998
19523TIP3    H280061   3.942   1.906   5.639 -0.7008  0.9601  1.4896
19524TIP3   OH280062   6.123   4.411   1.573  0.4562  0.2123 -0.5184
19524TIP3    H180063   6.124   4.452   1.486  0.6160 -0.0634 -0.6438
19524TIP3    H280064   6.034   4.427   1.605  0.7757  1.4591 -0.1859
19525TIP3   OH280065   1.987   2.430  17.183  0.0856  0.0978  0.1890
19525TIP3    H180066   2.077   2.451  17.209 -0.1875  0.7542  0.6200
19525TIP3    H280067   1.990   2.336  17.163  0.7772  0.0270  0.5697
19526TIP3   OH280068   6.739   4.429   2.731  0.2217 -0.9084  0.3155
19526TIP3    H180069   6.749   4.461   2.820  1.3823 -2.1871  0.6774
19526TIP3    H280070   6.654   4.462   2.703  0.8466  1.4808  1.0320
19527TIP3   OH280071   4.393   4.162  16.488  0.2724  0.6405  0.6078
19527TIP3    H180072   4.304   4.134  16.510  1.5674 -3.6123  1.2970
19527TIP3    H280073   4.402   4.143  16.395  0.6489  0.4759  0.6769
19528TIP3   OH280074   4.258   3.158   4.279 -0.5600  0.3793  0.0891
19528TIP3    H180075   4.250   3.144   4.185 -0.7188  0.8124  0.0377
19528TIP3    H280076   4.350   3.140   4.298 -0.1853  1.6767 -0.3892
19529TIP3   OH280077   2.536   2.981  16.128  0.1552 -0.0586 -0.0299
19529TIP3    H180078   2.531   2.896  16.084  0.1425  0.2546 -0.6380
19529TIP3    H280079   2.446   3.014  16.126  0.3848  0.5284 -0.9139
19530TIP3   OH280080   4.495   4.258   3.440  0.3599  0.1831  0.7050
19530TIP3    H180081   4.501   4.171   3.400  0.6782  0.3116  0.4619
19530TIP3    H280082   4.436   4.247   3.514  2.5146 -0.8771  2.3710
19531TIP3   OH280083   5.922   3.506   2.439  0.3260  0.6853  0.0527
19531TIP3    H180084   6.011   3.524   2.471 -0.8819  1.1097  3.6299
19531TIP3    H280085   5.875   3.588   2.453 -1.3779 -0.4516  1.4257
19532TIP3   OH280086   2.644   2.168   0.613  0.5888  0.4364  0.5205
19532TIP3    H180087   2.641   2.249   0.664 -0.2791  0.8587 -0.1653
19532TIP3    H280088   2.653   2.099   0.678 -1.4147  0.8930  1.3717
19533TIP3   OH280089   5.908   4.571  14.835 -0.5153 -0.4049 -0.3696
19533TIP3    H180090   5.930   4.570  14.742  1.5037 -3.1397 -0.0112
19533TIP3    H280091   5.989   4.597  14.879 -1.0186 -0.5283  0.6618
19534TIP3   OH280092   1.079   0.061   1.665 -0.0746 -0.3972  0.0305
19534TIP3    H180093   1.077   0.024   1.577  1.1817  0.9291 -0.5933
19534TIP3    H280094   0.987   0.080   1.685 -0.3488 -0.4988 -1.0708
19535TIP3   OH280095   4.441   3.462   4.273  0.3083  0.2843 -0.9250
19535TIP3    H180096   4.482   3.427   4.352 -1.6379 -0.4381 -0.1853
19535TIP3    H280097   4.455   3.393   4.207 -3.8266 -2.4031  0.6169
19536TIP3   OH280098   5.422   2.516  12.982 -0.4524 -0.0581  0.3488
19536TIP3    H180099   5.431   2.475  12.897  2.9308  0.0539  0.5106
19536TIP3    H280100   5.426   2.444  13.045  1.6739  0.1205  0.4934
19537TIP3   OH280101   4.539   4.850   0.555  0.1983  0.0472  0.0906
19537TIP3    H180102   4.515   4.782   0.492 -1.6767  1.2139 -0.5106
19537TIP3    H280103   4.542   4.930   0.504  0.2954  0.7559  1.1780
19538TIP3   OH280104   6.450   2.278  15.271 -0.4577 -0.0080 -0.0542
19538TIP3    H180105   6.524   2.318  15.225 -1.2794  0.1922 -1.2620
19538TIP3    H280106   6.404   2.228  15.203 -3.6067  2.9048 -0.3164
19539TIP3   OH280107   4.288   6.269   2.613  0.3044  0.2892  0.4837
19539TIP3    H180108   4.379   6.245   2.597  0.5207  1.5351 -0.2629
19539TIP3    H280109   4.291   6.361   2.640 -0.5946 -0.1141  2.1328
19540TIP3   OH280110   5.087   1.492  13.190 -0.4595 -0.2198 -0.2445
19540TIP3    H180111   5.071   1.402  13.163 -0.8817 -0.2568  0.1223
19540TIP3    H280112   5.007   1.519  13.234 -0.7400  0.6753 -1.2409
19541TIP3   OH280113   6.221   6.372   2.869  0.5403 -0.9501  0.7190
19541TIP3    H180114   6.127   6.392   2.862  0.7905  0.3414  0.7272
19541TIP3    H280115   6.234   6.299   2.808 -0.1334  0.0887 -0.7408
19542TIP3   OH280116   2.928   2.027   4.030  0.7655  0.5704 -0.0466
19542TIP3    H180117   2.935   2.037   3.935 -1.7666 -1.2968 -0.5460
19542TIP3    H280118   2.957   1.937   4.046 -0.8206  0.1486  0.6217
19543TIP3   OH280119   6.699   6.586   3.015 -0.0969 -0.2167  0.1925
19543TIP3    H180120   6.716   6.494   3.035 -3.9393 -1.4419 -1.1773
19543TIP3    H280121   6.648   6.617   3.090 -1.6157 -0.2878 -0.7624
19544TIP3   OH280122   1.160   6.262   0.723 -0.1720  0.0277 -0.1788
19544TIP3    H180123   1.148   6.207   0.801  1.1822 -0.4284 -0.2607
19544TIP3    H280124   1.106   6.340   0.739 -0.6135 -0.4648  0.7989
19545TIP3   OH280125   6.251   3.811  12.728  0.1831 -0.2967 -0.3648
19545TIP3    H180126   6.209   3.847  12.807 -0.1631  1.9996 -1.5067
19545TIP3    H280127   6.344   3.808  12.750 -0.0202 -0.6400  0.4743
19546TIP3   OH280128   1.308   1.004  15.487  0.0172  0.0918 -0.0973
19546TIP3    H180129   1.214   1.004  15.469  0.0578  0.5236 -0.3053
19546TIP3    H280130   1.338   0.917  15.459 -0.7186 -0.9430  2.0937
19547TIP3   OH280131   2.966   4.515   4.964 -0.2114 -0.5521  0.4722
19547TIP3    H180132   2.989   4.591   4.911  0.9299 -0.4600  1.0661
19547TIP3    H280133   2.871   4.513   4.965 -0.2397  0.4872 -0.0928
19548TIP3   OH280134   3.299   0.238  14.701 -0.2664 -0.0833  0.5376
19548TIP3    H180135   3.278   0.145  14.702  2.7380 -0.8643  0.4603
19548TIP3    H280136   3.273   0.268  14.614  0.2989 -1.2910 -0.0674
19549TIP3   OH280137   1.787   3.899  13.898 -0.8222  0.0013  0.3072
19549TIP3    H180138   1.814   3.987  13.871 -0.3580  0.0314  0.8630
19549TIP3    H280139   1.867   3.858  13.930  0.0323 -2.1527 -3.8076
19550TIP3   OH280140   3.207   3.618   3.878 -0.1968  0.0821 -0.2761
19550TIP3    H180141   3.161   3.669   3.812 -0.1144  1.5536  0.7599
19550TIP3    H280142   3.138   3.580   3.932 -0.2426 -0.0538 -0.4304
19551TIP3   OH280143   3.235   2.201   3.323 -0.6498 -0.4472 -0.0444
19551TIP3    H180144   3.248   2.286   3.281 -1.0240  0.0513  0.8276
19551TIP3    H280145   3.231   2.139   3.250  0.7436  0.1201 -0.6414
19552TIP3   OH280146   5.313   3.149   2.703  0.1955 -0.4602  0.1045
19552TIP3    H180147   5.246   3.208   2.669  0.7462  0.3312  0.3476
19552TIP3    H280148   5.265   3.085   2.754 -0.4416 -0.3534 -0.3507
19553TIP3   OH280149   4.056   4.058  14.009 -0.0257 -0.4993  0.5253
19553TIP3    H180150   4.052   3.996  13.936  1.1351  0.6901 -0.5900
19553TIP3    H280151   4.061   4.002  14.087 -1.7327 -1.7986 -0.2196
19554TIP3   OH280152   1.686   1.739   1.406  0.1822 -0.0259 -0.2031
19554TIP3    H180153   1.781   1.732   1.391 -0.0393 -1.6880 -1.1072
19554TIP3    H280154   1.672   1.691   1.488  0.0942  0.0983 -0.1453
19555TIP3   OH280155   0.213   2.798  15.259  0.0750  0.0036 -0.6651
19555TIP3    H180156   0.158   2.722  15.241 -1.3045  0.6343  0.6811
19555TIP3    H280157   0.250   2.822  15.174 -0.0526 -1.6935 -1.2391
19556TIP3   OH280158   5.513   3.100   2.444 -0.1307  0.2192 -0.5286
19556TIP3    H180159   5.597   3.145   2.443 -0.0082  0.0093 -0.1587
19556TIP3    H280160   5.465   3.139   2.518 -0.1901  0.0425 -0.4726
19557TIP3   OH280161   3.488   5.121   5.450  0.0988  0.6652 -0.0319
19557TIP3    H180162   3.517   5.037   5.486 -0.0176  0.9585  0.7629
19557TIP3    H280163   3.392   5.114   5.449  0.0935  0.7454 -0.0813
19558TIP3   OH280164   4.890   3.484  15.958  0.1967 -0.1924  0.4336
19558TIP3    H180165   4.941   3.455  15.883  0.2266  0.3912  0.2244
19558TIP3    H280166   4.954   3.508  16.024  0.2060  0.5645  0.1612
19559TIP3   OH280167   4.491   5.257  15.656  0.1732 -0.0782 -0.1226
19559TIP3    H180168   4.398   5.269  15.676 -0.3530  0.0081 -2.4431
19559TIP3    H280169   4.506   5.163  15.664 -0.3411 -0.2049 -0.6237
19560TIP3   OH280170   4.064   5.223   1.710 -0.2494  0.1913  0.7339
19560TIP3    H180171   4.027   5.135   1.713 -1.0466  0.5392  1.5834
19560TIP3    H280172   4.110   5.233   1.793 -1.2441  1.0086  1.2173
19561TIP3   OH280173   3.930   0.560  13.279 -0.0102 -0.6811  0.2777
19561TIP3    H180174   3.868   0.490  13.298 -0.6724  0.1114  1.1752
19561TIP3    H280175   3.882   0.618  13.220 -0.2527  0.0718  1.1810
19562TIP3   OH280176   1.233   0.861   2.219  0.4988 -0.2111 -0.3488
19562TIP3    H180177   1.283   0.942   2.224 -1.6825  1.3160 -1.3466
19562TIP3    H280178   1.156   0.877   2.273  0.1253 -1.7290 -0.3680
19563TIP3   OH280179   0.399   4.830  14.045 -0.3738 -0.3619 -0.7563
19563TIP3    H180180   0.310   4.861  14.058  0.6079  2.6703 -0.2589
19563TIP3    H280181   0.408   4.820  13.950 -1.1471 -0.3729 -0.8304
19564TIP3   OH280182   3.204   3.011  16.877 -0.0334  0.7381  0.4033
19564TIP3    H180183   3.155   2.959  16.940  1.1273 -2.1806 -0.9014
19564TIP3    H280184   3.139   3.037  16.812 -0.4549 -0.2438  0.4103
19565TIP3   OH280185   0.408   1.420   0.721  0.4530 -0.2049 -0.2428
19565TIP3    H180186   0.328   1.378   0.753  1.6398 -1.5582  1.0504
19565TIP3    H280187   0.387   1.514   0.722 -0.4439 -0.3638  2.1497
19566TIP3   OH280188   1.603   4.277   1.466  0.0294  0.4008  0.4625
19566TIP3    H180189   1.655   4.219   1.521 -1.1232  0.2540  1.4394
19566TIP3    H280190   1.651   4.281   1.383 -0.0884 -2.3533  0.1776
19567TIP3   OH280191   5.246   5.188   0.759  0.2208  0.5582 -0.2214
19567TIP3    H180192   5.294   5.265   0.729  0.0783  0.5701 -0.4195
19567TIP3    H280193   5.229   5.137   0.679 -0.1329  0.5748 -0.1574
19568TIP3   OH280194   3.545   3.127   1.910  0.2139 -0.6579  0.1464
19568TIP3    H180195   3.508   3.207   1.949  0.9866 -0.4776  0.5467
19568TIP3    H280196   3.640   3.145   1.907  0.0918  0.1220 -3.5838
19569TIP3   OH280197   4.355   4.263   4.802 -0.3601  0.7610 -0.5508
19569TIP3    H180198   4.404   4.268   4.719  1.1421  0.4729  0.2805
19569TIP3    H280199   4.385   4.338   4.852 -1.3036  0.9652 -0.2753
19570TIP3   OH280200   5.055   2.535   1.752  0.3009  0.0320 -0.5143
19570TIP3    H180201   5.015   2.609   1.707 -0.9036  1.4373  2.5397
19570TIP3    H280202   5.145   2.564   1.770 -0.1343  0.8080  0.5775
19571TIP3   OH280203   5.673   0.074  12.177 -0.8736  0.0334  0.0808
19571TIP3    H180204   5.646   0.158  12.141  0.4560  0.1160 -0.8153
19571TIP3    H280205   5.651   0.010  12.110 -0.1663 -0.0698 -0.0654
19572TIP3   OH280206   2.802   6.293   1.571 -0.5740  0.0589  0.2758
19572TIP3    H180207   2.731   6.333   1.520 -0.4671  0.1082  0.1633
19572TIP3    H280208   2.843   6.367   1.616 -0.0019  0.1676 -0.3928
19573TIP3   OH280209   1.462   5.923  16.921  0.1836  0.3561  0.2937
19573TIP3    H180210   1.534   5.941  16.859  1.1332 -1.4929  0.7797
19573TIP3    H280211   1.468   5.993  16.986  0.8609  0.8254 -0.2581
19574TIP3   OH280212   0.183   4.059  16.428  0.0916  0.0553 -0.5132
19574TIP3    H180213   0.170   4.072  16.334 -0.3687 -0.9469 -0.5935
19574TIP3    H280214   0.267   4.013  16.434 -0.8473 -1.7713 -0.5989
19575TIP3   OH280215   5.075   4.246  11.895 -0.2214  0.1266  0.2780
19575TIP3    H180216   5.120   4.311  11.950 -0.4943  0.1702  0.4499
19575TIP3    H280217   5.143   4.215  11.835  0.0274  0.2286  0.5036
19576TIP3   OH280218   6.164   0.761   0.457 -0.2607  0.6490 -0.1519
19576TIP3    H180219   6.088   0.762   0.399 -0.1394  1.4315 -0.3142
19576TIP3    H280220   6.197   0.851   0.454  1.1358  0.1518 -0.7139
19577TIP3   OH280221   4.307   6.540  16.079 -0.0143  0.1505  0.7163
19577TIP3    H180222   4.294   6.599  16.153  1.7420  1.1607  0.2877
19577TIP3    H280223   4.358   6.591  16.017  1.8685 -1.8959  0.4514
19578TIP3   OH280224   3.338   2.220   2.114  0.6848 -0.6213  0.1171
19578TIP3    H180225   3.418   2.266   2.139  1.3380 -1.3412 -0.5914
19578TIP3    H280226   3.275   2.290   2.096  1.4587 -0.0178 -0.3036
19579TIP3   OH280227   4.511   6.294  14.217 -0.4127 -0.1008 -0.2400
19579TIP3    H180228   4.586   6.339  14.256 -0.8633  0.7653 -0.3494
19579TIP3    H280229   4.536   6.282  14.126  1.0490 -2.9859  0.4183
19580TIP3   OH280230   2.183   0.476  14.206  0.3176  0.3058  0.0847
19580TIP3    H180231   2.162   0.566  14.231  1.3678  0.7392 -0.5330
19580TIP3    H280232   2.194   0.430  14.289  0.5200  0.9267  0.4067
19581TIP3   OH280233   5.432   1.468   4.779  0.0813  0.4625 -0.2147
19581TIP3    H180234   5.343   1.447   4.805  0.0928 -0.2178 -0.7104
19581TIP3    H280235   5.443   1.560   4.802 -0.8635  0.6486 -0.4897
19582TIP3   OH280236   1.538   3.863   0.679 -0.1339  1.1217  0.3203
19582TIP3    H180237   1.602   3.852   0.750 -1.0821 -1.0483  0.9021
19582TIP3    H280238   1.458   3.823   0.712 -1.4407  2.5851 -0.9232
19583TIP3   OH280239   4.179   2.048  15.804 -0.3717  0.0629 -0.9286
19583TIP3    H180240   4.202   1.957  15.785  0.4951  0.6747 -3.0853
19583TIP3    H280241   4.115   2.042  15.875  1.2126 -2.0817  0.4324
19584TIP3   OH280242   3.030   4.147  15.499  0.0601 -0.0963  0.1978
19584TIP3    H180243   3.104   4.112  15.547  0.4739 -0.8462 -0.9567
19584TIP3    H280244   2.958   4.148  15.563  1.1416  1.0536  1.4497
19585TIP3   OH280245   5.898   4.148  13.383 -0.3851 -0.0726 -0.2711
19585TIP3    H180246   5.960   4.192  13.441 -0.0383 -1.3460  0.3513
19585TIP3    H280247   5.951   4.114  13.312 -0.3500 -1.1147  0.2336
19586TIP3   OH280248   6.384   4.634  12.597 -0.3852  0.2011  0.2287
19586TIP3    H180249   6.412   4.576  12.668 -2.0173  0.9894  1.5956
19586TIP3    H280250   6.295   4.604  12.577  0.5251 -0.9593 -2.5745
19587TIP3   OH280251   1.336   5.511  15.814  0.2588  0.2600 -0.7937
19587TIP3    H180252   1.344   5.606  15.815  0.8577  0.2114 -0.3533
19587TIP3    H280253   1.319   5.487  15.905 -1.0620  0.0319 -1.0894
19588TIP3   OH280254   1.967   1.857  10.653  0.2474 -0.3780 -0.1550
19588TIP3    H180255   1.886   1.907  10.662  0.4936 -0.1420  1.0016
19588TIP3    H280256   2.027   1.915  10.607  0.1946 -0.0133  0.2361
19589TIP3   OH280257   1.933   1.923   3.152  0.7112 -0.6096  0.6736
19589TIP3    H180258   1.891   1.837   3.148  0.6035 -0.6006  1.4145
19589TIP3    H280259   1.902   1.961   3.235 -0.1248  0.6011 -0.1574
19590TIP3   OH280260   0.437   3.140   0.065 -0.1051 -0.0529 -0.0715
19590TIP3    H180261   0.372   3.152   0.134 -0.3753  1.1848 -0.5153
19590TIP3    H280262   0.517   3.115   0.110 -0.3301  0.5434  0.6700
19591TIP3   OH280263   5.316   6.415  16.318 -0.1920  0.4298 -0.3123
19591TIP3    H180264   5.252   6.476  16.355 -0.3685  0.5862 -0.8731
19591TIP3    H280265   5.390   6.418  16.378 -0.4144  0.7994 -0.0561
19592TIP3   OH280266   0.656   5.223   2.408 -0.1052  0.0754 -0.2491
19592TIP3    H180267   0.597   5.298   2.417 -1.4437 -0.8930 -0.6215
19592TIP3    H280268   0.638   5.169   2.486  2.9165  1.4416  1.5857
19593TIP3   OH280269   4.232   5.010   1.083  0.2358 -0.1096  0.0271
19593TIP3    H180270   4.305   4.959   1.119  0.3265 -0.7877 -1.0675
19593TIP3    H280271   4.180   4.946   1.034 -1.4057  0.2580  1.2205
19594TIP3   OH280272   3.554   6.539  13.345 -0.3915 -0.2029 -0.1091
19594TIP3    H180273   3.498   6.474  13.386 -0.1033  0.8463  2.1106
19594TIP3    H280274   3.515   6.623  13.370  1.3487  0.5163  0.3227
19595TIP3   OH280275   1.197   2.665   4.927 -0.2908 -0.7275  0.2193
19595TIP3    H180276   1.199   2.644   4.833  1.3080 -0.2710  0.1185
19595TIP3    H280277   1.251   2.598   4.968  0.1897 -0.1138  0.6147
19596TIP3   OH280278   3.130   6.377   5.549 -0.1163 -0.0034  0.0896
19596TIP3    H180279   3.036   6.366   5.533 -0.0806 -1.6041  0.8849
19596TIP3    H280280   3.152   6.457   5.501 -1.7904  0.1747 -0.4639
19597TIP3   OH280281   1.344   5.468  12.432 -0.0618  0.1799  0.0208
19597TIP3    H180282   1.321   5.553  12.469  1.3524  0.3805  0.4820
19597TIP3    H280283   1.310   5.405  12.495  1.5764  0.4998  1.3115
19598TIP3   OH280284   6.235   2.999   2.572 -0.0777 -0.0348  0.0224
19598TIP3    H180285   6.287   2.965   2.499  0.9749 -0.2997  0.8612
19598TIP3    H280286   6.174   3.060   2.531  0.1781 -0.5072 -1.1281
19599TIP3   OH280287   4.170   1.609   3.016  0.0178  0.3079 -0.1004
19599TIP3    H180288   4.251   1.602   2.967 -0.8966 -2.0641 -1.4485
19599TIP3    H280289   4.110   1.548   2.972 -1.5859 -0.1886  2.5472
19600TIP3   OH280290   3.743   2.755  10.365  0.6136 -0.0547  0.1406
19600TIP3    H180291   3.784   2.671  10.347 -0.5733 -0.6075 -0.0301
19600TIP3    H280292   3.649   2.737  10.370  0.2712  1.3418 -0.4668
19601TIP3   OH280293   6.096   3.914   3.244  0.1186  0.3348  0.4242
19601TIP3    H180294   6.021   3.856   3.229  0.6332 -0.3750  0.5695
19601TIP3    H280295   6.093   3.933   3.338  1.8174 -2.1208  1.0711
19602TIP3   OH280296   5.746   4.738  13.981  0.1663  0.7980  0.1589
19602TIP3    H180297   5.706   4.656  13.953 -0.8053  1.2897  0.0605
19602TIP3    H280298   5.827   4.744  13.931 -0.7814  0.9176 -1.4072
19603TIP3   OH280299   4.821   0.464   5.127 -0.1674 -0.0562 -0.0876
19603TIP3    H180300   4.852   0.502   5.045  1.9415 -2.1576 -0.3953
19603TIP3    H280301   4.794   0.539   5.180 -2.0472  1.3285 -2.8030
19604TIP3   OH280302   6.556   4.465   3.865  0.9145 -0.4860 -0.0491
19604TIP3    H180303   6.649   4.484   3.855  1.1545 -1.8562 -0.6025
19604TIP3    H280304   6.514   4.507   3.789  1.1413 -0.3100 -0.0776
19605TIP3   OH280305   2.710   3.129   4.338 -0.1706 -0.1442 -0.1199
19605TIP3    H180306   2.778   3.135   4.271 -0.1775  0.5441 -0.0721
19605TIP3    H280307   2.747   3.071   4.405  0.5700  0.6330  0.1485
19606TIP3   OH280308   4.064   4.878   3.895 -0.0806  0.2734  0.4407
19606TIP3    H180309   3.977   4.840   3.902  0.1747 -0.0745  2.5738
19606TIP3    H280310   4.105   4.858   3.980  2.3640 -0.3171 -0.7942
19607TIP3   OH280311   3.358   3.119  17.177 -0.7314 -0.3224 -0.8405
19607TIP3    H180312   3.426   3.065  17.218 -0.0084 -0.3140 -1.9992
19607TIP3    H280313   3.277   3.091  17.219  0.1545  1.1955  2.2274
19608TIP3   OH280314   2.031   1.144  12.845  0.1940 -0.2119  0.0899
19608TIP3    H180315   2.026   1.109  12.935 -0.4338  0.8309  0.4737
19608TIP3    H280316   2.056   1.235  12.856 -0.7386  0.1635 -0.7444
19609TIP3   OH280317   6.264   3.164  13.068 -0.1046  0.3796 -0.1928
19609TIP3    H180318   6.351   3.126  13.051 -1.4865 -2.6273 -1.2106
19609TIP3    H280319   6.279   3.258  13.064  3.2348  0.0155  0.4002
19610TIP3   OH280320   0.421   5.302  11.576 -0.5936  0.4267 -0.3590
19610TIP3    H180321   0.422   5.229  11.514  0.3646 -3.2961  3.5361
19610TIP3    H280322   0.329   5.329  11.580 -1.0766 -0.8869 -1.6582
19611TIP3   OH280323   6.457   3.313   5.405 -0.3418 -0.3352 -0.2237
19611TIP3    H180324   6.403   3.236   5.385  0.6179 -1.7859  2.2460
19611TIP3    H280325   6.532   3.305   5.346 -0.8139 -0.6375 -0.7944
19612TIP3   OH280326   4.729   3.401   2.189 -0.2992  0.6160 -0.3845
19612TIP3    H180327   4.824   3.400   2.178 -0.3487 -1.1199 -0.9157
19612TIP3    H280328   4.714   3.459   2.264  1.3441 -0.7210  1.0544
19613TIP3   OH280329   6.158   2.570  15.770 -0.8878  0.3227  0.5017
19613TIP3    H180330   6.169   2.480  15.739 -0.7782  0.4872  0.0567
19613TIP3    H280331   6.213   2.623  15.712 -0.3540  0.5933  1.2401
19614TIP3   OH280332   1.749   4.017  17.170 -0.4220 -0.4070  0.0294
19614TIP3    H180333   1.682   4.028  17.238  0.1550  1.1697  0.3730
19614TIP3    H280334   1.796   3.938  17.197  0.0954  0.4358  1.7756
19615TIP3   OH280335   5.774   2.753  11.319  0.2563 -0.6976 -0.2136
19615TIP3    H180336   5.688   2.789  11.341  1.1564  0.7088  1.3780
19615TIP3    H280337   5.791   2.689  11.388  1.0519  0.1301  0.4020
19616TIP3   OH280338   1.535   3.956   0.019 -0.6109  0.0161  0.2671
19616TIP3    H180339   1.511   3.865   0.035 -1.9982  0.4782  0.9878
19616TIP3    H280340   1.494   4.005   0.091  0.1773  1.1973 -0.0627
19617TIP3   OH280341   1.223   2.536   3.886  0.0830  0.1919  0.4567
19617TIP3    H180342   1.242   2.625   3.854  1.5761 -0.0366  0.6481
19617TIP3    H280343   1.302   2.510   3.933 -0.4654 -1.1187  0.6898
19618TIP3   OH280344   2.772   3.488   2.592  0.5397 -0.5018 -0.1475
19618TIP3    H180345   2.692   3.469   2.642 -0.0332  1.0122 -0.4054
19618TIP3    H280346   2.835   3.516   2.658  0.4132 -0.3924 -0.0703
19619TIP3   OH280347   4.712   1.794   3.271  0.4613 -0.0779 -0.5108
19619TIP3    H180348   4.635   1.741   3.253  0.6835 -0.2304 -1.0341
19619TIP3    H280349   4.681   1.884   3.266 -0.0221 -0.1471  0.8631
19620TIP3   OH280350   2.231   2.962  13.462  0.2069 -0.6681 -0.1214
19620TIP3    H180351   2.219   3.056  13.452  1.5285 -0.3818  0.8499
19620TIP3    H280352   2.270   2.934  13.380  2.4252  0.1323  0.5913
19621TIP3   OH280353   6.381   1.190   2.536  0.6602 -0.4219 -0.0040
19621TIP3    H180354   6.319   1.143   2.480  1.7799 -0.3988 -1.3223
19621TIP3    H280355   6.454   1.210   2.479  2.6382 -1.8688  1.8786
19622TIP3   OH280356   5.115   0.935   5.248 -0.0013 -0.6464 -0.2810
19622TIP3    H180357   5.071   0.889   5.178  0.5577 -0.5121 -0.7258
19622TIP3    H280358   5.086   1.026   5.240  0.5597 -0.5011 -0.7505
19623TIP3   OH280359   0.029   3.733  16.498  0.3094  0.0110 -0.6347
19623TIP3    H180360   0.100   3.768  16.552  1.3858 -0.6370 -1.5884
19623TIP3    H280361  -0.045   3.792  16.515 -0.3238 -1.6743  3.6113
19624TIP3   OH280362   0.301   2.941   3.997 -0.1954  0.2318 -0.0461
19624TIP3    H180363   0.299   2.868   3.935 -0.9606  0.1808  0.0247
19624TIP3    H280364   0.385   2.932   4.042 -0.9939 -1.7041  1.2331
19625TIP3   OH280365   0.795   1.863  11.434 -1.0533  0.1366  0.4157
19625TIP3    H180366   0.865   1.802  11.411 -0.7307  0.9463 -0.8519
19625TIP3    H280367   0.801   1.871  11.530  0.1095 -0.3741  0.4015
19626TIP3   OH280368   3.778   5.805  12.617  0.0922 -0.5180 -0.3051
19626TIP3    H180369   3.809   5.841  12.534  0.6830 -0.7860 -0.2036
19626TIP3    H280370   3.786   5.878  12.679  1.4071 -0.8314 -0.0700
19627TIP3   OH280371   5.330   1.349  16.247  0.1804  0.0173 -0.1496
19627TIP3    H180372   5.273   1.413  16.289 -0.6264 -0.6589 -0.1908
19627TIP3    H280373   5.361   1.392  16.168  1.4367  1.1754  0.9234
19628TIP3   OH280374   6.541   6.609   3.225 -0.1756  0.1616 -0.0642
19628TIP3    H180375   6.524   6.677   3.290 -0.0387 -1.0578  1.3000
19628TIP3    H280376   6.454   6.572   3.207  0.1317 -3.3713  3.9048
19629TIP3   OH280377   0.544   1.991  11.293 -0.6050  0.1738  0.5641
19629TIP3    H180378   0.538   2.060  11.360 -0.5525 -0.7581  1.5599
19629TIP3    H280379   0.610   1.931  11.327  0.2326  0.2456 -0.8792
19630TIP3   OH280380   2.215   4.869  16.973  0.7109 -0.0128 -0.4639
19630TIP3    H180381   2.187   4.902  17.059 -1.7024 -0.7851 -0.8781
19630TIP3    H280382   2.183   4.779  16.971  2.2708 -0.5799 -1.5259
19631TIP3   OH280383   5.568   2.575   1.759  0.3340 -0.0824 -0.2415
19631TIP3    H180384   5.595   2.598   1.670 -0.5098  0.1962 -0.4333
19631TIP3    H280385   5.649   2.549   1.802  0.7910  0.0054 -1.0217
19632TIP3   OH280386   0.944   2.795   6.089  0.0854  0.2620  0.3713
19632TIP3    H180387   1.037   2.784   6.108 -0.3873 -0.2412  2.6155
19632TIP3    H280388   0.930   2.744   6.009  1.4424 -0.9989  0.8938
19633TIP3   OH280389   4.943   1.166   5.644  0.4081  0.3064  0.7594
19633TIP3    H180390   4.961   1.109   5.719 -0.2822 -1.2943 -0.2311
19633TIP3    H280391   4.858   1.136   5.611  0.2877  1.5639 -0.1341
19634TIP3   OH280392   4.994   0.791   1.983 -0.7236  0.5990 -0.5391
19634TIP3    H180393   4.940   0.721   1.945  0.6527 -0.8100 -0.0113
19634TIP3    H280394   4.932   0.862   1.999 -2.3445 -0.7607 -0.4001
19635TIP3   OH280395   0.226   0.542   0.929 -0.5096 -0.1278  0.1882
19635TIP3    H180396   0.318   0.527   0.907 -0.4375  1.0755 -0.3996
19635TIP3    H280397   0.229   0.608   0.999 -0.9412  0.3318 -0.2238
19636TIP3   OH280398   1.213   6.106   2.489 -0.2999 -0.3187 -0.4765
19636TIP3    H180399   1.202   6.011   2.495 -2.8933 -0.0611  0.4675
19636TIP3    H280400   1.240   6.133   2.577  0.7179 -0.1879 -0.8190
19637TIP3   OH280401   5.819   1.170   5.569 -0.1384 -0.1276  0.1724
19637TIP3    H180402   5.893   1.141   5.516  0.3900  0.1578  0.7485
19637TIP3    H280403   5.845   1.255   5.604  0.5818 -1.3543  2.8696
19638TIP3   OH280404   1.801   3.158  13.662 -0.0212 -0.2949  0.0227
19638TIP3    H180405   1.732   3.146  13.596 -0.1408 -0.6325  0.2072
19638TIP3    H280406   1.775   3.101  13.734  0.9318 -1.1374 -0.2753
19639TIP3   OH280407   4.000   0.112   3.006  0.2633 -0.2030  0.1649
19639TIP3    H180408   4.016   0.105   2.911 -0.6794 -0.1531 -0.0053
19639TIP3    H280409   3.994   0.206   3.021 -1.0636 -0.2490  0.0075
19640TIP3   OH280410   1.670   3.971   6.105 -0.4025  0.2504 -0.4997
19640TIP3    H180411   1.678   3.877   6.091 -1.4762  0.0019  0.4055
19640TIP3    H280412   1.739   3.992   6.169  0.3236  0.2343 -1.2574
19641TIP3   OH280413   3.958   6.369   4.791  0.1155 -0.2620 -0.3367
19641TIP3    H180414   3.923   6.321   4.866  2.2928  0.4268  1.2377
19641TIP3    H280415   4.015   6.307   4.746  0.0273 -0.2281 -0.4963
19642TIP3   OH280416   0.564   1.891   2.140 -0.3012  0.1199 -0.1520
19642TIP3    H180417   0.591   1.807   2.101  0.3928 -0.2698  1.1060
19642TIP3    H280418   0.637   1.950   2.122 -0.1621  0.0522  0.1746
19643TIP3   OH280419   3.671   4.412   3.251  0.4438  0.1624  1.1547
19643TIP3    H180420   3.666   4.370   3.337 -0.8870 -1.9685  0.1038
19643TIP3    H280421   3.764   4.429   3.239  1.1526 -2.8686  1.5375
19644TIP3   OH280422   0.099   4.908   3.048  0.4946  0.3625 -0.4906
19644TIP3    H180423   0.018   4.858   3.059  0.4877  0.1960 -1.2825
19644TIP3    H280424   0.070   5.000   3.048  0.4174  0.3478  0.1386
19645TIP3   OH280425   2.713   5.037  15.954  0.0014  0.6201  1.2701
19645TIP3    H180426   2.670   4.958  15.921  0.2973  0.3682  1.4825
19645TIP3    H280427   2.645   5.105  15.949  0.8529  1.4741 -2.9512
19646TIP3   OH280428   4.168   0.327  14.530  0.2550 -0.3747 -0.2820
19646TIP3    H180429   4.092   0.274  14.555  1.5750 -1.7522  1.0119
19646TIP3    H280430   4.196   0.290  14.446  0.0005 -0.4187 -0.3500
19647TIP3   OH280431   0.293   6.140   4.737  0.1450 -0.3431 -0.1368
19647TIP3    H180432   0.354   6.169   4.805 -0.7083  0.9321  0.1055
19647TIP3    H280433   0.207   6.167   4.768 -0.3133 -0.1750 -1.4849
19648TIP3   OH280434   1.183   4.170   5.590  0.5545  0.0308  0.1658
19648TIP3    H180435   1.122   4.146   5.520  0.7315  1.5666 -0.5506
19648TIP3    H280436   1.264   4.193   5.544  1.4726 -1.2973  1.0603
19649TIP3   OH280437   1.706   1.949   5.987 -0.0634  0.6885 -0.1214
19649TIP3    H180438   1.629   1.949   6.044  1.2170  0.6936  1.6512
19649TIP3    H280439   1.753   1.870   6.009  1.3384  1.5484  0.0709
19650TIP3   OH280440   6.598   2.766   4.173 -0.1318 -0.0799 -0.0769
19650TIP3    H180441   6.663   2.756   4.104  0.6300  1.1034  0.4338
19650TIP3    H280442   6.650   2.776   4.253 -0.9442  0.6035  0.3817
19651TIP3   OH280443   4.997   4.145  14.764  0.1230  0.1357 -0.0141
19651TIP3    H180444   5.021   4.195  14.842  0.9784  0.2239 -0.3189
19651TIP3    H280445   4.937   4.201  14.716 -0.3962  0.0858  0.5741
19652TIP3   OH280446   0.919   1.004   5.195  0.2407 -0.1926  0.3849
19652TIP3    H180447   0.945   1.022   5.105  1.2859 -0.0016  0.7141
19652TIP3    H280448   0.838   0.954   5.187 -0.3499  0.8733 -0.6364
19653TIP3   OH280449   0.791   2.006   2.226  0.0623 -0.0133  0.1036
19653TIP3    H180450   0.885   2.023   2.220  0.1290  0.0762  1.2498
19653TIP3    H280451   0.759   2.066   2.294 -0.1517 -2.5132  2.3751
19654TIP3   OH280452   4.382   2.874   5.615  0.0464 -0.8557  0.9285
19654TIP3    H180453   4.317   2.942   5.636 -0.1864 -1.5405  2.6398
19654TIP3    H280454   4.348   2.830   5.538 -1.5223 -1.1640  1.7636
19655TIP3   OH280455   5.594   4.176   5.611 -0.5483  0.0758  0.0557
19655TIP3    H180456   5.528   4.238   5.642 -1.0918  0.7268 -2.1954
19655TIP3    H280457   5.544   4.114   5.558  0.6635  1.1083 -2.4618
19656TIP3   OH280458   6.319   1.376   4.047 -0.0687  0.7648  0.7196
19656TIP3    H180459   6.400   1.335   4.076 -0.7494 -2.6102 -1.5301
19656TIP3    H280460   6.341   1.412   3.961 -0.7163  0.5675  0.4669
19657TIP3   OH280461   1.022   1.196   2.645  0.1284 -0.5781 -0.4537
19657TIP3    H180462   1.095   1.156   2.692 -0.8425 -0.1813  1.5337
19657TIP3    H280463   1.054   1.283   2.620  0.5566 -0.6520 -0.1759
19658TIP3   OH280464   0.737   2.031   5.194 -0.3219  0.2672 -0.1174
19658TIP3    H180465   0.652   2.006   5.228 -0.0527  0.1924  0.5160
19658TIP3    H280466   0.755   1.968   5.124 -1.3792  1.1043 -1.1821
19659TIP3   OH280467   4.445   6.131  17.102 -0.7488 -0.2862 -0.3870
19659TIP3    H180468   4.358   6.171  17.106 -1.7368 -2.2110 -1.3555
19659TIP3    H280469   4.433   6.043  17.137  0.8684 -0.5254 -0.3565
19660TIP3   OH280470   6.294   1.898  11.136 -0.0038 -0.3544 -0.0527
19660TIP3    H180471   6.384   1.877  11.159 -0.3389  0.6766  2.5566
19660TIP3    H280472   6.300   1.977  11.083  0.6219  0.4102  1.1006
19661TIP3   OH280473   6.269   5.941   1.999 -0.3002  0.3874  0.3948
19661TIP3    H180474   6.217   5.920   1.921  1.1185 -1.4070 -0.1576
19661TIP3    H280475   6.310   5.858   2.023 -0.3595  0.9892  2.8405
19662TIP3   OH280476   0.513   2.948   1.392 -0.1934  0.3224 -0.5032
19662TIP3    H180477   0.583   2.954   1.328 -0.8602  0.7558 -1.2026
19662TIP3    H280478   0.476   3.036   1.396  0.0547  0.3866  0.7239
19663TIP3   OH280479   1.713   3.252   1.303 -0.1320 -0.4780 -0.2178
19663TIP3    H180480   1.701   3.245   1.209 -0.7126 -0.3602 -0.1562
19663TIP3    H280481   1.624   3.253   1.339  0.0902 -1.0841  0.3704
19664TIP3   OH280482   2.650   2.970  12.975  0.0905  0.2688  0.3762
19664TIP3    H180483   2.582   3.007  12.917 -0.5321 -0.1558  0.8224
19664TIP3    H280484   2.731   3.013  12.947 -0.1649 -0.0542 -0.9380
19665TIP3   OH280485   5.960   6.553   2.110 -0.2360  0.1108  1.0495
19665TIP3    H180486   5.962   6.473   2.057 -1.7782 -0.2777  1.5233
19665TIP3    H280487   5.993   6.621   2.052 -2.1155 -0.2434 -0.5463
19666TIP3   OH280488   3.247   4.495  13.560  0.2762 -0.1599 -0.1409
19666TIP3    H180489   3.284   4.583  13.554 -0.1507 -0.0758 -2.9886
19666TIP3    H280490   3.173   4.503  13.620 -0.5882  1.7752 -1.3867
19667TIP3   OH280491   5.584   4.105  15.476  0.1715 -0.0176  0.1921
19667TIP3    H180492   5.629   4.164  15.537  1.1288 -1.8266  1.2923
19667TIP3    H280493   5.519   4.059  15.530 -1.7039  1.0928 -0.9791
19668TIP3   OH280494   4.121   4.048   5.371 -0.0485  0.6657  0.4281
19668TIP3    H180495   4.154   3.996   5.298 -0.9066 -0.1043  0.5742
19668TIP3    H280496   4.178   4.125   5.374  3.5358 -1.7480  2.2724
19669TIP3   OH280497   6.574   3.305   0.564  0.2704 -0.2278 -0.1243
19669TIP3    H180498   6.659   3.272   0.592 -0.4817  0.2854  3.2700
19669TIP3    H280499   6.588   3.398   0.549  0.3612 -0.1672  0.3159
19670TIP3   OH280500   5.817   1.361   4.555 -0.0532 -0.1372  0.0938
19670TIP3    H180501   5.819   1.384   4.462  0.8644 -2.0447 -0.4037
19670TIP3    H280502   5.772   1.277   4.558 -1.6509  0.7179  1.6192
19671TIP3   OH280503   2.930   3.585   6.780  0.1034  0.0010  0.4201
19671TIP3    H180504   2.950   3.506   6.830 -1.3194 -0.2068  0.7068
19671TIP3    H280505   2.911   3.553   6.692 -0.3635  0.0363  0.5079
19672TIP3   OH280506   3.913   3.914   0.585 -0.0442 -0.5158 -0.5343
19672TIP3    H180507   3.982   3.850   0.604  0.7633  0.7602  1.1472
19672TIP3    H280508   3.833   3.872   0.616  0.2250 -1.3350 -0.9180
19673TIP3   OH280509   1.436   3.261   1.348 -0.1719 -0.2916 -0.1863
19673TIP3    H180510   1.436   3.328   1.280 -0.3571 -0.2183 -0.1132
19673TIP3    H280511   1.389   3.301   1.421  1.1354  0.1038  0.4563
19674TIP3   OH280512   6.584   6.000   3.878  0.1739  0.3190 -0.4015
19674TIP3    H180513   6.497   5.976   3.910  0.0946  0.1288 -0.7526
19674TIP3    H280514   6.587   5.964   3.789  0.8287 -0.1602 -0.1816
19675TIP3   OH280515   4.780   3.961   5.279  0.9431 -0.3085 -0.2333
19675TIP3    H180516   4.767   3.890   5.217  2.4193 -0.8657  0.0624
19675TIP3    H280517   4.715   3.947   5.347 -0.8780  0.4563 -1.7286
19676TIP3   OH280518   5.162   1.389  13.711 -0.1288 -0.3032 -0.5407
19676TIP3    H180519   5.149   1.452  13.641  2.0140  0.0597 -0.6631
19676TIP3    H280520   5.133   1.306  13.674 -4.2538  0.6312  0.0414
19677TIP3   OH280521   2.408   4.628   4.158 -0.1137  0.0465  0.5773
19677TIP3    H180522   2.336   4.588   4.208 -1.9841  0.4354 -1.5954
19677TIP3    H280523   2.448   4.690   4.218 -2.8640  1.1968  1.3654
19678TIP3   OH280524   6.404   6.821   1.078  0.1089  0.0774 -0.4060
19678TIP3    H180525   6.478   6.830   1.138 -0.0963  2.1473 -0.4152
19678TIP3    H280526   6.332   6.867   1.120 -0.4037  0.4548 -1.6442
19679TIP3   OH280527   2.690   4.729  13.661  0.1402 -0.0911  0.3454
19679TIP3    H180528   2.769   4.681  13.636  1.4742  2.4508 -0.6497
19679TIP3    H280529   2.618   4.679  13.621  1.0306 -3.0032  2.0774
19680TIP3   OH280530   6.565   0.232   1.643 -0.3881  0.2272 -0.2117
19680TIP3    H180531   6.535   0.293   1.576 -3.3451  0.4781  1.1700
19680TIP3    H280532   6.548   0.276   1.726  1.8784 -0.6225  0.8090
19681TIP3   OH280533   5.269   1.517   6.398 -0.2274  0.3590  0.2689
19681TIP3    H180534   5.364   1.522   6.385 -0.1583 -0.2021  0.5317
19681TIP3    H280535   5.244   1.437   6.354 -0.4845  0.1764  0.7408
19682TIP3   OH280536   0.742   0.990   0.854 -0.2659 -0.0272 -0.6179
19682TIP3    H180537   0.745   1.055   0.924  0.4585 -0.2588 -0.4283
19682TIP3    H280538   0.775   1.035   0.777  0.7049 -0.2918 -0.3750
19683TIP3   OH280539   0.299   4.719  16.255  0.3431 -0.2076 -0.1993
19683TIP3    H180540   0.389   4.693  16.273  0.1611 -0.3311  0.5753
19683TIP3    H280541   0.300   4.815  16.262  0.1672 -0.2799  1.0746
19684TIP3   OH280542   0.903   3.704  15.086 -0.0414 -0.4847 -0.2724
19684TIP3    H180543   0.850   3.782  15.070  1.1970  0.5230  0.4175
19684TIP3    H280544   0.912   3.663  15.000 -0.7324  0.0933 -0.6327
19685TIP3   OH280545   1.299   4.606  12.438 -0.1363  0.7930  0.1856
19685TIP3    H180546   1.392   4.629  12.441  0.1307 -0.2936  0.8294
19685TIP3    H280547   1.272   4.628  12.349  0.9612  0.3434 -0.2812
19686TIP3   OH280548   4.472   1.690   4.861 -0.4094 -0.2960  0.0427
19686TIP3    H180549   4.539   1.745   4.903 -0.4069  0.1313 -0.5058
19686TIP3    H280550   4.427   1.648   4.934  0.2721 -0.3701  0.4309
19687TIP3   OH280551   3.204   4.635  12.117 -0.4851 -0.0260  0.0171
19687TIP3    H180552   3.195   4.670  12.206  1.8435 -1.1349  0.7618
19687TIP3    H280553   3.114   4.628  12.085 -1.3459  1.0334  2.0193
19688TIP3   OH280554   2.232   1.562  10.802 -0.0108  0.0100  0.7211
19688TIP3    H180555   2.322   1.591  10.816  0.2639 -0.5784  0.2613
19688TIP3    H280556   2.236   1.467  10.815 -0.8739  0.1450  2.1666
19689TIP3   OH280557   4.805   1.656  15.500  0.7810  0.2036 -0.0058
19689TIP3    H180558   4.758   1.739  15.503  1.8437  0.8480 -0.5625
19689TIP3    H280559   4.820   1.634  15.592 -1.3033 -0.4611  0.2285
19690TIP3   OH280560   2.740   2.742  12.442 -0.1927  0.0440  0.0012
19690TIP3    H180561   2.777   2.793  12.370 -0.5213 -0.0425 -0.2275
19690TIP3    H280562   2.800   2.758  12.515  1.0788 -1.1903 -0.7259
19691TIP3   OH280563   3.632   2.038  16.448  0.0289 -0.1298 -0.1805
19691TIP3    H180564   3.640   1.945  16.472 -1.1179  0.1482  1.4261
19691TIP3    H280565   3.643   2.039  16.353  0.9923 -1.7922 -0.1257
19692TIP3   OH280566   4.200   1.063   5.807 -0.7694 -0.2856 -0.6611
19692TIP3    H180567   4.277   1.040   5.757 -0.6011  0.1854 -0.6256
19692TIP3    H280568   4.203   1.158   5.813 -0.6090 -0.3488  0.5136
19693TIP3   OH280569   2.866   4.728   0.010 -0.0591  0.2863  0.1353
19693TIP3    H180570   2.821   4.810   0.030 -0.6280  0.9964 -3.3990
19693TIP3    H280571   2.828   4.699  -0.073  0.9332 -3.0006  0.6771
19694TIP3   OH280572   3.772   1.272   3.086 -0.3373  0.9886 -0.6388
19694TIP3    H180573   3.850   1.250   3.036  1.0097 -0.7605  1.9870
19694TIP3    H280574   3.700   1.228   3.040  0.5736  0.6451 -1.7718
19695TIP3   OH280575   2.628   2.417   3.929  0.2346  0.3565  0.4528
19695TIP3    H180576   2.607   2.503   3.892  0.6412 -0.1966 -1.1365
19695TIP3    H280577   2.576   2.412   4.010 -0.4868  1.7164  0.0966
19696TIP3   OH280578   5.808   0.241  15.346  0.2958 -0.5474 -0.1962
19696TIP3    H180579   5.752   0.315  15.321 -0.7893 -1.2995 -0.0521
19696TIP3    H280580   5.837   0.263  15.435  0.8694  0.2105 -0.5604
19697TIP3   OH280581   2.710   4.619   1.701  0.3024  0.4343  0.3278
19697TIP3    H180582   2.626   4.575   1.686  0.6191  0.0330 -0.3418
19697TIP3    H280583   2.775   4.555   1.672  0.7877  1.2543 -0.4197
19698TIP3   OH280584   4.920   3.032  15.693  0.4881 -0.0600 -0.2098
19698TIP3    H180585   4.848   3.045  15.632  0.7931 -2.0938 -1.0826
19698TIP3    H280586   4.998   3.058  15.643  0.4500  1.7654  0.6013
19699TIP3   OH280587   3.783   1.590  14.014  0.4062  0.0935 -0.3858
19699TIP3    H180588   3.692   1.618  14.007  0.7398  0.7491 -3.4344
19699TIP3    H280589   3.778   1.496  14.030 -0.7831  0.2233  0.0905
19700TIP3   OH280590   2.192   5.754   3.304  0.1353 -0.2515  0.3463
19700TIP3    H180591   2.236   5.685   3.256  0.9489  0.4316  0.0840
19700TIP3    H280592   2.199   5.831   3.248  1.2613  0.6093  1.6110
19701TIP3   OH280593   0.714   6.578  13.955 -0.0254 -0.2293  0.0390
19701TIP3    H180594   0.779   6.647  13.941 -0.0957 -0.3037 -0.7235
19701TIP3    H280595   0.661   6.579  13.875 -1.1811  0.0568  0.7907
19702TIP3   OH280596   3.202   4.515  15.700  0.0061 -1.0777 -0.4872
19702TIP3    H180597   3.292   4.485  15.716  0.1073 -0.8845 -0.6811
19702TIP3    H280598   3.147   4.447  15.737  0.2332 -1.0335 -0.0579
19703TIP3   OH280599   0.019   5.448   1.568  0.4636  0.7616 -0.0501
19703TIP3    H180600   0.000   5.478   1.479 -1.0519  0.6814  0.2178
19703TIP3    H280601   0.103   5.402   1.561  0.8608  1.6175 -1.2297
19704TIP3   OH280602   4.815   0.284   2.625  0.2623 -0.8846 -0.2919
19704TIP3    H180603   4.819   0.251   2.536 -1.0172  2.8652 -1.9184
19704TIP3    H280604   4.722   0.292   2.644  0.5206 -0.7317  1.0479
19705TIP3   OH280605   3.921   3.813   0.308  0.0865 -0.0966  0.0565
19705TIP3    H180606   3.945   3.859   0.227 -0.7017  1.6147  0.7622
19705TIP3    H280607   3.972   3.857   0.376 -2.6994  1.6523  1.1561
19706TIP3   OH280608   2.438   1.019  15.964 -0.0851 -0.4708  0.5789
19706TIP3    H180609   2.502   0.947  15.966 -0.9336 -1.2245  1.9279
19706TIP3    H280610   2.376   0.993  15.896  1.3002  0.5517 -1.1616
19707TIP3   OH280611   4.054   4.751   0.138  0.4814 -0.3490 -0.0023
19707TIP3    H180612   4.048   4.843   0.162  0.8848 -0.7393  1.7653
19707TIP3    H280613   4.007   4.744   0.055 -2.1409  0.9206  1.2700
19708TIP3   OH280614   0.133   2.025  12.880  0.0495  0.5272  0.0255
19708TIP3    H180615   0.132   2.016  12.975  1.4433  2.3940  0.2595
19708TIP3    H280616   0.193   1.957  12.851 -0.2995  0.0183  0.4626
19709TIP3   OH280617   6.160   5.837   3.763 -0.1308 -0.5195  0.2268
19709TIP3    H180618   6.169   5.912   3.704  0.8836 -0.7206  0.1162
19709TIP3    H280619   6.071   5.845   3.798 -0.6444 -0.2238 -1.0881
19710TIP3   OH280620   5.031   6.789  13.294 -0.6467  0.5139 -0.0494
19710TIP3    H180621   5.102   6.730  13.269 -1.0807 -0.4657  0.9795
19710TIP3    H280622   5.063   6.876  13.270 -0.2611 -0.1582 -2.2049
19711TIP3   OH280623   5.379   4.853   5.872  0.2273 -0.5549  0.4120
19711TIP3    H180624   5.434   4.913   5.922  1.3462 -0.3967 -0.9540
19711TIP3    H280625   5.431   4.773   5.864  0.6330 -0.1369 -1.5611
19712TIP3   OH280626   0.250   5.270   1.788  0.3550  0.2916 -0.2969
19712TIP3    H180627   0.329   5.303   1.832 -0.3148  0.3687  0.8908
19712TIP3    H280628   0.177   5.313   1.834 -0.3946  0.1619 -1.3187
19713TIP3   OH280629   1.957   6.344   1.072 -0.5019  0.0418  0.3997
19713TIP3    H180630   2.017   6.302   1.133  0.6056  1.2795  0.2085
19713TIP3    H280631   1.965   6.295   0.991  0.3434  0.2533  0.3454
19714TIP3   OH280632   6.501   1.033   4.738 -0.6585 -0.4989  0.3144
19714TIP3    H180633   6.526   0.968   4.804  0.5901  2.2407  2.7452
19714TIP3    H280634   6.565   1.022   4.667  0.2673 -1.1241  1.2294
19715TIP3   OH280635   3.122   5.189   5.873 -0.3631  0.2900 -0.0785
19715TIP3    H180636   3.185   5.168   5.942 -0.9209 -3.9377 -0.5922
19715TIP3    H280637   3.175   5.215   5.798  0.5839 -0.2174  0.4067
19716TIP3   OH280638   6.592   0.927  16.117 -0.1319  0.1609  0.0554
19716TIP3    H180639   6.679   0.905  16.150 -0.2309 -0.6798 -0.2135
19716TIP3    H280640   6.580   0.869  16.041 -0.4997  1.0282 -0.5609
19717TIP3   OH280641   6.019   5.786   0.961  0.7857  0.2376  0.2538
19717TIP3    H180642   6.008   5.868   1.010  1.6656  1.3372 -1.3370
19717TIP3    H280643   6.024   5.719   1.029 -0.3902  1.4237  1.5874
19718TIP3   OH280644   1.824   6.395   5.350 -0.2365  0.2424  0.1900
19718TIP3    H180645   1.818   6.487   5.327 -1.9462  0.9065  2.8263
19718TIP3    H280646   1.733   6.368   5.367  0.3713 -1.4434  1.0787
19719TIP3   OH280647   0.404   3.894  16.394  0.3245  0.0800  0.0774
19719TIP3    H180648   0.483   3.875  16.345  0.8512  0.0435  0.9235
19719TIP3    H280649   0.342   3.825  16.369  1.1425 -0.9071  0.7107
19720TIP3   OH280650   2.421   2.381   2.650  0.4657 -0.3556  0.1089
19720TIP3    H180651   2.362   2.428   2.709 -1.1920 -1.8750 -0.2642
19720TIP3    H280652   2.482   2.336   2.708 -0.3144 -0.7645  0.6224
19721TIP3   OH280653   6.240   4.588   2.258  0.3670  0.1847 -0.5285
19721TIP3    H180654   6.312   4.613   2.200  0.9049  1.2266  0.5454
19721TIP3    H280655   6.222   4.666   2.310  1.2534 -1.2167  2.0782
19722TIP3   OH280656   2.863   0.761   2.983 -0.9167 -0.3061  0.7805
19722TIP3    H180657   2.879   0.837   3.039 -2.1524  0.6009 -0.0577
19722TIP3    H280658   2.893   0.788   2.896 -0.4116 -1.1575  0.6800
19723TIP3   OH280659   2.585   0.803  12.327 -0.5071 -0.2660 -0.5880
19723TIP3    H180660   2.630   0.842  12.252 -1.0408  0.7688 -0.3936
19723TIP3    H280661   2.492   0.807  12.305 -0.6657 -0.0115  0.0915
19724TIP3   OH280662   3.105   1.519  12.975  0.3588  0.1509 -0.2626
19724TIP3    H180663   3.128   1.426  12.983 -0.5153 -0.1118 -0.7273
19724TIP3    H280664   3.031   1.531  13.034  1.8692  1.0984  1.5654
19725TIP3   OH280665   2.139   2.437  15.219 -0.3289 -0.0584  0.0783
19725TIP3    H180666   2.098   2.523  15.213 -2.4226 -1.0074 -0.3708
19725TIP3    H280667   2.184   2.426  15.135 -2.7861 -0.6088 -1.2865
19726TIP3   OH280668   0.846   1.225   0.296  0.1877 -0.5086 -0.1640
19726TIP3    H180669   0.781   1.212   0.226  0.2844 -0.4168 -0.2721
19726TIP3    H280670   0.844   1.144   0.346  0.0061 -0.5152 -0.1820
19727TIP3   OH280671   1.349   2.698  17.266 -0.4858  0.7414  0.1234
19727TIP3    H180672   1.415   2.753  17.308  1.9179  1.2364 -3.7723
19727TIP3    H280673   1.267   2.744  17.279  0.6445  2.5011  1.3771
19728TIP3   OH280674   0.271   2.985   6.745  0.2805  0.2709 -0.6874
19728TIP3    H180675   0.277   3.065   6.694 -0.0946  1.8441  1.5843
19728TIP3    H280676   0.180   2.958   6.736  0.3416  0.2433 -1.2424
19729TIP3   OH280677   0.218   1.115  13.992 -0.1544  0.3995  0.4338
19729TIP3    H180678   0.309   1.107  13.961  0.3984 -0.7953  2.2217
19729TIP3    H280679   0.166   1.112  13.912  1.2747 -1.2874 -0.5218
19730TIP3   OH280680   2.185   3.084   2.723 -0.2826  0.4622  0.0515
19730TIP3    H180681   2.219   3.158   2.673  0.7221  1.0239  1.5014
19730TIP3    H280682   2.256   3.020   2.722 -0.4461  0.2741  0.3509
19731TIP3   OH280683   1.713   5.695  11.478 -0.1192 -0.1246  0.2370
19731TIP3    H180684   1.643   5.629  11.481  0.4812 -0.7418  1.5997
19731TIP3    H280685   1.685   5.757  11.411 -1.5392 -0.8415  0.1340
19732TIP3   OH280686   1.450   1.196   4.884 -0.0362 -0.2147  0.2280
19732TIP3    H180687   1.361   1.166   4.866  0.8659 -1.7947 -2.0837
19732TIP3    H280688   1.498   1.117   4.906  0.9349  0.5551  0.9686
19733TIP3   OH280689   3.097   3.396  17.004 -0.3102 -0.6627  0.5218
19733TIP3    H180690   3.015   3.399  17.053  0.7607  1.6208  2.3580
19733TIP3    H280691   3.086   3.460  16.934 -0.2634 -0.7310  0.4519
19734TIP3   OH280692   2.477   3.210   3.971  0.1291  0.0772  0.8339
19734TIP3    H180693   2.510   3.142   4.030  0.8952  0.9256  1.4104
19734TIP3    H280694   2.402   3.170   3.928 -1.1455 -0.2263  3.1804
19735TIP3   OH280695   1.169   3.974  16.131 -0.2164 -0.5073  0.2344
19735TIP3    H180696   1.128   3.926  16.203  1.4059 -3.4651 -0.6106
19735TIP3    H280697   1.163   3.913  16.056  1.9921  0.6061 -0.9476
19736TIP3   OH280698   5.148   6.376   5.529  0.1455 -0.7402  0.2408
19736TIP3    H180699   5.064   6.340   5.501 -0.2941  0.2203  0.3134
19736TIP3    H280700   5.212   6.312   5.499 -0.6652 -1.9294  0.9432
19737TIP3   OH280701   1.091   1.343  12.754 -0.6061  0.3548  0.4859
19737TIP3    H180702   1.033   1.329  12.828  1.7597 -2.3024  2.0117
19737TIP3    H280703   1.051   1.294  12.682 -1.0786 -0.0695  1.0355
19738TIP3   OH280704   0.783   6.260   0.636 -0.1149  0.0029  0.1308
19738TIP3    H180705   0.836   6.181   0.645 -0.4047 -0.5750 -2.4890
19738TIP3    H280706   0.722   6.256   0.710  1.0419 -1.2373  1.0812
19739TIP3   OH280707   5.337   6.590  11.923 -0.2930  0.5587 -0.5243
19739TIP3    H180708   5.387   6.664  11.958  2.8957 -2.1140  1.1478
19739TIP3    H280709   5.374   6.575  11.836  1.2738 -0.8126  0.3254
19740TIP3   OH280710   3.972   1.161  15.314 -0.6649 -0.0293 -0.4564
19740TIP3    H180711   3.922   1.141  15.393  0.2787  0.3999  0.2741
19740TIP3    H280712   4.028   1.085  15.301 -0.3019  0.2051 -0.2859
19741TIP3   OH280713   4.629   3.021  16.808  0.1215  0.0714  0.3859
19741TIP3    H180714   4.718   3.058  16.805 -0.2667  0.9738 -2.3761
19741TIP3    H280715   4.602   3.034  16.899  1.0692  4.2810  0.3096
19742TIP3   OH280716   3.521   1.263   2.613 -0.5097  0.2852  0.1157
19742TIP3    H180717   3.471   1.249   2.533 -0.5737 -0.6664  0.3038
19742TIP3    H280718   3.562   1.348   2.602 -1.1277  0.4996 -0.5996
19743TIP3   OH280719   1.718   1.960  16.942  0.0869 -0.1147  0.3385
19743TIP3    H180720   1.749   2.048  16.962 -2.2709  0.7299  0.5223
19743TIP3    H280721   1.641   1.948  16.997 -0.5746 -1.6855 -0.8485
19744TIP3   OH280722   3.385   1.022  11.430 -0.6102 -0.2909 -0.4051
19744TIP3    H180723   3.308   1.077  11.417 -1.1177 -0.2772  2.1182
19744TIP3    H280724   3.453   1.081  11.462  0.2617 -0.4436 -1.8523
19745TIP3   OH280725   1.679   5.823  16.422 -0.1492  0.3011 -0.3130
19745TIP3    H180726   1.660   5.878  16.498 -2.2088 -0.1125 -0.4757
19745TIP3    H280727   1.659   5.879  16.347  1.9071  0.7199 -0.6225
19746TIP3   OH280728   1.227   0.481  11.982  0.4191  0.3506  0.3676
19746TIP3    H180729   1.266   0.406  11.937  0.2342  0.1652  0.5176
19746TIP3    H280730   1.287   0.553  11.963  0.8011  0.0825  0.5448
19747TIP3   OH280731   4.104   4.738   1.292  0.4388  0.0847 -0.1575
19747TIP3    H180732   4.166   4.788   1.240 -0.4107  0.7673 -0.5444
19747TIP3    H280733   4.124   4.760   1.383  2.0286 -1.2309 -0.1445
19748TIP3   OH280734   1.575   2.876  17.060  0.4978  0.2732  0.2956
19748TIP3    H180735   1.641   2.882  16.991  1.1300  0.0968  0.8722
19748TIP3    H280736   1.604   2.939  17.126 -0.3512  0.7665  0.2051
19749TIP3   OH280737   2.976   6.414  16.062  0.1261 -0.2445 -0.3369
19749TIP3    H180738   2.982   6.319  16.050 -1.0482 -0.1950 -1.5922
19749TIP3    H280739   2.882   6.431  16.070  0.4008  0.6938  1.2390
19750TIP3   OH280740   3.986   1.839  13.118 -0.4626  0.3906  0.1092
19750TIP3    H180741   3.953   1.830  13.028 -2.1759 -1.4630  0.8508
19750TIP3    H280742   3.926   1.902  13.159 -0.1462  0.6513  0.1740
19751TIP3   OH280743   5.012   1.652   2.609  0.3192 -0.5026 -0.3512
19751TIP3    H180744   5.058   1.710   2.550 -0.7614  0.4527 -0.2944
19751TIP3    H280745   4.994   1.574   2.557  0.8030 -0.3393 -0.7700
19752TIP3   OH280746   0.786   3.207  14.228 -0.4827  0.3879  0.1263
19752TIP3    H180747   0.741   3.191  14.145 -1.2983 -1.5993  0.8920
19752TIP3    H280748   0.809   3.300  14.225 -1.2032  0.5529 -1.9641
19753TIP3   OH280749   4.929   0.250   5.915  0.0413 -0.0037  0.1612
19753TIP3    H180750   5.010   0.200   5.911  0.7139  1.0775 -0.3014
19753TIP3    H280751   4.920   0.288   5.827 -0.0603  1.2434  0.6945
19754TIP3   OH280752   2.630   3.771   1.737  0.3483 -0.2543  0.3355
19754TIP3    H180753   2.618   3.846   1.796  1.8162  0.1768  0.1254
19754TIP3    H280754   2.615   3.694   1.792  0.0471  0.1705  0.8587
19755TIP3   OH280755   6.149   6.078   3.284  0.2693 -0.0939 -0.2660
19755TIP3    H180756   6.201   6.041   3.213 -0.3575 -1.5313 -0.0148
19755TIP3    H280757   6.151   6.011   3.352 -0.2865  0.6658  0.5206
19756TIP3   OH280758   4.244   4.690   1.542 -0.2462  0.1823 -0.1199
19756TIP3    H180759   4.261   4.619   1.603 -0.3016 -0.0490 -0.3719
19756TIP3    H280760   4.291   4.765   1.579 -0.6137  0.1542  0.4205
19757TIP3   OH280761   0.049   6.056  11.512  0.3608 -0.1245  0.0036
19757TIP3    H180762  -0.010   6.045  11.587 -0.1996 -0.1279 -0.4315
19757TIP3    H280763   0.036   6.147  11.485  1.3631  0.1967  0.5711
19758TIP3   OH280764   3.240   0.347  13.571 -0.0964  0.4535 -0.0539
19758TIP3    H180765   3.287   0.339  13.654  0.7553  0.2096 -0.5549
19758TIP3    H280766   3.155   0.385  13.595 -0.3666 -0.7961  1.0985
19759TIP3   OH280767   1.858   5.104  16.950 -0.3912 -0.4556 -0.4284
19759TIP3    H180768   1.934   5.159  16.967  0.1159 -0.9542 -1.0002
19759TIP3    H280769   1.888   5.044  16.881 -1.4436 -0.3645 -0.9801
19760TIP3   OH280770   0.783   4.585   1.781  0.5397 -0.1986  0.2206
19760TIP3    H180771   0.773   4.653   1.715  2.2795 -0.7823 -0.7106
19760TIP3    H280772   0.694   4.565   1.808 -0.3402 -0.4643 -2.5215
19761TIP3   OH280773   4.257   0.722   4.333  0.4284 -0.3697 -0.1360
19761TIP3    H180774   4.255   0.686   4.422 -1.3785 -0.3007 -0.1315
19761TIP3    H280775   4.343   0.765   4.328  1.0119 -1.3012  1.1887
19762TIP3   OH280776   4.843   2.611  15.107  0.0308 -0.2459  0.1952
19762TIP3    H180777   4.770   2.637  15.163  0.1050 -1.9346  1.1595
19762TIP3    H280778   4.919   2.607  15.165  0.6372  0.2725 -0.5342
19763TIP3   OH280779   5.965   0.269   0.726  0.2228 -0.2979 -0.3699
19763TIP3    H180780   6.056   0.294   0.716  0.7221 -2.1493 -0.9008
19763TIP3    H280781   5.916   0.330   0.671  1.1529  0.5897 -0.2202
19764TIP3   OH280782   0.378   2.173   1.658 -0.2960  0.6093 -0.2925
19764TIP3    H180783   0.393   2.264   1.683 -1.0136  0.6833 -0.1189
19764TIP3    H280784   0.426   2.122   1.723 -0.4902  0.8476  0.0370
19765TIP3   OH280785   1.892   5.164  14.903  0.4398 -0.0978  0.1893
19765TIP3    H180786   1.958   5.201  14.963 -2.5314  0.1622  3.6431
19765TIP3    H280787   1.827   5.233  14.895 -1.6139 -1.8857  0.6894
19766TIP3   OH280788   2.425   4.203   5.015 -0.2955  0.2411 -0.0188
19766TIP3    H180789   2.374   4.233   5.090 -1.2410 -1.9624  0.3154
19766TIP3    H280790   2.386   4.248   4.940  0.0326  1.7384  0.6773
19767TIP3   OH280791   5.593   2.895  14.180 -0.4169  0.2698 -0.1222
19767TIP3    H180792   5.600   2.982  14.140  1.0067  0.6367  0.8414
19767TIP3    H280793   5.511   2.898  14.231  0.1840  1.4716  0.8296
19768TIP3   OH280794   3.322   2.836   4.314 -0.2474  0.4728 -0.1006
19768TIP3    H180795   3.234   2.860   4.284 -0.2403  3.0426  1.6020
19768TIP3    H280796   3.307   2.758   4.369 -1.1372 -0.2579 -1.3175
19769TIP3   OH280797   4.804   1.023   1.729 -0.1254  0.0248  0.0449
19769TIP3    H180798   4.829   0.934   1.705 -1.2938 -0.1946 -0.4393
19769TIP3    H280799   4.872   1.079   1.691  0.9882 -0.6951  0.9441
19770TIP3   OH280800   4.442   1.043   3.496 -0.2296  0.1166  0.1163
19770TIP3    H180801   4.472   0.960   3.533  1.2861  1.2061  1.4851
19770TIP3    H280802   4.359   1.060   3.541 -0.9959 -1.0270 -0.8034
19771TIP3   OH280803   4.455   1.976  11.919 -0.3073 -0.2119  0.3354
19771TIP3    H180804   4.407   1.923  11.983 -0.5705  0.0600  0.3628
19771TIP3    H280805   4.419   2.064  11.928 -1.3347 -0.4362 -1.1517
19772TIP3   OH280806   5.889   4.375   6.119  0.2747  0.4744  0.1581
19772TIP3    H180807   5.885   4.432   6.195  1.2529  2.4102 -1.1387
19772TIP3    H280808   5.851   4.427   6.048 -1.2947 -1.5351 -0.5789
19773TIP3   OH280809   0.656   1.027   4.988 -0.0560  0.3447  0.7664
19773TIP3    H180810   0.579   1.076   4.958  0.1286  0.3122  0.2281
19773TIP3    H280811   0.728   1.062   4.935 -0.1010 -1.2556 -0.4044
19774TIP3   OH280812   1.569   1.490  15.177 -0.6949  0.1628 -0.5947
19774TIP3    H180813   1.509   1.416  15.164  0.6980 -1.5723  1.9867
19774TIP3    H280814   1.649   1.465  15.130  0.6682 -1.3053  2.2451
19775TIP3   OH280815   6.509   0.464  15.830 -0.2083 -0.2989 -0.2087
19775TIP3    H180816   6.485   0.493  15.742 -0.4247  0.4008  0.0799
19775TIP3    H280817   6.446   0.506  15.888 -0.7506 -1.6169  0.1969
19776TIP3   OH280818   6.598   1.583   2.085  0.4172  0.0159 -0.3412
19776TIP3    H180819   6.614   1.619   2.172 -2.1212  2.3315 -0.7000
19776TIP3    H280820   6.509   1.548   2.089 -0.8825  2.6338 -2.5912
19777TIP3   OH280821   0.236   4.581  14.624  0.3271  0.1112  0.3763
19777TIP3    H180822   0.217   4.492  14.653  1.2709  0.2763  1.5603
19777TIP3    H280823   0.158   4.631  14.647 -0.4292 -0.4920 -0.7835
19778TIP3   OH280824   2.268   3.052  16.087 -0.0991  0.4940 -0.4700
19778TIP3    H180825   2.186   3.022  16.125 -0.8907  1.3685 -1.4081
19778TIP3    H280826   2.247   3.067  15.994  0.9554  1.3104 -0.5995
19779TIP3   OH280827   1.808   6.792  14.044 -0.3012  0.2928  0.4975
19779TIP3    H180828   1.767   6.798  14.131  0.0940  1.6408  0.6202
19779TIP3    H280829   1.888   6.742  14.059 -1.7556 -2.2620  0.2785
19780TIP3   OH280830   6.719   5.735   2.041 -0.1963  0.2993  0.7110
19780TIP3    H180831   6.683   5.659   1.996  0.0021  1.0656 -0.7970
19780TIP3    H280832   6.766   5.698   2.116  1.5079 -1.2733 -1.0075
19781TIP3   OH280833   6.359   2.159   1.204  0.4659  0.2007 -0.0919
19781TIP3    H180834   6.327   2.072   1.227  1.4106 -0.0804  0.1789
19781TIP3    H280835   6.450   2.161   1.235  0.3435  1.4130  0.2407
19782TIP3   OH280836   1.082   1.847   3.731 -0.0833 -0.1326 -0.0084
19782TIP3    H180837   1.145   1.889   3.790  1.4858 -1.3311 -0.7424
19782TIP3    H280838   1.067   1.761   3.769 -0.1144 -0.4031 -0.6198
19783TIP3   OH280839   3.620   3.280  11.403 -0.2509  0.5762  0.2581
19783TIP3    H180840   3.625   3.255  11.495 -2.6664  0.1565  0.3420
19783TIP3    H280841   3.610   3.375  11.404 -0.5014  0.5476  0.4447
19784TIP3   OH280842   3.144   5.368   4.048  0.5121 -0.0302 -0.2862
19784TIP3    H180843   3.143   5.455   4.008  0.3233 -0.3181 -0.9103
19784TIP3    H280844   3.162   5.385   4.141  0.2806  0.6891 -0.3659
19785TIP3   OH280845   2.488   6.689   1.249  0.2050  0.4732  0.0141
19785TIP3    H180846   2.401   6.648   1.247 -0.8389  2.5322  0.3231
19785TIP3    H280847   2.512   6.697   1.157  0.6380 -1.1751 -0.0428
19786TIP3   OH280848   1.408   5.131  13.811 -1.1041  0.0252  0.4942
19786TIP3    H180849   1.460   5.126  13.891 -0.8223 -0.4564  0.2869
19786TIP3    H280850   1.326   5.172  13.838 -1.6223 -1.4970  1.3574
19787TIP3   OH280851   4.550   2.003   4.588  0.3768  0.3757 -0.5065
19787TIP3    H180852   4.498   1.949   4.529  1.4867 -0.4921 -0.7260
19787TIP3    H280853   4.610   2.050   4.530 -0.6968  2.0411 -0.3422
19788TIP3   OH280854   2.499   4.618  13.498 -0.1306  0.0763  0.4951
19788TIP3    H180855   2.477   4.670  13.420  1.0726 -2.1300 -1.4453
19788TIP3    H280856   2.430   4.552  13.503  1.9285 -2.4091 -1.3486
19789TIP3   OH280857   0.764   4.848   3.219 -0.1220 -0.3100  0.2946
19789TIP3    H180858   0.778   4.896   3.138 -3.6577  0.3839 -0.0660
19789TIP3    H280859   0.694   4.786   3.199 -0.8706 -0.3532  2.6993
19790TIP3   OH280860   1.095   0.419  13.372  0.2264  0.2803 -0.0111
19790TIP3    H180861   1.098   0.447  13.280 -1.9528 -1.2838 -0.6180
19790TIP3    H280862   1.033   0.478  13.413 -0.2855 -0.2398 -0.0248
19791TIP3   OH280863   4.858   2.711  13.970 -0.4977  0.1293 -0.3661
19791TIP3    H180864   4.822   2.654  14.038  0.6455 -1.5022 -1.0723
19791TIP3    H280865   4.953   2.699  13.976 -0.2642  1.4052 -1.0428
19792TIP3   OH280866   1.040   4.432  14.469 -0.5262 -0.0219  0.3453
19792TIP3    H180867   0.993   4.368  14.522 -1.6530  0.6975  0.2466
19792TIP3    H280868   0.971   4.485  14.428  0.3522  1.7690  1.0628
19793TIP3   OH280869   6.538   1.267  14.164 -0.3203  0.1572 -0.1886
19793TIP3    H180870   6.592   1.343  14.144 -0.3539 -0.4555 -2.9269
19793TIP3    H280871   6.600   1.198  14.187 -0.1244  0.2313 -0.5017
19794TIP3   OH280872   1.693   2.362  11.260  0.0816  0.1596  0.2984
19794TIP3    H180873   1.651   2.325  11.183  1.4281 -0.9043  0.0291
19794TIP3    H280874   1.660   2.310  11.333  0.4260 -0.2480  0.1670
19795TIP3   OH280875   0.346   4.414  13.314  0.4073  0.3374  0.6075
19795TIP3    H180876   0.410   4.457  13.370  0.4969  1.6035 -0.4114
19795TIP3    H280877   0.300   4.486  13.271 -1.8597 -0.5114  1.4478
19796TIP3   OH280878   5.779   2.360   2.345  0.2793  0.9081 -0.8526
19796TIP3    H180879   5.748   2.320   2.426 -0.5610  2.5525 -0.3373
19796TIP3    H280880   5.863   2.317   2.328 -1.1509 -2.1142 -1.1122
19797TIP3   OH280881   6.064   0.239   0.323 -0.1256  0.1482  0.1989
19797TIP3    H180882   6.099   0.194   0.400  0.0692  0.2141  0.1496
19797TIP3    H280883   6.128   0.221   0.254 -0.1134  0.3907  0.1458
19798TIP3   OH280884   1.152   0.676  14.682  0.1834  0.0721 -0.2707
19798TIP3    H180885   1.184   0.747  14.626  1.6931 -0.6746 -0.4175
19798TIP3    H280886   1.230   0.645  14.728 -0.3893 -1.6645 -0.4076
19799TIP3   OH280887   4.613   2.430   2.095  0.0838  0.0884 -0.2813
19799TIP3    H180888   4.629   2.512   2.048 -1.0551 -0.0686 -0.9797
19799TIP3    H280889   4.578   2.458   2.180  2.3922  0.3791  0.6606
19800TIP3   OH280890   0.825   3.526  12.565  0.1063  0.1824  0.0469
19800TIP3    H180891   0.844   3.551  12.474 -0.3324 -1.0256 -0.4076
19800TIP3    H280892   0.894   3.464  12.587  0.8715  1.3311  0.9566
19801TIP3   OH280893   2.253   1.956   3.771  0.5604 -0.0894 -0.7622
19801TIP3    H180894   2.348   1.959   3.759  0.6079 -0.4020 -0.4970
19801TIP3    H280895   2.222   2.043   3.745  0.8896 -0.0713 -1.0966
19802TIP3   OH280896   5.843   3.506  16.282  0.2150 -0.7328 -0.2304
19802TIP3    H180897   5.758   3.496  16.240 -0.2752 -0.1055  0.5609
19802TIP3    H280898   5.826   3.493  16.375  0.6214  1.0953  0.1592
19803TIP3   OH280899   6.480   2.612   2.414 -0.0484  0.4474  0.5121
19803TIP3    H180900   6.447   2.626   2.325 -0.3485 -2.2531  0.1138
19803TIP3    H280901   6.558   2.558   2.402  0.0122  0.1984  1.8924
19804TIP3   OH280902   2.158   6.348  16.419  0.2135  0.1276  0.4273
19804TIP3    H180903   2.125   6.259  16.408 -1.3760  0.7053  0.2943
19804TIP3    H280904   2.145   6.367  16.512  0.1301  0.3754  0.3651
19805TIP3   OH280905   4.043   4.478  13.638  0.5895  0.2400 -0.2317
19805TIP3    H180906   3.957   4.438  13.652 -0.2736  2.0517 -0.1110
19805TIP3    H280907   4.057   4.472  13.543 -0.1524  0.8549 -0.3859
19806TIP3   OH280908   3.993   6.417  15.133  0.3246  0.3790  0.5970
19806TIP3    H180909   3.985   6.322  15.134 -0.9739  0.4259 -1.1994
19806TIP3    H280910   4.079   6.434  15.171  1.1152 -1.5747 -0.1853
19807TIP3   OH280911   6.435   3.788  17.056  0.1721  0.6642 -0.2613
19807TIP3    H180912   6.529   3.780  17.073  0.2377 -2.7124 -1.4243
19807TIP3    H280913   6.429   3.834  16.973  0.7341  1.6828  0.2489
19808TIP3   OH280914   0.173   6.600   0.230 -0.2331  0.0314  0.0437
19808TIP3    H180915   0.234   6.660   0.273  0.2001 -0.7341  0.5426
19808TIP3    H280916   0.156   6.639   0.144  1.0508  0.2186 -0.1478
19809TIP3   OH280917   6.667   0.938   1.575 -0.0917 -0.1558  1.1569
19809TIP3    H180918   6.763   0.941   1.573  0.0085 -1.9043 -1.2253
19809TIP3    H280919   6.639   1.012   1.522  0.1489 -1.5563 -1.0796
19810TIP3   OH280920   5.788   1.601   5.565  0.1747  0.0640 -0.4832
19810TIP3    H180921   5.765   1.588   5.472 -0.0144 -0.4634 -0.3706
19810TIP3    H280922   5.742   1.681   5.590 -0.0730  0.0098 -0.7511
19811TIP3   OH280923   6.200   5.577   3.921  0.0874  0.5976  0.2552
19811TIP3    H180924   6.215   5.637   3.994  1.9231 -0.0462  0.4413
19811TIP3    H280925   6.207   5.632   3.843  0.9089  0.7995  0.4602
19812TIP3   OH280926   2.743   6.186   1.895  0.2719 -0.6158 -0.0313
19812TIP3    H180927   2.817   6.153   1.845 -0.4474  0.3239 -1.8091
19812TIP3    H280928   2.670   6.128   1.871 -0.8579  1.6681 -2.7211
19813TIP3   OH280929   6.544   4.561  14.083 -0.1862 -0.6094  0.8801
19813TIP3    H180930   6.627   4.519  14.060 -0.3637 -1.1354  1.1669
19813TIP3    H280931   6.492   4.490  14.122 -0.2473  0.0297  2.0076
19814TIP3   OH280932   0.094   5.726   2.825  0.7190  0.2670 -0.0741
19814TIP3    H180933   0.136   5.670   2.891  1.4200  0.0906 -0.6549
19814TIP3    H280934   0.044   5.790   2.876  0.4669 -0.4584  0.6087
19815TIP3   OH280935   1.168   6.772   2.458 -0.2825 -0.1672 -0.0271
19815TIP3    H180936   1.090   6.790   2.510  0.7178  0.0960  1.4302
19815TIP3    H280937   1.157   6.681   2.429 -0.9572 -0.2447  0.4481
19816TIP3   OH280938   5.272   1.013  14.200  0.5535 -0.3271  0.1931
19816TIP3    H180939   5.336   0.956  14.159  0.5960 -0.9278  1.0661
19816TIP3    H280940   5.190   0.995  14.153  0.3583 -1.7853  1.0113
19817TIP3   OH280941   4.482   6.747   0.110 -0.5588 -0.2867  0.1705
19817TIP3    H180942   4.407   6.750   0.170 -1.3935 -1.5393 -0.7608
19817TIP3    H280943   4.559   6.749   0.168 -1.3305 -1.0913  1.2687
19818TIP3   OH280944   6.118   0.156  12.369  0.5570 -0.0921 -0.1111
19818TIP3    H180945   6.035   0.198  12.350 -0.0827 -0.8532  0.8898
19818TIP3    H280946   6.184   0.211  12.327 -0.4656  0.3931 -1.1092
19819TIP3   OH280947   4.768   1.187   2.701 -0.3023  0.1923  0.2167
19819TIP3    H180948   4.813   1.225   2.777 -0.2307 -1.7295  1.1983
19819TIP3    H280949   4.689   1.148   2.737 -0.4941 -0.3800 -0.7808
19820TIP3   OH280950   2.158   4.127   1.106  0.0071 -0.1863 -0.6873
19820TIP3    H180951   2.165   4.033   1.125  0.4537 -0.7749 -3.3144
19820TIP3    H280952   2.103   4.130   1.028 -0.7737  1.8492 -0.1067
19821TIP3   OH280953   6.142   3.072  15.441 -0.3757  0.5263 -0.4098
19821TIP3    H180954   6.197   3.008  15.394  0.9062  1.5512 -0.3709
19821TIP3    H280955   6.073   3.019  15.481 -1.0823 -0.4705 -2.8102
19822TIP3   OH280956   6.031   6.582  12.083  0.0654 -0.1640  0.0532
19822TIP3    H180957   6.121   6.610  12.099 -0.5250  1.7954  0.1544
19822TIP3    H280958   5.984   6.606  12.162 -1.0261  1.0812 -0.9331
19823TIP3   OH280959   6.360   1.199   6.311 -0.5122 -0.5714  0.0940
19823TIP3    H180960   6.395   1.109   6.311  0.7772 -0.0906  0.3950
19823TIP3    H280961   6.399   1.239   6.388 -0.4600  0.4878 -0.4758
19824TIP3   OH280962   5.572   1.591  12.250  0.6907 -0.4133  0.4453
19824TIP3    H180963   5.657   1.551  12.236  0.6628 -0.2439 -0.2197
19824TIP3    H280964   5.544   1.621  12.164  0.3596  0.3346  0.8008
19825TIP3   OH280965   0.903   3.431  13.237 -0.8264  0.4141  0.5452
19825TIP3    H180966   0.914   3.522  13.268  0.8145  0.1314  0.8927
19825TIP3    H280967   0.935   3.433  13.147 -1.1136  0.2571  0.4421
19826TIP3   OH280968   5.730   6.498  10.734 -0.5335 -0.1996  0.1441
19826TIP3    H180969   5.811   6.462  10.698 -0.4115  0.3672 -0.1607
19826TIP3    H280970   5.727   6.587  10.701 -1.3871 -0.2788 -0.0067
19827TIP3   OH280971   5.939   6.002  13.287 -0.4897 -0.0800  0.0192
19827TIP3    H180972   6.006   5.933  13.286  0.1677  0.4069 -3.9247
19827TIP3    H280973   5.988   6.082  13.308 -0.3598 -0.1504 -0.0095
19828TIP3   OH280974   2.098   5.148   3.738  0.6998 -0.1421 -0.0803
19828TIP3    H180975   2.172   5.123   3.792  0.7020 -0.2960 -0.1540
19828TIP3    H280976   2.111   5.241   3.721  2.1426 -0.6094 -2.0136
19829TIP3   OH280977   5.554   6.496   1.175 -0.0562  0.2679 -0.0252
19829TIP3    H180978   5.638   6.466   1.213 -0.5491 -0.6368  0.3944
19829TIP3    H280979   5.496   6.504   1.250  0.0907  2.5349 -0.1030
19830TIP3   OH280980   3.851   1.239   2.415  0.4503  0.3268  0.1191
19830TIP3    H180981   3.884   1.152   2.436 -3.1123 -0.8569  1.6190
19830TIP3    H280982   3.795   1.226   2.338  0.8034  1.5947 -0.3932
19831TIP3   OH280983   5.450   3.320  15.117 -0.3729  0.6510 -0.1103
19831TIP3    H180984   5.432   3.398  15.064 -1.3641  1.9208  1.9428
19831TIP3    H280985   5.496   3.353  15.194  0.2121 -0.9721  0.2850
19832TIP3   OH280986   2.154   6.009   5.422  0.2594 -0.1445 -0.3483
19832TIP3    H180987   2.131   5.978   5.509 -0.3927 -0.8440 -0.7516
19832TIP3    H280988   2.123   5.940   5.363  0.5674  0.3769 -1.1443
19833TIP3   OH280989   0.667   0.598   4.535 -0.0090 -0.2829 -0.1148
19833TIP3    H180990   0.693   0.652   4.460 -1.2402 -0.8165 -0.9543
19833TIP3    H280991   0.664   0.659   4.608  2.4072  0.0291 -0.1803
19834TIP3   OH280992   4.366   5.409   6.286  0.4254 -0.4253  0.1977
19834TIP3    H180993   4.321   5.489   6.260 -1.1185 -0.3773  2.6735
19834TIP3    H280994   4.302   5.340   6.272  1.0501 -0.9559 -0.0765
19835TIP3   OH280995   2.490   0.610  13.701 -0.3692  0.0325  0.6378
19835TIP3    H180996   2.401   0.578  13.718 -0.3443  0.0830  0.8606
19835TIP3    H280997   2.545   0.533  13.710 -0.4915 -0.2114 -0.4460
19836TIP3   OH280998   5.956   3.035  16.901  0.5324 -0.1024 -0.2808
19836TIP3    H180999   5.877   2.983  16.886 -0.2439  1.1980 -0.7912
19836TIP3    H281000   6.017   3.006  16.833 -0.0949  0.0404 -0.9144
19837TIP3   OH281001   6.599   1.744  15.102  0.0237  0.2716 -0.4001
19837TIP3    H181002   6.509   1.760  15.130  0.7745  0.6262  2.0429
19837TIP3    H281003   6.616   1.813  15.037 -1.5538 -0.0270 -1.1622
19838TIP3   OH281004   5.969   3.738  16.193  0.7558  0.1201 -0.2325
19838TIP3    H181005   5.952   3.646  16.214  0.4113  0.1395 -0.4125
19838TIP3    H281006   5.913   3.756  16.118  0.7516  0.5036 -0.1408
19839TIP3   OH281007   6.521   1.158   3.123 -0.7066  0.0123 -0.4139
19839TIP3    H181008   6.550   1.112   3.202 -0.4825  0.7988 -0.0197
19839TIP3    H281009   6.484   1.090   3.067  0.2183 -0.7384 -0.1375
19840TIP3   OH281010   5.800   6.557  14.765 -0.0148  0.0013  0.0499
19840TIP3    H181011   5.886   6.553  14.808  0.6792  0.5734 -1.2454
19840TIP3    H281012   5.807   6.496  14.691 -1.1673 -0.9051  0.6367
19841TIP3   OH281013   2.180   4.449  14.537  0.0395 -0.4713 -0.6723
19841TIP3    H181014   2.212   4.514  14.599 -0.4491  0.5325 -1.4504
19841TIP3    H281015   2.166   4.370  14.590 -0.0030  0.2470  0.4097
19842TIP3   OH281016   0.834   0.059   1.799 -0.1616  0.6544 -0.2650
19842TIP3    H181017   0.748   0.069   1.760  0.2042  0.3496 -1.1665
19842TIP3    H281018   0.816   0.031   1.889 -1.0069 -0.7781 -0.8380
19843TIP3   OH281019   2.889   5.970   5.645 -0.1467 -0.0043  0.2283
19843TIP3    H181020   2.897   5.875   5.652  1.6909  0.1084  0.1413
19843TIP3    H281021   2.895   6.002   5.735 -0.2036  0.0513  0.2123
19844TIP3   OH281022   3.245   1.953   3.654  0.2165 -0.8120  0.9405
19844TIP3    H181023   3.206   1.870   3.680 -1.5700  0.1383  1.5253
19844TIP3    H281024   3.172   2.003   3.616  1.3523  0.2990  0.1161
19845TIP3   OH281025   0.748   3.982   4.371  0.0569 -0.1332 -0.0734
19845TIP3    H181026   0.786   4.044   4.433 -0.8080 -0.2680  0.6106
19845TIP3    H281027   0.823   3.952   4.319  0.3296  2.5267 -1.4060
19846TIP3   OH281028   4.155   2.838  14.369  0.1440  0.5018 -0.2038
19846TIP3    H181029   4.207   2.764  14.400 -0.5319 -0.2456 -0.8167
19846TIP3    H281030   4.118   2.809  14.286 -2.1142  0.5745  0.6871
19847TIP3   OH281031   5.354   0.905   0.058  0.2002  0.2557  0.3760
19847TIP3    H181032   5.280   0.928   0.114  0.3691  0.6873  0.4247
19847TIP3    H281033   5.347   0.965  -0.017 -0.3780 -0.7204 -0.3772
19848TIP3   OH281034   4.165   2.519   1.415  0.2225 -0.2052 -0.2878
19848TIP3    H181035   4.090   2.466   1.391  0.8014 -1.6058  0.8754
19848TIP3    H281036   4.130   2.585   1.475 -0.1597 -0.5012 -0.1844
19849TIP3   OH281037   5.073   3.907   5.366 -0.6947 -0.0197  0.0283
19849TIP3    H181038   5.116   3.985   5.330  0.2125  0.7866  2.6187
19849TIP3    H281039   4.994   3.941   5.408 -0.0527 -0.3986  1.5765
19850TIP3   OH281040   0.319   4.754   1.649  1.1506  0.2376 -0.2212
19850TIP3    H181041   0.329   4.846   1.672  0.1670  0.1004  0.8354
19850TIP3    H281042   0.339   4.706   1.729  0.6248 -0.4090 -0.4640
19851TIP3   OH281043   4.864   1.901   3.752  0.1013 -0.0250 -0.2854
19851TIP3    H181044   4.883   1.827   3.810  3.9694  0.2510 -0.9242
19851TIP3    H281045   4.823   1.860   3.676 -0.2083 -1.1535  0.4610
19852TIP3   OH281046   5.227   4.355   5.397 -0.2080  0.2235  0.2065
19852TIP3    H181047   5.182   4.318   5.474  0.7185  0.1093  0.7076
19852TIP3    H281048   5.260   4.439   5.427 -0.1751  0.3489 -0.1866
19853TIP3   OH281049   1.784   0.179   4.237 -0.3322 -0.3988  0.2179
19853TIP3    H181050   1.820   0.268   4.238 -0.7585 -0.2183  0.0832
19853TIP3    H281051   1.714   0.181   4.302 -0.5611 -0.5354 -0.0194
19854TIP3   OH281052   3.060   6.494   5.059 -0.4602 -0.4532 -0.4279
19854TIP3    H181053   2.975   6.537   5.057 -0.0902  0.3416  0.3344
19854TIP3    H281054   3.059   6.434   4.984 -0.2271  2.3502 -2.8303
19855TIP3   OH281055   4.248   2.206  13.158 -0.2617  0.2531  0.0555
19855TIP3    H181056   4.189   2.258  13.213 -1.3986  0.4347 -1.2621
19855TIP3    H281057   4.202   2.200  13.074 -0.3881 -3.2376  0.2311
19856TIP3   OH281058   4.698   1.897  14.738  0.3510 -0.0602 -0.8911
19856TIP3    H181059   4.776   1.949  14.719  0.4437  0.0538 -0.2194
19856TIP3    H281060   4.631   1.931  14.679  0.1797  1.3732  0.0876
19857TIP3   OH281061   5.499   6.435   4.115  0.2018 -0.1057 -0.5750
19857TIP3    H181062   5.487   6.527   4.089  0.6787  0.3913  0.8583
19857TIP3    H281063   5.413   6.409   4.149 -0.4404 -0.7760 -2.5781
19858TIP3   OH281064   1.088   2.435  12.570  0.1592  0.5314  0.2254
19858TIP3    H181065   1.030   2.500  12.609  1.6271  1.4282  0.9940
19858TIP3    H281066   1.119   2.382  12.644  0.3743  0.1078 -0.1576
19859TIP3   OH281067   6.700   2.482   2.350 -0.2247  0.1454 -0.0411
19859TIP3    H181068   6.726   2.427   2.276  1.7484 -0.9927  1.3625
19859TIP3    H281069   6.777   2.537   2.366 -0.4644  0.1155  1.3349
19860TIP3   OH281070   3.095   1.786  17.035 -0.3161  0.2011  0.1670
19860TIP3    H181071   3.098   1.790  17.131 -1.7727 -0.7195  0.3010
19860TIP3    H281072   3.040   1.860  17.010 -0.5938 -0.0203  0.1150
19861TIP3   OH281073   5.366   0.753   2.223  0.3423  0.2109 -0.6015
19861TIP3    H181074   5.375   0.828   2.283  0.6025  0.0884 -0.4851
19861TIP3    H281075   5.273   0.752   2.200  0.5655  1.4120 -1.6826
19862TIP3   OH281076   4.942   6.179  15.794  0.1032  0.6642 -0.2100
19862TIP3    H181077   4.869   6.134  15.752  1.7814 -2.1795 -0.2785
19862TIP3    H281078   4.941   6.147  15.884 -0.2545  2.6547  0.5525
19863TIP3   OH281079   0.828   0.507   4.143  0.0776  0.2880 -0.3400
19863TIP3    H181080   0.892   0.451   4.187 -0.6278 -0.5633 -0.3776
19863TIP3    H281081   0.780   0.448   4.086 -1.0191  0.8339 -0.0007
19864TIP3   OH281082   6.660   5.836   4.918  0.1969  0.0741  1.0506
19864TIP3    H181083   6.673   5.852   5.011 -0.9003 -0.6951  1.3579
19864TIP3    H281084   6.672   5.742   4.908  1.0989  0.2595  0.2634
19865TIP3   OH281085   1.088   6.273   1.736 -0.0283  0.2664  0.0872
19865TIP3    H181086   1.059   6.340   1.798  0.8593 -0.3117  1.1695
19865TIP3    H281087   1.072   6.311   1.650  1.1362  2.1748  0.6488
19866TIP3   OH281088   3.501   1.426  14.415 -0.0292  0.5545 -0.7182
19866TIP3    H181089   3.535   1.350  14.368  0.7425  1.3696 -1.5157
19866TIP3    H281090   3.528   1.501  14.363 -0.1717  1.4238  0.4091
19867TIP3   OH281091   5.391   4.163  13.987 -0.0274 -0.2761 -0.0314
19867TIP3    H181092   5.366   4.209  14.067 -0.9863 -1.2018  0.2249
19867TIP3    H281093   5.472   4.117  14.010 -0.8330 -1.3570  0.7507
19868TIP3   OH281094   0.697   5.788   4.441  0.0679 -0.1776  0.2495
19868TIP3    H181095   0.757   5.727   4.399 -0.0334 -0.9570  1.2046
19868TIP3    H281096   0.750   5.867   4.456 -0.3574  0.8581 -2.9216
19869TIP3   OH281097   2.765   2.804  17.091  0.2399 -0.1317 -0.3017
19869TIP3    H181098   2.730   2.832  17.007  1.5253 -0.3761 -0.9315
19869TIP3    H281099   2.789   2.885  17.135 -0.1043 -0.0226 -0.3114
19870TIP3   OH281100   2.055   5.641   1.788 -0.1905 -0.0978  0.4506
19870TIP3    H181101   2.043   5.549   1.813  2.5920 -1.0630 -1.3343
19870TIP3    H281102   2.149   5.655   1.793 -0.2284  1.7705 -2.0490
19871TIP3   OH281103   3.442   3.737  13.531 -0.0475  0.1618 -0.1948
19871TIP3    H181104   3.527   3.695  13.548  0.4547  1.2537  0.0741
19871TIP3    H281105   3.379   3.666  13.537  0.5777 -0.2912  2.0663
19872TIP3   OH281106   5.322   6.454   3.220 -0.3168 -0.2863  0.4633
19872TIP3    H181107   5.281   6.375   3.254 -0.1323  0.1053  1.6460
19872TIP3    H281108   5.265   6.525   3.249 -1.0778 -0.0258 -1.5104
19873TIP3   OH281109   5.966   1.005  17.291  0.0305  0.9728  0.1760
19873TIP3    H181110   5.999   1.038  17.207  0.3284  1.6790  0.5625
19873TIP3    H281111   5.911   1.075  17.325  0.3589  0.9199  0.8326
19874TIP3   OH281112   2.621   3.605   0.076 -0.1223  0.2517 -0.2374
19874TIP3    H181113   2.633   3.516   0.110  0.1233  1.3419  2.7645
19874TIP3    H281114   2.533   3.604   0.039 -0.3312 -1.0708  0.2281
19875TIP3   OH281115   1.760   4.225  14.653  0.0083  0.3930 -0.1530
19875TIP3    H181116   1.815   4.211  14.576  1.4968 -3.8855  1.3884
19875TIP3    H281117   1.804   4.296  14.701  2.2662 -0.5695 -0.6763
19876TIP3   OH281118   3.771   5.183  16.577  0.0486  0.0581  0.2255
19876TIP3    H181119   3.699   5.123  16.596 -1.3449  0.6110 -2.7424
19876TIP3    H281120   3.738   5.269  16.604  1.1083 -0.0977  2.2331
19877TIP3   OH281121   3.880   4.691   2.354 -0.3475 -0.1927  0.4345
19877TIP3    H181122   3.839   4.605   2.356 -0.8501  0.0485  1.0002
19877TIP3    H281123   3.811   4.751   2.382  0.4930  0.1795  1.8216
19878TIP3   OH281124   0.028   4.861   2.616 -0.1283  0.1826 -0.0488
19878TIP3    H181125   0.056   4.874   2.525 -0.2295 -0.2698 -0.1472
19878TIP3    H281126  -0.065   4.837   2.608 -0.0370 -0.2359  0.1499
19879TIP3   OH281127   1.812   5.015   4.566  0.0032  0.2508  0.0099
19879TIP3    H181128   1.735   4.975   4.526 -0.9563  1.5317  0.5182
19879TIP3    H281129   1.814   5.104   4.530  2.0468 -0.1713 -1.0430
19880TIP3   OH281130   3.392   3.294  12.563 -0.5332  0.0094  0.3899
19880TIP3    H181131   3.354   3.210  12.537  0.1498 -0.3278  0.4684
19880TIP3    H281132   3.470   3.303  12.509 -0.7815  0.7686  0.1321
19881TIP3   OH281133   5.395   5.139  12.293  0.2654  0.0273 -0.2295
19881TIP3    H181134   5.306   5.147  12.327  0.2792 -1.9617  0.4156
19881TIP3    H281135   5.390   5.171  12.203 -1.5919 -1.9002 -0.8799
19882TIP3   OH281136   1.721   1.816   6.296 -0.3236 -0.3466 -0.0754
19882TIP3    H181137   1.798   1.810   6.239 -0.1478 -1.2585  0.2450
19882TIP3    H281138   1.707   1.910   6.308  0.9629 -0.1718  0.1661
19883TIP3   OH281139   3.860   2.964  13.290  0.1661  0.1585  0.0218
19883TIP3    H181140   3.914   3.039  13.264  1.1038  0.0945  1.6391
19883TIP3    H281141   3.908   2.924  13.363 -1.3424 -0.7904  0.5492
19884TIP3   OH281142   1.703   3.228   1.017  0.6690  0.1121 -0.0612
19884TIP3    H181143   1.652   3.301   0.981 -0.8828  0.0767  1.8650
19884TIP3    H281144   1.764   3.205   0.948 -0.0028  2.0724 -1.4066
19885TIP3   OH281145   5.019   2.162   1.458 -0.3665 -0.4718 -0.4516
19885TIP3    H181146   4.952   2.226   1.434  0.2242  0.4443  0.2867
19885TIP3    H281147   5.067   2.203   1.530  0.9857 -1.1218 -0.9574
19886TIP3   OH281148   4.280   4.771  13.089 -0.1896 -0.9937 -0.3204
19886TIP3    H181149   4.279   4.862  13.058 -0.5994 -0.6634  0.6202
19886TIP3    H281150   4.255   4.777  13.182  1.2768 -1.9161  0.1588
19887TIP3   OH281151   0.414   3.531   0.709 -0.1987 -0.3381 -0.1639
19887TIP3    H181152   0.448   3.615   0.737 -0.0791 -0.4015 -0.1199
19887TIP3    H281153   0.352   3.552   0.639  0.1489 -0.2476 -0.4458
19888TIP3   OH281154   4.777   3.046  15.117  0.1570 -0.5705 -0.5374
19888TIP3    H181155   4.713   3.061  15.186 -0.0260 -0.7269 -0.6732
19888TIP3    H281156   4.795   3.134  15.083  0.2272 -0.4958 -0.3118
19889TIP3   OH281157   6.554   1.978  14.084  0.3236  0.1507 -0.1863
19889TIP3    H181158   6.498   2.052  14.062  0.2459  0.4727  1.0604
19889TIP3    H281159   6.582   1.944  13.999 -1.4256  0.2143 -0.8319
19890TIP3   OH281160   5.509   0.594   4.413 -0.2051  0.0065 -0.0765
19890TIP3    H181161   5.468   0.679   4.394 -1.6370 -0.7744 -0.6406
19890TIP3    H281162   5.531   0.559   4.326 -1.1602 -0.9184  0.0435
19891TIP3   OH281163   1.525   1.309   3.889 -0.0641  0.0566  0.0112
19891TIP3    H181164   1.459   1.241   3.874  0.8887 -0.6791 -0.9401
19891TIP3    H281165   1.478   1.376   3.939 -1.1555 -1.0697  0.5697
19892TIP3   OH281166   2.653   3.400  16.629  0.2298  1.3202 -0.4481
19892TIP3    H181167   2.664   3.400  16.534  1.2132  0.4502 -0.3592
19892TIP3    H281168   2.730   3.446  16.662  1.6665 -1.2393  0.0327
19893TIP3   OH281169   3.070   2.963   4.596 -0.3463 -0.6899 -0.3556
19893TIP3    H181170   3.161   2.986   4.581 -0.9071  3.1570  1.1415
19893TIP3    H281171   3.063   2.953   4.691 -1.4169 -1.4351 -0.4915
19894TIP3   OH281172   4.044   6.451  14.242  0.2824  0.0684  0.0695
19894TIP3    H181173   4.007   6.528  14.201  0.5874  0.4354  0.4737
19894TIP3    H281174   4.114   6.423  14.183 -2.0106 -1.9599 -1.8802
19895TIP3   OH281175   5.967   6.495  11.200  0.2764 -0.4990 -0.4038
19895TIP3    H181176   6.061   6.483  11.210  0.2296 -1.6208 -1.0919
19895TIP3    H281177   5.936   6.413  11.163 -1.4097 -1.2083  2.2996
19896TIP3   OH281178   5.505   6.639   1.665 -0.3168  0.6493 -0.3787
19896TIP3    H181179   5.507   6.663   1.758  1.1024  1.7430 -0.6654
19896TIP3    H281180   5.596   6.648   1.636 -0.9164  1.3667 -2.1407
19897TIP3   OH281181   6.149   0.251  11.348  0.1757 -0.1808 -0.0330
19897TIP3    H181182   6.159   0.200  11.428  0.2048  0.1427  0.1738
19897TIP3    H281183   6.161   0.188  11.277 -0.0645 -0.5139  0.2165
19898TIP3   OH281184   5.225   2.028   5.673  0.2430  0.1474  0.4454
19898TIP3    H181185   5.236   1.942   5.713 -0.1182 -0.6094 -1.0186
19898TIP3    H281186   5.132   2.034   5.654  0.4048  0.4783 -0.2698
19899TIP3   OH281187   3.043   2.078   1.327 -0.7490 -0.0386  0.1487
19899TIP3    H181188   3.041   2.149   1.262 -0.2545  0.7059  0.9269
19899TIP3    H281189   3.062   2.122   1.410 -0.9350 -1.0304  0.7340
19900TIP3   OH281190   3.996   4.750   4.876  0.5259 -0.5305 -0.4149
19900TIP3    H181191   4.034   4.767   4.962  0.2874 -3.1433  0.2955
19900TIP3    H281192   3.965   4.835   4.846  0.3615  0.4107  2.1979
19901TIP3   OH281193   3.625   3.602  16.865  0.2833 -0.3806  0.0112
19901TIP3    H181194   3.640   3.619  16.958 -0.4031  0.1680  0.0341
19901TIP3    H281195   3.681   3.528  16.844  0.0708 -0.8252  0.9869
19902TIP3   OH281196   3.624   2.310  16.443  0.0416  0.5022  0.5105
19902TIP3    H181197   3.611   2.215  16.440 -0.1022  0.4318  2.0915
19902TIP3    H281198   3.711   2.320  16.482  0.7891  1.0364 -1.2062
19903TIP3   OH281199   1.749   2.449   1.559  0.9131  0.5637  0.2851
19903TIP3    H181200   1.828   2.396   1.548  1.0629  1.0303 -1.0112
19903TIP3    H281201   1.696   2.430   1.482  0.1618  0.9455  0.6951
19904TIP3   OH281202   1.834   3.117  11.113  0.1831 -0.1011  0.6371
19904TIP3    H181203   1.744   3.115  11.079 -0.3241  1.6814  1.7114
19904TIP3    H281204   1.889   3.100  11.037 -1.0154  1.0033 -0.5306
19905TIP3   OH281205   5.121   2.079  13.624  0.2376 -0.0522 -0.7315
19905TIP3    H181206   5.194   2.035  13.669 -1.1563 -0.0538  1.7485
19905TIP3    H281207   5.111   2.031  13.542  1.4055 -1.6980  0.0175
19906TIP3   OH281208   2.552   5.589   0.834 -0.7133 -0.4750 -0.0891
19906TIP3    H181209   2.590   5.656   0.890  0.1297 -0.8046 -0.2429
19906TIP3    H281210   2.588   5.507   0.867  1.1540 -0.5614 -2.0839
19907TIP3   OH281211   2.524   0.583   5.858  0.2543 -0.8102 -0.1259
19907TIP3    H181212   2.435   0.561   5.886 -0.9388  0.0936 -2.8198
19907TIP3    H281213   2.567   0.614   5.937 -2.0719 -0.5933  1.1495
19908TIP3   OH281214   4.813   3.444  16.588  0.1790  0.3995 -0.2644
19908TIP3    H181215   4.813   3.539  16.573 -0.3992  0.6274  1.0634
19908TIP3    H281216   4.763   3.408  16.515 -1.3641  1.3331  0.2813
19909TIP3   OH281217   3.279   3.669   5.294 -0.0892  0.8306 -0.0667
19909TIP3    H181218   3.342   3.603   5.267  0.3736  1.4562 -0.5422
19909TIP3    H281219   3.212   3.620   5.341  0.0163 -0.0401 -0.7903
19910TIP3   OH281220   2.525   1.809  12.898  0.2595 -0.5515 -0.1200
19910TIP3    H181221   2.498   1.725  12.935  0.6175 -1.5581 -2.0287
19910TIP3    H281222   2.470   1.820  12.820  0.9138  0.4864 -0.4621
19911TIP3   OH281223   4.354   0.854   0.075  0.5909  0.4819 -0.0601
19911TIP3    H181224   4.396   0.860   0.161  0.2460  0.3081  0.1215
19911TIP3    H281225   4.370   0.939   0.035  2.8063 -0.2087 -0.7793
19912TIP3   OH281226   2.496   3.302   1.326 -0.2470 -0.3103 -0.3112
19912TIP3    H181227   2.559   3.336   1.262  1.5270 -1.9843  0.4329
19912TIP3    H281228   2.417   3.354   1.311  1.6829  2.9437 -0.3590
19913TIP3   OH281229   2.816   6.062   2.612 -0.2365 -0.6240  0.3577
19913TIP3    H181230   2.739   6.020   2.652 -1.1926  0.3075 -0.4345
19913TIP3    H281231   2.881   6.064   2.682 -1.1022 -1.0031  1.2039
19914TIP3   OH281232   3.479   0.396   2.044 -0.1941 -0.4757 -0.0814
19914TIP3    H181233   3.511   0.331   1.981 -1.2642  0.7803 -1.9882
19914TIP3    H281234   3.392   0.365   2.068 -0.7971  0.3529 -1.1673
19915TIP3   OH281235   4.617   5.730   2.483  0.5435 -0.3784 -0.2894
19915TIP3    H181236   4.655   5.771   2.406 -0.7550 -0.6818 -1.1257
19915TIP3    H281237   4.666   5.649   2.495 -0.2329 -1.0915 -1.7404
19916TIP3   OH281238   3.117   5.493   2.860  0.2621 -0.3655  0.7493
19916TIP3    H181239   3.144   5.447   2.939 -1.4680 -2.1465  0.3969
19916TIP3    H281240   3.029   5.459   2.842  0.3040  0.5595 -1.5059
19917TIP3   OH281241   6.097   2.353   2.552 -0.2969  0.1970  0.1624
19917TIP3    H181242   6.162   2.367   2.483  0.8505 -0.6824  1.0425
19917TIP3    H281243   6.054   2.271   2.528 -0.4151  0.2743  0.1066
19918TIP3   OH281244   4.281   4.607  11.689  0.3941 -0.3200 -0.3758
19918TIP3    H181245   4.322   4.605  11.776  0.0002  1.4457 -0.1234
19918TIP3    H281246   4.309   4.525  11.648  1.9029 -0.4331  0.8011
19919TIP3   OH281247   5.526   1.871  14.149 -0.3160  0.0369  0.1234
19919TIP3    H181248   5.614   1.834  14.137 -0.5923 -0.9066  0.9069
19919TIP3    H281249   5.506   1.912  14.065  0.0974 -1.4390 -0.7353
19920TIP3   OH281250   2.821   4.026   6.027 -0.3662  0.2039 -0.1723
19920TIP3    H181251   2.863   4.004   6.110 -1.4348 -0.1202  0.2972
19920TIP3    H281252   2.851   3.959   5.966 -1.3240 -0.8973  0.5286
19921TIP3   OH281253   2.803   6.639  12.658 -0.2196 -0.2031  0.4978
19921TIP3    H181254   2.788   6.618  12.751  1.2405 -0.6010  0.6725
19921TIP3    H281255   2.889   6.602  12.639 -0.3667  0.1380 -0.9529
19922TIP3   OH281256   2.616   1.987   1.686  0.3083  0.1874  0.2318
19922TIP3    H181257   2.594   1.958   1.597 -1.7884 -0.3603  0.8742
19922TIP3    H281258   2.607   2.083   1.682 -1.7561  0.0564  0.2643
19923TIP3   OH281259   5.114   4.262   4.924  0.4137 -0.2254  0.3961
19923TIP3    H181260   5.209   4.257   4.938  0.1440 -2.1826  1.9131
19923TIP3    H281261   5.081   4.306   5.003 -0.1315 -1.6637  0.9969
19924TIP3   OH281262   4.867   2.630  16.499  0.6800  0.0105  0.2324
19924TIP3    H181263   4.827   2.659  16.581  1.2835 -0.0399  0.5505
19924TIP3    H281264   4.880   2.711  16.449  1.9503  0.2577  0.9337
19925TIP3   OH281265   1.261   1.688   2.654  0.6439  0.4697  0.1315
19925TIP3    H181266   1.229   1.778   2.650 -0.6710  0.1821  2.3771
19925TIP3    H281267   1.352   1.696   2.684  1.1237  1.0793 -1.3812
19926TIP3   OH281268   4.467   5.095   3.985 -0.3671  0.2112  0.7727
19926TIP3    H181269   4.437   5.039   3.914  0.0312 -0.4446  1.1084
19926TIP3    H281270   4.478   5.181   3.945 -0.7372 -0.0059  0.1879
19927TIP3   OH281271   0.024   3.661  15.128  0.1897 -0.2210 -0.2322
19927TIP3    H181272   0.104   3.624  15.090  1.2222  0.2792  1.3757
19927TIP3    H281273  -0.010   3.718  15.060  2.1075  0.8256 -0.3751
19928TIP3   OH281274   6.377   5.133  12.251  0.5255 -0.2557  0.2691
19928TIP3    H181275   6.346   5.051  12.291 -1.2698  0.8419  1.2704
19928TIP3    H281276   6.355   5.124  12.158 -1.6657 -0.1017  0.7130
19929TIP3   OH281277   1.562   0.279  11.280 -0.5058 -0.2007  0.8770
19929TIP3    H181278   1.622   0.285  11.355  2.2078 -1.5370 -1.0354
19929TIP3    H281279   1.571   0.189  11.249 -0.7795  0.5635 -1.6305
19930TIP3   OH281280   4.893   0.728  16.972 -0.6033  0.0337 -0.2364
19930TIP3    H181281   4.885   0.655  17.033 -1.2846  0.1607 -0.1727
19930TIP3    H281282   4.957   0.787  17.013  0.2587 -0.7004 -0.4748
19931TIP3   OH281283   2.631   5.181  16.677  0.3420  0.3170 -0.0258
19931TIP3    H181284   2.585   5.263  16.664  0.5472  0.3696 -0.4258
19931TIP3    H281285   2.638   5.142  16.590  1.9563  0.8066 -0.1541
19932TIP3   OH281286   2.201   0.692   4.185 -0.5122  0.1209  0.0715
19932TIP3    H181287   2.148   0.651   4.117 -0.1059 -0.4552  0.0835
19932TIP3    H281288   2.281   0.719   4.140  1.6876 -4.0438  0.9368
19933TIP3   OH281289   6.139   5.108   6.360  0.0043  0.0794  0.2291
19933TIP3    H181290   6.131   5.021   6.319 -0.2202  0.1952  0.0241
19933TIP3    H281291   6.107   5.168   6.293 -0.9617  0.2200  0.8012
19934TIP3   OH281292   5.072   2.408   4.590  0.2900  0.7799  0.5123
19934TIP3    H181293   5.081   2.327   4.541  0.7072  0.3650  1.2481
19934TIP3    H281294   5.051   2.380   4.679  0.5886  1.4707  0.8104
19935TIP3   OH281295   0.141   6.272   0.080  0.1765  0.0647 -0.3094
19935TIP3    H181296   0.183   6.187   0.066 -1.3019 -0.4398 -1.9588
19935TIP3    H281297   0.047   6.253   0.079 -0.1663  1.3837  1.7736
19936TIP3   OH281298   0.131   5.347  13.736  0.2161 -0.1190 -0.2712
19936TIP3    H181299   0.036   5.339  13.727  0.0110  2.2017 -0.6970
19936TIP3    H281300   0.144   5.425  13.791  1.8750 -0.1207 -0.6038
19937TIP3   OH281301   2.375   2.897   4.929  0.0752 -0.2284 -0.3770
19937TIP3    H181302   2.469   2.880   4.918 -0.2441 -2.4246 -0.0405
19937TIP3    H281303   2.334   2.856   4.853 -0.6473  0.6300 -0.4643
19938TIP3   OH281304   5.114   4.239  12.546 -1.1471 -0.0548  0.0975
19938TIP3    H181305   5.131   4.150  12.515  1.2360  0.4072 -0.0922
19938TIP3    H281306   5.034   4.265  12.500 -0.1715 -0.9957 -2.3177
19939TIP3   OH281307   1.490   6.708   3.484 -0.3683  0.1647  0.3598
19939TIP3    H181308   1.406   6.754   3.485 -1.5204 -1.7977 -0.1125
19939TIP3    H281309   1.496   6.673   3.395  0.7447 -0.0962  0.5299
19940TIP3   OH281310   3.237   4.711   2.528  0.2607 -0.3879  0.4567
19940TIP3    H181311   3.159   4.658   2.511  0.2386  0.2817 -1.9151
19940TIP3    H281312   3.206   4.782   2.584 -0.7978 -0.2644 -0.2481
19941TIP3   OH281313   1.554   2.893  11.788  0.2602  0.4397  0.1786
19941TIP3    H181314   1.502   2.962  11.829 -1.7179 -1.9752  2.0202
19941TIP3    H281315   1.570   2.830  11.858  0.2864 -1.9234 -1.8230
19942TIP3   OH281316   4.349   5.216  13.848 -0.6431  0.0356  0.0666
19942TIP3    H181317   4.351   5.212  13.944  0.3348  1.0454  0.1083
19942TIP3    H281318   4.273   5.271  13.828  0.5318  1.8743  0.3884
19943TIP3   OH281319   1.246   1.015   5.991  0.4038 -0.0440 -0.2406
19943TIP3    H181320   1.201   1.004   6.075  1.5952 -0.6427  0.3535
19943TIP3    H281321   1.210   0.947   5.935 -1.6363  1.4245 -0.8082
19944TIP3   OH281322   6.481   6.445   6.495 -0.1818 -0.1474  0.3123
19944TIP3    H181323   6.435   6.508   6.550 -1.0440 -0.0408 -0.5106
19944TIP3    H281324   6.516   6.497   6.422 -0.9693 -0.5962 -0.4175
19945TIP3   OH281325   2.615   4.562  16.423 -0.0432 -0.5385 -0.4164
19945TIP3    H181326   2.580   4.608  16.347 -0.6120 -2.1904 -1.2160
19945TIP3    H281327   2.571   4.602  16.498 -1.1425 -0.3426 -1.1389
19946TIP3   OH281328   5.387   4.395   0.616 -0.5519  0.5942  0.2835
19946TIP3    H181329   5.292   4.391   0.606 -0.4486  0.5419 -0.7714
19946TIP3    H281330   5.404   4.349   0.698 -1.2231 -1.7982 -0.8353
19947TIP3   OH281331   4.636   2.708  12.851  0.2881 -0.1293  0.0048
19947TIP3    H181332   4.668   2.770  12.786  2.3299 -0.0105  1.0289
19947TIP3    H281333   4.630   2.625  12.804  0.7636  0.1605 -0.5803
19948TIP3   OH281334   4.326   0.266  13.619 -0.3902 -0.6050 -0.4299
19948TIP3    H181335   4.276   0.311  13.687 -0.2560  0.8320 -1.2438
19948TIP3    H281336   4.296   0.175  13.624 -0.9670 -0.3688  1.0022
19949TIP3   OH281337   6.799   5.980  17.187  0.2829 -0.2728  0.5422
19949TIP3    H181338   6.739   5.927  17.134  1.1108 -0.8752  0.1911
19949TIP3    H281339   6.880   5.984  17.136  0.3015  1.2009  0.6448
19950TIP3   OH281340   1.285   1.927  11.460 -0.1465 -0.4169  0.5255
19950TIP3    H181341   1.334   1.962  11.534 -0.5154  0.3949  0.4040
19950TIP3    H281342   1.336   1.852  11.430  0.9753  0.3465  0.4613
19951TIP3   OH281343   2.538   3.804   1.134  0.5663 -0.1784  0.3876
19951TIP3    H181344   2.481   3.760   1.070  1.5705 -2.0086  0.6668
19951TIP3    H281345   2.534   3.896   1.110 -1.7343 -0.3556 -0.1913
19952TIP3   OH281346   1.043   3.230  15.255  0.1092 -0.2473  0.3469
19952TIP3    H181347   0.952   3.213  15.282 -0.2331  0.7700 -0.1020
19952TIP3    H281348   1.090   3.150  15.277 -1.0130 -1.0096  0.0945
19953TIP3   OH281349   1.013   2.500   2.295 -0.4197 -0.5431 -0.6817
19953TIP3    H181350   0.961   2.544   2.227  1.6881  1.2971 -1.2075
19953TIP3    H281351   1.085   2.459   2.248  0.5621 -0.0365  0.3484
19954TIP3   OH281352   2.221   2.296  14.632 -0.2896 -0.1936  0.3773
19954TIP3    H181353   2.202   2.351  14.708 -0.9209  1.6860 -1.0704
19954TIP3    H281354   2.293   2.341  14.587 -0.8173 -0.5278 -0.8536
19955TIP3   OH281355   4.411   1.435  14.907  0.7356  0.2907  0.1346
19955TIP3    H181356   4.482   1.373  14.891  0.6840  0.1718  0.3649
19955TIP3    H281357   4.429   1.507  14.846  0.8106  0.0651 -0.1136
19956TIP3   OH281358   5.466   1.941   2.925  0.7139  0.0695  0.3203
19956TIP3    H181359   5.556   1.966   2.948  0.3597  1.3656  0.4216
19956TIP3    H281360   5.426   1.918   3.009  0.8619 -0.2202  0.3137
19957TIP3   OH281361   0.548   3.546  13.859  0.2354  0.2394 -0.1000
19957TIP3    H181362   0.522   3.576  13.946  0.1737 -0.3267  0.0834
19957TIP3    H281363   0.482   3.481  13.836 -1.0349  1.9529 -1.5303
19958TIP3   OH281364   4.075   4.339   3.908  0.2223 -0.1205  0.1663
19958TIP3    H181365   4.120   4.310   3.988  1.8522 -1.2899 -1.1264
19958TIP3    H281366   3.999   4.281   3.901  1.0855 -1.2651 -0.0779
19959TIP3   OH281367   0.779   4.863  12.187 -0.1830  0.0030  0.2348
19959TIP3    H181368   0.714   4.843  12.119 -1.7649 -2.3855  2.2696
19959TIP3    H281369   0.742   4.937  12.235 -0.4645 -0.1163  0.2058
19960TIP3   OH281370   4.028   3.730  13.172 -0.2125 -0.5082 -0.3262
19960TIP3    H181371   3.999   3.795  13.109 -2.3725 -1.2353 -0.1722
19960TIP3    H281372   4.046   3.780  13.252  2.6010  0.4262 -1.4023
19961TIP3   OH281373   6.651   1.999   6.030  0.6147 -0.0067 -0.2992
19961TIP3    H181374   6.572   2.047   6.055 -1.0129 -2.1865 -0.9771
19961TIP3    H281375   6.651   1.922   6.088  1.8339 -0.4204 -0.8179
19962TIP3   OH281376   3.282   1.000  14.019 -0.4474 -0.2175 -0.1526
19962TIP3    H181377   3.345   0.968  13.955 -0.5591  1.4893 -1.1772
19962TIP3    H281378   3.334   1.026  14.095 -0.2198 -1.3801  0.1004
19963TIP3   OH281379   4.913   4.352   1.445 -0.3493  0.4331 -0.1810
19963TIP3    H181380   4.829   4.315   1.470 -0.3880  0.9814  0.5321
19963TIP3    H281381   4.936   4.411   1.517  0.0304  1.2683 -0.9625
19964TIP3   OH281382   5.135   0.407   3.609  0.1827  0.1957  0.0676
19964TIP3    H181383   5.187   0.337   3.649  1.0982  0.4514 -0.6462
19964TIP3    H281384   5.195   0.449   3.548 -1.0002  0.2078 -1.1140
19965TIP3   OH281385   6.550   5.888   0.684  0.1684  0.2617  0.5699
19965TIP3    H181386   6.486   5.945   0.726 -0.9664 -1.1950  0.8996
19965TIP3    H281387   6.552   5.810   0.740  3.5466  0.9294  1.5993
19966TIP3   OH281388   4.019   0.039  12.972 -0.5887  0.8726  0.3911
19966TIP3    H181389   4.110   0.023  13.000 -0.1110 -0.7271 -1.7710
19966TIP3    H281390   4.026   0.051  12.877 -2.4178  3.1354  0.4663
19967TIP3   OH281391   4.584   1.912  12.637 -0.0550 -0.0401 -0.2594
19967TIP3    H181392   4.529   1.836  12.617 -0.1906  0.1948 -0.7965
19967TIP3    H281393   4.542   1.985  12.591  1.1219 -0.0005 -1.3380
19968TIP3   OH281394   4.118   6.743  10.634 -0.2754  0.5761 -0.1355
19968TIP3    H181395   4.196   6.773  10.680 -0.9753 -1.0556  2.2614
19968TIP3    H281396   4.134   6.650  10.618 -1.5854  0.3047  0.0898
19969TIP3   OH281397   1.147   5.242   3.300 -0.2523 -0.0664  0.1275
19969TIP3    H181398   1.081   5.226   3.367  0.1604 -0.4031  0.4586
19969TIP3    H281399   1.105   5.302   3.238 -0.7988 -0.1334  0.4324
19970TIP3   OH281400   4.348   4.579   6.210 -0.0680  0.4049 -0.4190
19970TIP3    H181401   4.302   4.509   6.163 -0.1530  0.6346 -0.6720
19970TIP3    H281402   4.436   4.580   6.173 -0.4058  1.1983 -1.2089
19971TIP3   OH281403   1.835   3.851  16.899  0.4317  0.4080  0.3348
19971TIP3    H181404   1.752   3.816  16.931  0.0810  0.5931 -0.3560
19971TIP3    H281405   1.833   3.943  16.923 -0.3780  0.8457 -1.2234
19972TIP3   OH281406   2.014   3.246  10.622  0.2044  0.2256  0.9236
19972TIP3    H181407   2.053   3.164  10.591  2.6313  2.0298 -1.2524
19972TIP3    H281408   1.920   3.229  10.620  0.5716 -2.2311 -0.3138
19973TIP3   OH281409   0.587   5.428   4.821  0.0723  0.1876  0.0531
19973TIP3    H181410   0.506   5.466   4.855 -0.1882 -0.6504  0.3997
19973TIP3    H281411   0.562   5.390   4.737  0.2892  0.6151 -0.2069
19974TIP3   OH281412   0.707   5.188   4.113 -0.0863  0.2215  0.0186
19974TIP3    H181413   0.615   5.214   4.125 -1.1029 -2.8641 -0.2815
19974TIP3    H281414   0.733   5.230   4.031 -1.0272  1.5972  0.3873
19975TIP3   OH281415   2.951   3.901  16.792 -0.0137  0.1307  0.0785
19975TIP3    H181416   3.026   3.870  16.842  0.9293  0.8788 -0.8306
19975TIP3    H281417   2.932   3.831  16.730 -0.1507 -0.1055  0.3821
19976TIP3   OH281418   0.656   1.431  15.772 -0.7762 -0.2166 -0.2953
19976TIP3    H181419   0.583   1.376  15.798 -1.2766  0.3889 -0.3916
19976TIP3    H281420   0.618   1.493  15.709  0.0656 -0.6547 -1.2794
19977TIP3   OH281421   1.017   6.108  11.813  0.0516  0.0144  0.3585
19977TIP3    H181422   1.046   6.038  11.871  1.0229 -1.1092 -1.3792
19977TIP3    H281423   1.092   6.124  11.756 -0.8119  1.1366 -0.5021
19978TIP3   OH281424   4.012   6.504   3.666 -0.0746  0.1317 -0.0611
19978TIP3    H181425   4.037   6.564   3.735  1.0246 -1.7005  1.2135
19978TIP3    H281426   4.093   6.485   3.619 -0.6698  0.7502 -1.4155
19979TIP3   OH281427   6.644   3.069  16.271  0.2068 -0.4208 -0.9710
19979TIP3    H181428   6.548   3.073  16.269  0.0202 -3.3243 -1.4395
19979TIP3    H281429   6.664   2.989  16.318  2.5561  1.6788  1.9870
19980TIP3   OH281430   5.819   5.911   2.501  0.4550  0.0285 -0.6959
19980TIP3    H181431   5.784   5.824   2.482 -0.0673  0.1002 -0.1231
19980TIP3    H281432   5.913   5.898   2.506  0.4142 -0.4267 -1.0097
19981TIP3   OH281433   2.745   4.909   3.909  0.0863  0.1904  0.1128
19981TIP3    H181434   2.693   4.845   3.957  0.5861 -2.4566 -2.5767
19981TIP3    H281435   2.825   4.918   3.960 -0.5372 -0.2897  1.2127
19982TIP3   OH281436   0.234   4.033  12.706  0.4780  0.1270  0.3598
19982TIP3    H181437   0.293   3.958  12.718  0.6730  0.0150 -1.1470
19982TIP3    H281438   0.147   3.994  12.697 -0.1928  0.3543  4.0745
19983TIP3   OH281439   3.249   2.762  14.513  0.4363 -0.0117 -0.3654
19983TIP3    H181440   3.223   2.770  14.605 -1.7266 -1.7924 -0.7460
19983TIP3    H281441   3.317   2.694  14.514 -0.3649 -0.8183 -0.1912
19984TIP3   OH281442   4.764   5.232   2.521 -0.0603 -0.5576 -0.4909
19984TIP3    H181443   4.809   5.147   2.517  1.6193  0.1657  1.3123
19984TIP3    H281444   4.675   5.210   2.547  0.0208 -1.8404 -1.1950
19985TIP3   OH281445   6.242   3.081   0.297 -0.6287  0.1292 -0.6873
19985TIP3    H181446   6.205   3.018   0.235 -0.7623 -2.7575  2.0602
19985TIP3    H281447   6.165   3.119   0.340 -0.5196  1.6899 -1.7899
19986TIP3   OH281448   1.102   1.465   2.593  0.0824 -0.2244 -0.2032
19986TIP3    H181449   1.011   1.491   2.606  0.2051 -0.8586  2.5498
19986TIP3    H281450   1.152   1.546   2.598 -0.1254 -0.1572  1.4062
19987TIP3   OH281451   5.142   3.426  13.458  0.4691 -0.1628 -0.0571
19987TIP3    H181452   5.091   3.504  13.439  1.9979  1.0442  0.5361
19987TIP3    H281453   5.215   3.457  13.512  0.2914 -2.2585  1.5224
19988TIP3   OH281454   3.763   3.698   1.335  0.1264  0.5810  0.1025
19988TIP3    H181455   3.724   3.620   1.374  2.6641 -1.4753 -1.1994
19988TIP3    H281456   3.697   3.727   1.271 -0.6856 -0.7803  0.2790
19989TIP3   OH281457   1.788   1.578   0.398  0.3499  0.0059  0.1707
19989TIP3    H181458   1.847   1.586   0.473  0.7291 -0.3832 -0.0874
19989TIP3    H281459   1.804   1.490   0.363  0.0367  0.1132 -0.2548
19990TIP3   OH281460   3.763   5.813  11.168  0.2692 -0.1519 -0.0808
19990TIP3    H181461   3.838   5.858  11.205 -0.5003  0.9170  0.2233
19990TIP3    H281462   3.799   5.762  11.095  1.2917  0.2473  0.1275
19991TIP3   OH281463   1.928   6.272  16.933 -0.3647 -0.3822  0.1835
19991TIP3    H181464   1.850   6.316  16.900 -1.6071 -0.5764  2.6686
19991TIP3    H281465   1.895   6.199  16.985  1.5618 -1.7747 -0.4340
19992TIP3   OH281466   4.925   4.998   6.349  0.0023 -0.1854  0.1656
19992TIP3    H181467   4.881   5.073   6.308 -0.4234 -0.9669 -0.8512
19992TIP3    H281468   4.855   4.933   6.360  0.5383 -0.7557  0.2312
19993TIP3   OH281469   4.086   6.816  14.738 -0.0894  0.2160  0.0435
19993TIP3    H181470   4.130   6.899  14.757 -1.4776  1.1972 -0.8354
19993TIP3    H281471   4.005   6.820  14.788 -0.5501 -0.2325 -0.6432
19994TIP3   OH281472   2.700   1.725   0.872 -0.4117  0.4518 -0.4747
19994TIP3    H181473   2.669   1.671   0.945 -0.2868  2.7073  1.3654
19994TIP3    H281474   2.787   1.690   0.852 -1.7301 -2.3618 -1.9512
19995TIP3   OH281475   6.270   4.468   2.494 -0.1109 -0.2477 -0.4000
19995TIP3    H181476   6.230   4.381   2.494  1.4670 -1.0098 -0.7348
19995TIP3    H281477   6.280   4.489   2.402  0.7596 -0.3231 -0.3262
19996TIP3   OH281478   0.464   1.905  15.419 -0.7006  0.6164  0.2397
19996TIP3    H181479   0.526   1.837  15.393 -2.2971 -0.6278 -0.4936
19996TIP3    H281480   0.519   1.977  15.450  1.2270  0.5397 -2.6232
19997TIP3   OH281481   4.325   6.385  11.969  0.2686  0.2568 -0.1331
19997TIP3    H181482   4.363   6.364  12.054  0.4440  0.8634 -0.0550
19997TIP3    H281483   4.374   6.331  11.907 -1.0928 -1.5989  0.3204
19998TIP3   OH281484   5.721   0.160   5.484  0.4163  0.2908 -0.7381
19998TIP3    H181485   5.630   0.135   5.468 -0.0965  0.1278  1.8959
19998TIP3    H281486   5.768   0.077   5.485  0.4032  0.2790 -1.0855
19999TIP3   OH281487   5.595   0.464   4.178  0.2427  0.3036 -0.0637
19999TIP3    H181488   5.594   0.374   4.146 -0.0881 -0.0228  0.8429
19999TIP3    H281489   5.677   0.500   4.144  0.4430 -0.3820 -0.3195
20000TIP3   OH281490   3.200   6.506  17.098  0.3596  0.0218  0.8079
20000TIP3    H181491   3.113   6.542  17.082  0.5912  0.3077  0.1305
20000TIP3    H281492   3.191   6.413  17.078  0.4527  0.2352 -0.3213
20001TIP3   OH281493   2.362   1.304   3.204 -0.0720  0.0769 -0.3454
20001TIP3    H181494   2.354   1.292   3.298  0.3950 -1.8447 -0.5088
20001TIP3    H281495   2.273   1.324   3.175  0.0124  2.0333  0.6318
20002TIP3   OH281496   2.929   4.247   0.730  0.2087 -0.0137 -0.0993
20002TIP3    H181497   2.919   4.153   0.714  0.3272 -0.4052  1.8710
20002TIP3    H281498   2.843   4.276   0.761  0.0156  0.6677 -1.2249
20003TIP3   OH281499   3.516   2.962   6.223 -0.8269 -0.0849 -0.4909
20003TIP3    H181500   3.545   2.875   6.250 -0.9322 -0.0609 -0.2970
20003TIP3    H281501   3.595   3.005   6.191 -0.9632 -0.6256 -1.5970
20004TIP3   OH281502   2.801   2.772  14.185  0.1372 -0.3276  0.4694
20004TIP3    H181503   2.736   2.705  14.209  0.9814 -1.3365  0.0298
20004TIP3    H281504   2.799   2.774  14.089 -0.3273  0.7493  0.4877
20005TIP3   OH281505   3.470   2.800   2.205 -0.0233  0.6245  0.0031
20005TIP3    H181506   3.383   2.840   2.197 -0.2120  0.3500  0.6463
20005TIP3    H281507   3.521   2.862   2.257 -0.5410 -0.2839  1.6656
20006TIP3   OH281508   3.893   5.046  14.892 -0.3351  0.1715 -0.2515
20006TIP3    H181509   3.979   5.032  14.932 -0.5313 -0.6353 -0.1021
20006TIP3    H281510   3.895   4.995  14.812 -0.7118  0.0752 -0.2014
20007TIP3   OH281511   1.893   2.661  16.294 -0.1615  0.5681  0.0695
20007TIP3    H181512   1.955   2.724  16.330  0.5547 -0.4656  0.7122
20007TIP3    H281513   1.948   2.592  16.257 -0.8860 -0.9168  1.6091
20008TIP3   OH281514   1.163   3.741  15.242  0.5488 -0.2063  0.0577
20008TIP3    H181515   1.230   3.726  15.175 -0.2960 -0.6758 -0.6988
20008TIP3    H281516   1.082   3.755  15.193  0.0788  0.3367  0.9622
20009TIP3   OH281517   4.981   1.419  12.729  0.7095 -0.4151  0.7371
20009TIP3    H181518   4.940   1.424  12.643  0.5498  1.3745  0.8809
20009TIP3    H281519   4.919   1.368  12.782 -0.6669  1.0049  0.5685
20010TIP3   OH281520   1.887   5.489  15.341 -0.2932  0.1610  0.1800
20010TIP3    H181521   1.814   5.433  15.368 -0.0230  0.3194  1.2947
20010TIP3    H281522   1.901   5.468  15.249 -0.8554 -0.8642  0.3162
20011TIP3   OH281523   0.802   2.258  15.113 -0.7033 -0.8074 -0.5972
20011TIP3    H181524   0.873   2.261  15.049 -0.7108  1.2627 -0.5724
20011TIP3    H281525   0.826   2.323  15.179 -2.2180 -0.6580 -0.1621
20012TIP3   OH281526   3.473   5.257  15.181  0.2731 -0.0849  0.3715
20012TIP3    H181527   3.494   5.239  15.273 -1.2390  0.5006  0.8601
20012TIP3    H281528   3.497   5.349  15.169 -0.6692  0.1882  0.5396
20013TIP3   OH281529   4.270   4.415  14.709 -0.0844  0.1389 -0.3895
20013TIP3    H181530   4.295   4.353  14.641 -0.7861  0.5745 -1.0586
20013TIP3    H281531   4.185   4.448  14.681 -0.4445  0.2303  0.7693
20014TIP3   OH281532   6.302   1.697  17.089  0.6638  0.3755  0.1602
20014TIP3    H181533   6.225   1.668  17.137  0.8554 -0.8787 -0.2483
20014TIP3    H281534   6.376   1.660  17.138  0.8615 -0.8894 -1.0378
20015TIP3   OH281535   4.998   1.941   1.256  0.5475 -0.0502 -0.6871
20015TIP3    H181536   4.940   1.978   1.189  0.7669  1.3189 -0.1544
20015TIP3    H281537   5.005   2.010   1.322 -0.6159 -1.7668  1.3758
20016TIP3   OH281538   2.763   0.767  14.488  0.5221 -0.7973 -0.5963
20016TIP3    H181539   2.703   0.791  14.417 -0.1898 -0.8135 -0.0173
20016TIP3    H281540   2.784   0.850  14.531  1.4115 -0.7152 -1.1686
20017TIP3   OH281541   4.035   2.526   2.714 -0.4738 -0.1453  0.7757
20017TIP3    H181542   4.106   2.566   2.665 -0.9851  1.2922  1.1458
20017TIP3    H281543   4.040   2.433   2.693  2.5199 -0.3850  2.0664
20018TIP3   OH281544   4.551   6.720  17.163 -0.0628  0.3004 -0.0581
20018TIP3    H181545   4.548   6.736  17.257  0.9579 -0.9254  0.2067
20018TIP3    H281546   4.506   6.795  17.125  0.0874  1.1532  1.3644
20019TIP3   OH281547   1.805   1.467   1.014  0.2178  0.1200 -0.1417
20019TIP3    H181548   1.795   1.385   1.063 -0.8527  0.4474  0.2233
20019TIP3    H281549   1.882   1.509   1.053 -1.2668  0.9352  2.1852
20020TIP3   OH281550   0.472   4.619   0.420  0.3862 -0.1909  0.2143
20020TIP3    H181551   0.534   4.691   0.411 -0.8014  0.9473  0.7964
20020TIP3    H281552   0.388   4.657   0.393 -0.0012 -1.8203 -1.0314
20021TIP3   OH281553   2.399   5.690   2.949 -0.3626 -0.2174 -1.2639
20021TIP3    H181554   2.305   5.687   2.926 -0.5359 -0.0812 -0.5784
20021TIP3    H281555   2.404   5.648   3.035 -0.0000  1.0683 -0.6312
20022TIP3   OH281556   0.469   2.751  14.178 -0.6461 -0.7601 -0.2099
20022TIP3    H181557   0.488   2.690  14.107 -1.2625 -0.7285 -0.4065
20022TIP3    H281558   0.491   2.837  14.142 -0.5248 -0.7882 -0.2035
20023TIP3   OH281559   6.279   6.277   1.280  0.4295  0.6090 -0.3119
20023TIP3    H181560   6.303   6.368   1.265  2.5386 -0.0363 -1.1920
20023TIP3    H281561   6.274   6.268   1.375  1.1484  1.4264 -0.1914
20024TIP3   OH281562   4.089   3.667   0.917 -0.0180 -0.1678 -0.3193
20024TIP3    H181563   4.087   3.618   0.835 -0.9751 -1.6137  0.5245
20024TIP3    H281564   4.182   3.680   0.934  0.1891  0.6416 -1.8840
20025TIP3   OH281565   3.631   6.616  15.278  0.0300  0.4447 -0.1676
20025TIP3    H181566   3.571   6.585  15.346 -0.2063  0.6910 -0.2609
20025TIP3    H281567   3.713   6.634  15.325 -0.1421  0.6454  0.0616
20026TIP3   OH281568   3.786   4.888  12.762 -0.0857  0.0643  0.2400
20026TIP3    H181569   3.783   4.976  12.723 -0.8342 -0.4557 -0.9218
20026TIP3    H281570   3.783   4.829  12.687 -1.3899 -0.9830  1.0767
20027TIP3   OH281571   4.454   4.633  15.694 -0.1643 -0.2563  0.1683
20027TIP3    H181572   4.525   4.661  15.752 -2.0299  0.8168  2.0655
20027TIP3    H281573   4.398   4.580  15.750 -1.0225 -0.8412 -1.2116
20028TIP3   OH281574   1.673   0.355   5.855 -0.7781 -0.3142  0.0246
20028TIP3    H181575   1.700   0.275   5.900  1.9744 -0.3593 -1.5014
20028TIP3    H281576   1.693   0.340   5.763  0.5611  2.3570 -0.2271
20029TIP3   OH281577   6.097   2.747  13.574 -0.1052  0.2495  0.2271
20029TIP3    H181578   6.033   2.688  13.535  1.0799 -1.8896  1.3260
20029TIP3    H281579   6.045   2.817  13.614 -1.5335  0.1500 -1.3662
20030TIP3   OH281580   0.118   0.664  14.014  0.0924 -0.3208  0.1764
20030TIP3    H181581   0.042   0.632  14.063  0.5467 -2.1793 -0.2575
20030TIP3    H281582   0.099   0.757  13.999 -1.9538 -0.6641  0.3153
20031TIP3   OH281583   4.906   2.294  12.730  0.1415  0.5734 -0.0573
20031TIP3    H181584   4.987   2.329  12.768  0.4992  1.3001 -1.4555
20031TIP3    H281585   4.895   2.209  12.774  0.8937  1.0756  1.1629
20032TIP3   OH281586   3.971   6.185  12.154 -0.1963  0.5870 -0.5234
20032TIP3    H181587   4.042   6.154  12.099  0.6217 -1.8573  1.7094
20032TIP3    H281588   3.947   6.110  12.208 -3.5940  1.6977 -0.2076
20033TIP3   OH281589   4.360   3.938  10.831  0.2312  0.5543  0.5999
20033TIP3    H181590   4.396   3.948  10.742 -0.4499 -2.3084 -0.0997
20033TIP3    H281591   4.287   4.000  10.835  0.3256  0.7867 -0.8157
20034TIP3   OH281592   4.709   2.871  15.875  0.3322  0.2469  0.4557
20034TIP3    H181593   4.786   2.903  15.923  1.8168  0.5097 -1.9792
20034TIP3    H281594   4.635   2.893  15.932  1.8444  2.1964  1.7846
20035TIP3   OH281595   6.330   0.943  12.010  0.7640 -0.0892 -0.1578
20035TIP3    H181596   6.265   0.873  12.019 -0.7694  1.2976  0.1354
20035TIP3    H281597   6.312   1.002  12.084  1.5569  0.9626 -0.7772
20036TIP3   OH281598   3.468   5.263   2.043  0.0016 -0.2184 -0.4274
20036TIP3    H181599   3.406   5.294   1.977  1.5379  1.8085 -0.9908
20036TIP3    H281600   3.487   5.340   2.097  0.3580 -1.3364  1.1291
20037TIP3   OH281601   5.951   1.544   0.682  0.5295 -0.2737 -0.2528
20037TIP3    H181602   5.888   1.592   0.737  1.0275  0.3089 -0.1869
20037TIP3    H281603   5.952   1.591   0.599  0.5051 -0.5820 -0.4298
20038TIP3   OH281604   2.476   1.794  16.065 -0.3939  0.0747  0.0424
20038TIP3    H181605   2.482   1.711  16.018  1.1248 -0.1743  0.6338
20038TIP3    H281606   2.384   1.819  16.057 -0.4986 -0.7320 -1.7200
20039TIP3   OH281607   6.407   0.154  16.226  0.0995  0.6979  0.2109
20039TIP3    H181608   6.387   0.248  16.222  1.1933  1.0416  1.9580
20039TIP3    H281609   6.490   0.145  16.179  1.2430  1.0568  2.0382
20040TIP3   OH281610   4.952   0.876   4.805 -0.5174  0.2286  0.2546
20040TIP3    H181611   4.975   0.810   4.871 -0.5732  0.5862  0.6387
20040TIP3    H281612   4.901   0.941   4.854 -0.8389  0.3295 -0.2163
20041TIP3   OH281613   0.530   6.344   5.990  1.1205  0.0315 -0.6084
20041TIP3    H181614   0.524   6.354   6.085  1.7173  0.6214 -0.6213
20041TIP3    H281615   0.464   6.279   5.968 -0.1388  1.0517  0.0216
20042TIP3   OH281616   6.472   0.516   0.606  0.0232 -0.4414  0.1139
20042TIP3    H181617   6.483   0.608   0.632  2.3294 -0.7353  0.3609
20042TIP3    H281618   6.558   0.490   0.573 -0.8852 -2.2197 -1.0107
20043TIP3   OH281619   3.623   0.351   5.362  0.5788 -0.0666 -0.0024
20043TIP3    H181620   3.669   0.279   5.405  1.2061  0.7220  0.6852
20043TIP3    H281621   3.612   0.417   5.430 -0.9099  0.0862 -0.3546
20044TIP3   OH281622   5.099   3.749   5.125  0.2718 -0.1730 -0.1783
20044TIP3    H181623   5.146   3.803   5.061  1.9010  0.2556  1.2774
20044TIP3    H281624   5.065   3.812   5.189  1.0456 -0.7388  0.8256
20045TIP3   OH281625   3.304   4.769   4.687  0.1625 -0.7939  0.0736
20045TIP3    H181626   3.297   4.830   4.613 -1.4586 -0.3770  0.5263
20045TIP3    H281627   3.343   4.690   4.649  0.8263 -0.0408 -0.8651
20046TIP3   OH281628   4.180   6.691   5.378 -0.5854  0.0893  0.0966
20046TIP3    H181629   4.247   6.756   5.357 -0.7223 -0.0137 -0.6858
20046TIP3    H281630   4.209   6.611   5.334  0.6783 -1.0367  2.7437
20047TIP3   OH281631   4.748   5.747   3.128 -0.3312 -0.8871  0.0037
20047TIP3    H181632   4.817   5.775   3.067  0.6150  0.0329  1.4154
20047TIP3    H281633   4.670   5.794   3.099  0.6354  1.3828  0.8057
20048TIP3   OH281634   2.211   4.365   4.871  0.1611 -0.2023 -0.1565
20048TIP3    H181635   2.126   4.407   4.872 -0.9446 -2.3107  0.5250
20048TIP3    H281636   2.260   4.408   4.941 -1.0129 -0.1986  0.6832
20049TIP3   OH281637   0.986   0.346  15.308  0.0629 -0.2059  0.0492
20049TIP3    H181638   0.936   0.427  15.305  0.1083 -0.1936 -1.2396
20049TIP3    H281639   1.017   0.339  15.398 -1.5327  0.2241  0.6666
20050TIP3   OH281640   1.531   6.687  11.707  0.0471 -0.3795  0.0051
20050TIP3    H181641   1.594   6.676  11.778 -0.1610 -2.9585 -0.1146
20050TIP3    H281642   1.540   6.608  11.654 -1.9095  0.0887 -1.1505
20051TIP3   OH281643   2.438   3.902   2.936  0.1690  0.3544  0.2842
20051TIP3    H181644   2.513   3.957   2.959  0.6802 -0.2921  0.1880
20051TIP3    H281645   2.414   3.930   2.848  0.1597  0.7045  0.3956
20052TIP3   OH281646   5.503   3.120  13.983 -0.3279 -0.0702  0.0698
20052TIP3    H181647   5.454   3.202  13.981 -0.2864 -0.0340  0.4333
20052TIP3    H281648   5.593   3.146  13.962 -1.0097 -0.5988 -4.3892
20053TIP3   OH281649   0.924   1.724   5.338  0.0461  0.1157  0.8947
20053TIP3    H181650   0.939   1.637   5.302  1.1363 -0.0177  1.6380
20053TIP3    H281651   1.003   1.744   5.388  0.2071  1.8893  0.0358
20054TIP3   OH281652   6.001   3.387  14.173 -0.0490  0.4584 -0.4783
20054TIP3    H181653   6.011   3.482  14.174  1.6268  0.3210  0.6400
20054TIP3    H281654   5.919   3.372  14.221  0.2327  1.3132  0.3141
20055TIP3   OH281655   3.969   3.725   4.764  0.5466 -0.4417 -0.2691
20055TIP3    H181656   3.952   3.755   4.675  1.0071  0.5094 -0.0532
20055TIP3    H281657   3.963   3.630   4.759 -0.9792 -0.3444 -0.9871
20056TIP3   OH281658   4.142   3.458   0.189 -0.0179  0.3747 -0.4363
20056TIP3    H181659   4.210   3.488   0.249  0.3735 -2.6893  0.8248
20056TIP3    H281660   4.064   3.449   0.244 -0.0380 -1.0382 -0.6516
20057TIP3   OH281661   3.482   3.130   1.628 -0.2840  0.0992 -0.0622
20057TIP3    H181662   3.491   3.223   1.606  0.4404  0.0782  0.1207
20057TIP3    H281663   3.511   3.124   1.719 -0.1161 -0.3394 -0.1437
20058TIP3   OH281664   2.153   6.048   4.486 -0.1505  0.9772 -1.3567
20058TIP3    H181665   2.213   6.037   4.561 -0.6694 -0.6367 -1.1359
20058TIP3    H281666   2.112   6.133   4.501 -1.4734  0.0005  1.1476
20059TIP3   OH281667   1.831   4.598   4.144 -0.4074 -0.2424 -0.5669
20059TIP3    H181668   1.903   4.563   4.091  0.0691 -0.0936 -0.0321
20059TIP3    H281669   1.852   4.572   4.234 -2.2111 -2.1939 -0.6350
20060TIP3   OH281670   6.111   4.894  13.540  0.9550 -0.5135 -0.4124
20060TIP3    H181671   6.074   4.975  13.573 -1.4597 -1.8829  0.4648
20060TIP3    H281672   6.104   4.901  13.445 -0.5726 -0.2528 -0.3031
20061TIP3   OH281673   0.411   0.055  17.125  0.4728  0.0416  0.4927
20061TIP3    H181674   0.329   0.091  17.092 -0.1876 -1.4063  0.4728
20061TIP3    H281675   0.475   0.072  17.055  0.0717  0.6896  0.2754
20062TIP3   OH281676   0.890   5.827   6.335 -0.0658  0.5420  0.0771
20062TIP3    H181677   0.820   5.763   6.349  0.1224  0.1458 -0.6951
20062TIP3    H281678   0.865   5.872   6.254  0.0864  1.0622  0.3156
20063TIP3   OH281679   4.812   4.671  11.608  0.1211 -0.6182  0.0555
20063TIP3    H181680   4.846   4.615  11.538  2.4419 -0.7659  1.2061
20063TIP3    H281681   4.882   4.733  11.625 -1.3152  0.8914  0.7180
20064TIP3   OH281682   0.904   6.631  12.923 -0.0151  0.4139  0.3809
20064TIP3    H181683   0.838   6.584  12.871  0.8953  0.1427 -0.5708
20064TIP3    H281684   0.875   6.722  12.921 -0.6343  0.2222  0.4065
20065TIP3   OH281685   3.619   0.083   4.981 -0.3105 -0.1983 -0.1228
20065TIP3    H181686   3.655   0.162   5.019  0.0553 -0.7178  0.6294
20065TIP3    H281687   3.551   0.114   4.921  0.0028  0.6870 -0.0294
20066TIP3   OH281688   3.467   2.592  14.509  0.4295  0.0627  0.3786
20066TIP3    H181689   3.525   2.532  14.557  0.4904  0.1031  0.3553
20066TIP3    H281690   3.524   2.633  14.443  0.3609  0.0566  0.3154
20067TIP3   OH281691   4.118   3.786  13.921 -0.0160  0.4542  0.8931
20067TIP3    H181692   4.200   3.797  13.967 -0.5623 -1.4031  2.4333
20067TIP3    H281693   4.136   3.720  13.854  0.4901  2.3348 -0.9126
20068TIP3   OH281694   2.003   4.925  17.187 -0.2145 -0.1283  0.2663
20068TIP3    H181695   2.043   4.840  17.204  2.5540  1.2451  1.3782
20068TIP3    H281696   1.909   4.909  17.187  0.1995 -3.0564  1.0361
20069TIP3   OH281697   4.845   5.842  12.883  0.5439 -0.5891 -0.4272
20069TIP3    H181698   4.876   5.932  12.879 -0.4256 -0.2666 -1.3058
20069TIP3    H281699   4.857   5.808  12.795 -1.5144 -0.4375 -0.8212
20070TIP3   OH281700   3.224   0.465  14.480  0.1929 -0.0691 -0.2189
20070TIP3    H181701   3.182   0.514  14.550 -1.7604  0.5218 -1.7042
20070TIP3    H281702   3.153   0.415  14.440  1.1498 -0.1184 -1.9699
20071TIP3   OH281703   3.544   4.575   3.612  0.0075 -0.2819  1.1576
20071TIP3    H181704   3.607   4.646   3.601 -0.6275 -0.0362 -1.8238
20071TIP3    H281705   3.490   4.601   3.687  0.7439  1.6171  1.0792
20072TIP3   OH281706   6.594   6.472  12.464 -0.2062  0.1282 -0.1307
20072TIP3    H181707   6.645   6.537  12.416  0.8288 -0.6980 -0.1781
20072TIP3    H281708   6.537   6.524  12.520  0.8428  1.0819  0.0972
20073TIP3   OH281709   5.888   2.625   0.532 -0.0768  0.1376 -0.1446
20073TIP3    H181710   5.913   2.714   0.504  0.2722  0.3112  0.6757
20073TIP3    H281711   5.802   2.636   0.572  1.1324  0.6708  2.5512
20074TIP3   OH281712   0.865   5.762  12.225 -0.7065  0.6072 -0.0286
20074TIP3    H181713   0.950   5.761  12.269  0.1702  1.8922 -1.5693
20074TIP3    H281714   0.855   5.852  12.194 -1.9007  0.0995 -1.2410
20075TIP3   OH281715   0.485   5.676  15.293 -0.4618 -0.4231  0.4260
20075TIP3    H181716   0.527   5.757  15.264  0.9407 -0.5451  1.9396
20075TIP3    H281717   0.495   5.616  15.220 -0.1945  0.3297 -0.1676
20076TIP3   OH281718   3.983   6.357  16.692  0.6564  0.2202  0.4750
20076TIP3    H181719   3.913   6.377  16.755 -0.2827 -1.0961 -0.1154
20076TIP3    H281720   4.000   6.264  16.704  1.2674  0.2092 -0.4274
20077TIP3   OH281721   4.003   6.403  17.297 -0.0065  0.2629 -0.8364
20077TIP3    H181722   4.031   6.327  17.348 -0.2552  0.9406  0.3436
20077TIP3    H281723   3.969   6.365  17.215 -0.6348 -0.9456 -0.0552
20078TIP3   OH281724   0.578   3.171   5.787  0.3175 -0.3235  0.2199
20078TIP3    H181725   0.505   3.232   5.799  0.4133 -0.5993  2.7779
20078TIP3    H281726   0.556   3.097   5.845  0.6239 -2.3704 -2.1150
20079TIP3   OH281727   3.466   5.469   1.070 -0.1665 -0.6021  0.1250
20079TIP3    H181728   3.428   5.514   1.145  1.0434 -0.7738  0.8752
20079TIP3    H281729   3.483   5.380   1.101  1.5632 -0.3170  0.1097
20080TIP3   OH281730   4.869   5.011   5.130  0.2599 -0.1866  0.0479
20080TIP3    H181731   4.836   4.934   5.083 -1.7681  0.9915 -0.5510
20080TIP3    H281732   4.815   5.016   5.208 -0.6872  1.4662 -0.6701
20081TIP3   OH281733   5.001   4.799   1.969 -0.2005 -0.0277 -0.4857
20081TIP3    H181734   4.992   4.842   1.884 -0.5248 -3.0925 -2.1271
20081TIP3    H281735   4.911   4.789   2.000 -0.1884 -0.3069 -0.5387
20082TIP3   OH281736   0.723   1.149   3.883 -0.1389 -0.4557 -0.5556
20082TIP3    H181737   0.800   1.118   3.835  0.0952 -0.1313 -0.3930
20082TIP3    H281738   0.649   1.117   3.832 -0.0006 -3.3022  0.8020
20083TIP3   OH281739   4.198   5.825   3.409  0.5506 -0.2751  0.5192
20083TIP3    H181740   4.171   5.734   3.415 -1.1424 -0.2245 -3.4489
20083TIP3    H281741   4.116   5.874   3.408  1.2238  0.8976 -1.1331
20084TIP3   OH281742   5.568   5.771  11.381  0.1527 -0.0430  0.1755
20084TIP3    H181743   5.492   5.765  11.439 -0.0365  1.0569  0.0580
20084TIP3    H281744   5.534   5.806  11.299  0.5147 -1.0921 -0.4444
20085TIP3   OH281745   6.721   3.742  17.077  0.2850 -0.0400 -0.3378
20085TIP3    H181746   6.683   3.655  17.088 -0.4053  0.3654  0.5897
20085TIP3    H281747   6.783   3.752  17.148  1.5925 -0.3841 -1.3875
20086TIP3   OH281748   0.546   2.023   4.560 -0.4220  0.2625  0.0000
20086TIP3    H181749   0.531   2.099   4.505 -0.7399 -0.0983 -0.4212
20086TIP3    H281750   0.640   2.026   4.580 -0.1169 -0.0496 -1.2638
20087TIP3   OH281751   1.644   3.940   1.167 -0.5195  0.1543 -0.5269
20087TIP3    H181752   1.563   3.930   1.216  0.9677 -1.0153  1.8806
20087TIP3    H281753   1.622   3.914   1.078 -2.7292 -0.2286  0.0790
20088TIP3   OH281754   5.434   6.400   3.781  0.5643 -0.5911 -0.4165
20088TIP3    H181755   5.398   6.487   3.761  1.0121 -0.6638 -1.6967
20088TIP3    H281756   5.487   6.414   3.859 -1.9394 -0.4314  1.3512
20089TIP3   OH281757   0.856   0.234   2.157 -0.2954  0.2262 -0.0416
20089TIP3    H181758   0.924   0.278   2.207 -0.1049 -0.5772  0.4251
20089TIP3    H281759   0.778   0.238   2.213  0.4351 -2.5290  1.3502
20090TIP3   OH281760   0.183   1.919  15.437  0.3876 -0.9303 -0.1992
20090TIP3    H181761   0.163   1.848  15.499 -1.1387 -1.1217 -0.8530
20090TIP3    H281762   0.277   1.931  15.444  0.6713 -2.9176  0.0649
20091TIP3   OH281763   2.357   5.265   0.082 -0.3179  0.1295 -0.1060
20091TIP3    H181764   2.303   5.341   0.063 -0.0367  0.0565 -1.2606
20091TIP3    H281765   2.340   5.205   0.009  3.1234  1.0712 -1.8453
20092TIP3   OH281766   5.669   4.699  14.993 -0.2996  0.8213  0.6239
20092TIP3    H181767   5.689   4.648  14.914 -1.1485  1.6157 -0.1403
20092TIP3    H281768   5.582   4.737  14.975 -1.0181  0.1124  2.4251
20093TIP3   OH281769   0.383   5.035   1.697 -0.0743 -0.1358 -0.4878
20093TIP3    H181770   0.459   5.071   1.652  1.1131 -1.0896  0.6815
20093TIP3    H281771   0.345   5.110   1.744 -1.3015  0.8683 -2.8922
20094TIP3   OH281772   1.923   4.986  16.121  0.3396  0.4183  0.0256
20094TIP3    H181773   1.853   4.932  16.157  0.4670  0.8329  0.8986
20094TIP3    H281774   1.914   4.975  16.026  0.3091 -1.0690  0.1664
20095TIP3   OH281775   3.224   6.231  16.276  0.0233  0.0294  0.1595
20095TIP3    H181776   3.248   6.272  16.194 -3.4120 -1.5397 -1.8554
20095TIP3    H281777   3.273   6.279  16.343  2.4192  1.8394 -2.6741
20096TIP3   OH281778   2.083   2.492   1.464 -0.3249  0.0469  0.1488
20096TIP3    H181779   2.116   2.467   1.378 -0.1833  0.1241  0.1809
20096TIP3    H281780   2.029   2.417   1.491  2.0435 -1.3592  1.3075
20097TIP3   OH281781   2.414   6.606   1.593 -0.0804  0.1013  0.5364
20097TIP3    H181782   2.504   6.631   1.614  0.3244 -1.6497  1.0757
20097TIP3    H281783   2.420   6.566   1.506 -0.3601  0.0931  0.5206
20098TIP3   OH281784   4.795   4.977   1.592 -0.0720 -0.1701  0.1682
20098TIP3    H181785   4.771   5.065   1.622  0.3580  0.1709 -0.4533
20098TIP3    H281786   4.862   4.948   1.653  1.4596  0.8859 -0.9249
20099TIP3   OH281787   5.987   0.985  16.851 -0.0077  0.8461  0.3117
20099TIP3    H181788   6.053   0.933  16.807  0.0518  0.1747  1.1578
20099TIP3    H281789   5.911   0.983  16.793  0.6989  1.6298 -0.6701
20100TIP3   OH281790   0.650   4.535  16.038 -0.2717 -0.0565 -0.6407
20100TIP3    H181791   0.613   4.557  16.124  2.3014 -1.4310  0.9695
20100TIP3    H281792   0.634   4.441  16.029  1.2861 -0.3571 -0.6150
20101TIP3   OH281793   2.705   5.067  16.409 -0.5983 -0.1427  0.3129
20101TIP3    H181794   2.736   4.981  16.380 -0.5419 -0.6346  1.7907
20101TIP3    H281795   2.736   5.127  16.340  2.4444 -0.8077  0.9283
20102TIP3   OH281796   6.550   3.502  12.912 -0.3213  0.2570  0.1906
20102TIP3    H181797   6.489   3.496  12.986 -0.8721 -1.1123 -0.3381
20102TIP3    H281798   6.616   3.566  12.941 -0.7490  0.0707  1.6988
20103TIP3   OH281799   5.451   2.978   4.780  0.1956  0.1657 -0.0032
20103TIP3    H181800   5.356   2.975   4.770  0.0651  0.9850  0.8674
20103TIP3    H281801   5.483   2.902   4.731 -0.9145 -0.2151 -0.1586
20104TIP3   OH281802   2.022   2.250   5.894 -0.0967 -0.0174 -0.3539
20104TIP3    H181803   1.952   2.256   5.830  0.9825 -0.5691 -1.6490
20104TIP3    H281804   1.994   2.183   5.956 -1.1654  0.5448 -0.2119
20105TIP3   OH281805   2.478   0.900  17.075 -0.0010  0.3423  0.0190
20105TIP3    H181806   2.547   0.840  17.047 -0.4808  0.5518 -1.7461
20105TIP3    H281807   2.492   0.978  17.022 -1.4837  0.4380 -0.2756
20106TIP3   OH281808   0.814   1.343  13.170  0.0139 -0.1948 -0.4561
20106TIP3    H181809   0.906   1.370  13.173 -0.0659  0.0068  0.4154
20106TIP3    H281810   0.767   1.414  13.214 -0.6833  0.1791 -1.7666
20107TIP3   OH281811   6.675   1.871   1.115 -0.0357 -0.6169  0.2040
20107TIP3    H181812   6.707   1.781   1.124  0.1951 -0.4883  0.7302
20107TIP3    H281813   6.580   1.861   1.107 -0.1255 -0.8624  1.3263
20108TIP3   OH281814   2.246   6.724  10.667  0.6108  0.3751  0.1685
20108TIP3    H181815   2.238   6.655  10.733  2.0619  0.6385  0.6500
20108TIP3    H281816   2.158   6.732  10.630  0.2531 -1.2257  0.6050
20109TIP3   OH281817   3.534   3.776   6.082 -0.0004 -0.6040 -0.4498
20109TIP3    H181818   3.457   3.763   6.137  0.4096  0.9090  0.5414
20109TIP3    H281819   3.607   3.783   6.143  0.7980 -1.0174 -1.3197
20110TIP3   OH281820   5.019   4.865   0.352  0.4442 -0.1624  0.0736
20110TIP3    H181821   5.036   4.911   0.269  1.2760 -3.3413 -1.6941
20110TIP3    H281822   4.932   4.828   0.341 -0.3518  1.1244  1.6071
20111TIP3   OH281823   2.094   1.164  12.171  0.1610  0.0636  0.3577
20111TIP3    H181824   2.005   1.163  12.207  0.2557 -0.0167  0.5947
20111TIP3    H281825   2.151   1.166  12.248  0.3629  0.4101  0.2037
20112TIP3   OH281826   1.622   0.605  14.246  0.7997  0.2150  0.2706
20112TIP3    H181827   1.652   0.695  14.234  0.0088  0.8371  2.4298
20112TIP3    H281828   1.532   0.614  14.277  0.3082 -1.3947 -0.5499
20113TIP3   OH281829   2.489   6.726   3.956  0.1108 -0.6363  0.1897
20113TIP3    H181830   2.412   6.737   4.011 -1.4297 -0.8063 -1.8051
20113TIP3    H281831   2.516   6.815   3.933  0.1840 -0.5917  0.4448
20114TIP3   OH281832   1.703   3.086   6.168 -0.4535  0.3393 -0.0113
20114TIP3    H181833   1.771   3.153   6.170 -0.9446  0.9150 -1.5032
20114TIP3    H281834   1.745   3.010   6.126 -0.0281 -0.1636  1.2828
20115TIP3   OH281835   1.621   3.297  12.047  0.2671  0.8771 -0.3739
20115TIP3    H181836   1.549   3.262  12.099  0.8084 -0.5894 -0.5819
20115TIP3    H281837   1.605   3.266  11.958  0.5578  1.4996 -0.6557
20116TIP3   OH281838   0.553   3.430  16.929 -0.4821  0.1735 -0.1140
20116TIP3    H181839   0.514   3.379  16.857 -0.0077  0.0447 -0.2843
20116TIP3    H281840   0.581   3.363  16.992  0.8619  0.1489 -0.6923
20117TIP3   OH281841   3.626   0.250   2.725 -0.4953  0.0451 -0.1027
20117TIP3    H181842   3.594   0.161   2.709  0.0024 -0.1859  0.1629
20117TIP3    H281843   3.549   0.298   2.756 -0.2802 -0.9181  2.1487
20118TIP3   OH281844   5.253   5.668   4.221  0.4897  0.4506 -0.5623
20118TIP3    H181845   5.253   5.591   4.277  0.5529  1.4483  0.8665
20118TIP3    H281846   5.245   5.742   4.282 -1.5051  1.5066 -1.9832
20119TIP3   OH281847   3.523   6.075  15.986 -0.5084  0.1952  0.2679
20119TIP3    H181848   3.452   6.085  16.050 -0.6667  0.9817 -0.0258
20119TIP3    H281849   3.557   5.987  16.002 -0.2431  0.5378  1.7366
20120TIP3   OH281850   1.609   5.814   2.237  0.2002  0.3293  0.5234
20120TIP3    H181851   1.674   5.763   2.286 -0.3132  0.7055  1.6416
20120TIP3    H281852   1.545   5.749   2.208 -0.6423  0.3293  2.2470
20121TIP3   OH281853   2.748   4.247   1.862  0.4085 -0.2378  0.0777
20121TIP3    H181854   2.829   4.286   1.828  0.8119 -2.2186 -1.3671
20121TIP3    H281855   2.686   4.254   1.790 -0.9781  1.7739  1.3575
20122TIP3   OH281856   2.120   3.023  15.214 -0.3320  0.1235 -0.0633
20122TIP3    H181857   2.112   2.981  15.300 -0.7995  1.4070  0.5417
20122TIP3    H281858   2.079   2.961  15.154  0.0713 -0.8263  0.6164
20123TIP3   OH281859   0.066   6.358  13.098  0.0136 -0.2053  1.0370
20123TIP3    H181860   0.054   6.381  13.006  1.4706 -0.9754  0.6216
20123TIP3    H281861   0.017   6.424  13.147  0.1890  0.9051 -0.2552
20124TIP3   OH281862   2.858   2.928   6.320  0.0689  0.4025  0.8007
20124TIP3    H181863   2.779   2.942   6.373  0.5895  0.7869  1.4815
20124TIP3    H281864   2.824   2.899   6.235 -0.8281  0.9428  0.9579
20125TIP3   OH281865   1.322   4.282  11.962  0.0538 -0.2866 -0.6375
20125TIP3    H181866   1.356   4.368  11.984 -0.7647  0.1588 -1.0558
20125TIP3    H281867   1.349   4.268  11.871 -2.3562  0.8813 -1.6224
20126TIP3   OH281868   2.218   0.801   5.687  0.0461 -0.1181  0.2314
20126TIP3    H181869   2.293   0.766   5.735  0.3613 -0.0820 -0.2265
20126TIP3    H281870   2.177   0.725   5.647 -0.6198 -0.2300  1.1118
20127TIP3   OH281871   6.514   6.356   0.882 -0.1703  0.2494  0.9063
20127TIP3    H181872   6.532   6.432   0.937 -2.1924  0.9061  0.7325
20127TIP3    H281873   6.459   6.389   0.811  1.9559 -0.6657 -1.3425
20128TIP3   OH281874   3.081   5.686  11.868 -0.5690 -0.5152 -0.3383
20128TIP3    H181875   3.044   5.773  11.849 -1.0849 -0.4109  1.0637
20128TIP3    H281876   3.119   5.694  11.955  1.4018 -1.0833 -1.0994
20129TIP3   OH281877   5.187   0.744   6.146 -0.8215 -0.2368  0.9142
20129TIP3    H181878   5.210   0.820   6.198 -1.4954  0.2221  0.5648
20129TIP3    H281879   5.192   0.670   6.207  0.4819 -0.0244  1.0935
20130TIP3   OH281880   3.990   3.917   3.190  0.7738  0.4018  0.0761
20130TIP3    H181881   3.987   3.837   3.138  1.7419  0.1681  0.3452
20130TIP3    H281882   4.011   3.986   3.127 -1.1234  0.6547 -0.3412
20131TIP3   OH281883   2.383   5.112   2.007 -0.0042  0.2499 -0.0540
20131TIP3    H181884   2.414   5.026   2.033  0.8611  0.2348 -1.0486
20131TIP3    H281885   2.354   5.153   2.088 -1.1386 -1.2458  0.3205
20132TIP3   OH281886   0.020   2.423   4.396 -0.2317  0.0135  0.2450
20132TIP3    H181887   0.026   2.462   4.309 -0.1384 -1.8192 -0.6167
20132TIP3    H281888  -0.069   2.443   4.425 -1.0263 -1.1986 -1.2335
20133TIP3   OH281889   3.641   4.099   4.939 -0.4903  0.4996  0.0474
20133TIP3    H181890   3.713   4.162   4.935 -1.5740  1.8226  0.7401
20133TIP3    H281891   3.654   4.043   4.862  0.6611  1.3848 -0.4292
20134TIP3   OH281892   1.685   3.396   2.247 -0.0878  0.4187  0.1567
20134TIP3    H181893   1.613   3.339   2.219 -0.5712  1.6261 -1.1705
20134TIP3    H281894   1.690   3.383   2.342 -1.3064 -0.5440  0.1155
20135TIP3   OH281895   4.134   6.271   5.609  0.2007  0.3171  0.0218
20135TIP3    H181896   4.188   6.229   5.676 -1.7745 -1.0765  0.8334
20135TIP3    H281897   4.067   6.317   5.659  0.2369  1.4903 -0.9740
20136TIP3   OH281898   5.709   0.246  14.492 -0.0697  0.3635  0.5339
20136TIP3    H181899   5.750   0.327  14.461 -0.7688 -0.0527 -1.6434
20136TIP3    H281900   5.756   0.177  14.446  0.0125 -0.4439  1.7925
20137TIP3   OH281901   4.689   0.375   2.986  0.2720  0.2261 -0.0814
20137TIP3    H181902   4.681   0.393   3.079 -1.7845 -0.1063 -0.1559
20137TIP3    H281903   4.689   0.461   2.944  1.3096  0.3808  0.2039
20138TIP3   OH281904   2.117   2.633  16.946  0.2500  0.2755 -0.4039
20138TIP3    H181905   2.048   2.687  16.985 -0.7047 -2.2746  1.6584
20138TIP3    H281906   2.193   2.647  17.003 -0.8755 -2.7194  2.0828
20139TIP3   OH281907   1.099   1.787   0.622 -0.4990  0.5542 -0.2522
20139TIP3    H181908   1.184   1.762   0.585 -0.5551 -3.4417  1.7409
20139TIP3    H281909   1.120   1.826   0.707 -0.5876 -0.5998  0.3208
20140TIP3   OH281910   3.468   1.527   3.267 -0.1781 -0.4121 -0.0443
20140TIP3    H181911   3.460   1.431   3.262  0.2427 -0.4470 -0.1152
20140TIP3    H281912   3.382   1.557   3.297 -0.0136 -0.8994  0.9766
20141TIP3   OH281913   6.733   3.100   5.732  0.4880  0.9638 -0.1810
20141TIP3    H181914   6.729   3.052   5.815 -0.1983  2.0071  0.4024
20141TIP3    H281915   6.815   3.070   5.692 -0.5057 -1.6564 -0.4630
20142TIP3   OH281916   0.168   6.650   5.742  0.0668  0.4788 -0.2995
20142TIP3    H181917   0.244   6.596   5.762 -0.4394 -0.2864 -0.3913
20142TIP3    H281918   0.138   6.682   5.827 -0.7302 -0.9149 -0.0219
20143TIP3   OH281919   1.420   5.473  12.899 -0.6318  0.1248 -0.1892
20143TIP3    H181920   1.410   5.503  12.989 -0.5945 -0.0448 -0.1275
20143TIP3    H281921   1.350   5.516  12.851 -0.3863  0.5580 -0.1658
20144TIP3   OH281922   4.914   5.537   3.876  0.6652  0.2744  0.3570
20144TIP3    H181923   4.839   5.555   3.819 -0.9756  0.3812  2.4178
20144TIP3    H281924   4.948   5.624   3.900  0.0809  0.3190  1.0790
20145TIP3   OH281925   3.476   6.355   5.887 -0.6564  0.0682 -0.0861
20145TIP3    H181926   3.505   6.313   5.805  0.9505  0.5546  0.2061
20145TIP3    H281927   3.489   6.288   5.954  0.2867  0.4485  0.1210
20146TIP3   OH281928   5.434   0.963   4.607  1.0650 -0.5222  0.5157
20146TIP3    H181929   5.402   0.886   4.559  2.1022 -0.6162 -0.0569
20146TIP3    H281930   5.401   1.037   4.557  1.0301 -0.6085  0.4096
20147TIP3   OH281931   6.308   5.279   5.095 -0.1965  0.0379 -0.0756
20147TIP3    H181932   6.242   5.285   5.164  0.4806  1.9035  0.4557
20147TIP3    H281933   6.259   5.287   5.013 -0.7212  0.5990  0.2909
20148TIP3   OH281934   5.344   5.405   5.660 -0.0779  0.1015  0.2306
20148TIP3    H181935   5.431   5.408   5.621  0.0152  1.3127  0.4906
20148TIP3    H281936   5.355   5.442   5.747 -0.4528 -1.7827  1.1350
20149TIP3   OH281937   0.616   2.554  11.645 -0.5040 -0.1920  0.0616
20149TIP3    H181938   0.602   2.638  11.689 -2.2876 -0.6513  0.4470
20149TIP3    H281939   0.674   2.575  11.572  0.0084  1.1494  0.8099
20150TIP3   OH281940   4.754   4.987  17.230  0.2277 -0.0374  0.0758
20150TIP3    H181941   4.672   4.979  17.180 -0.2370  1.1790  0.5888
20150TIP3    H281942   4.759   4.907  17.282 -1.0957  0.2381  0.6686
20151TIP3   OH281943   5.385   1.374   3.594 -0.2068  0.2530  0.9432
20151TIP3    H181944   5.441   1.419   3.656 -2.2886  3.0130  1.0139
20151TIP3    H281945   5.357   1.295   3.639  0.7270  0.6743  2.3066
20152TIP3   OH281946   4.989   4.969   3.350  0.8445  0.2715  0.1044
20152TIP3    H181947   4.990   4.989   3.256  1.2282  0.5604  0.1685
20152TIP3    H281948   5.081   4.965   3.375  0.7866 -1.4461  0.1412
20153TIP3   OH281949   3.014   4.507   0.676 -0.0047  0.1062 -0.2834
20153TIP3    H181950   3.022   4.441   0.608  1.3173 -1.3618  1.2263
20153TIP3    H281951   2.983   4.460   0.752 -0.1882  1.4649  0.5233
20154TIP3   OH281952   6.798   4.333  15.991  0.2867  0.2557  0.1554
20154TIP3    H181953   6.878   4.378  15.964  0.2520  0.6296  0.6644
20154TIP3    H281954   6.776   4.277  15.917  1.4079 -0.3724  0.2682
20155TIP3   OH281955   0.140   5.068  13.390 -0.5424 -0.1533  0.1346
20155TIP3    H181956   0.103   5.033  13.471 -1.2304 -1.6774 -0.8110
20155TIP3    H281957   0.207   5.005  13.364 -0.4147  0.2530 -0.5687
20156TIP3   OH281958   3.096   5.967   4.291 -0.0242 -0.5963 -0.4117
20156TIP3    H181959   3.001   5.957   4.298 -0.4205  2.0398 -1.1061
20156TIP3    H281960   3.118   6.032   4.358  0.4354  2.6755 -3.4248
20157TIP3   OH281961   0.043   0.455   4.944 -0.0768 -0.3408 -0.1632
20157TIP3    H181962   0.115   0.450   5.008 -0.4848  0.0699  0.3435
20157TIP3    H281963   0.067   0.393   4.876  0.8848 -0.0323 -0.1288
20158TIP3   OH281964   6.183   5.386   2.623 -0.1563  0.2415  0.1288
20158TIP3    H181965   6.175   5.329   2.546  0.7474 -0.2223  0.3643
20158TIP3    H281966   6.262   5.437   2.607 -0.7037  1.1078  0.1430
20159TIP3   OH281967   0.763   2.393  16.017 -0.2770  0.3022  0.2383
20159TIP3    H181968   0.702   2.420  16.086 -0.2525  1.1606 -0.0538
20159TIP3    H281969   0.708   2.378  15.941 -0.2457 -0.0877  0.2933
20160TIP3   OH281970   6.077   0.873   2.925 -0.1606  0.3736  0.5778
20160TIP3    H181971   6.120   0.943   2.973 -1.8496  0.8277  1.5167
20160TIP3    H281972   5.984   0.896   2.926 -0.3191  0.4155 -2.9774
20161TIP3   OH281973   0.050   2.654  15.871 -0.1269 -0.5664 -0.1403
20161TIP3    H181974   0.038   2.560  15.886 -1.2514 -0.3787  0.2819
20161TIP3    H281975   0.086   2.687  15.953 -0.5464 -0.5012  0.0215
20162TIP3   OH281976   1.962   3.206   3.930 -0.0691  0.0814 -0.1104
20162TIP3    H181977   1.868   3.212   3.948 -0.4981 -1.4751 -1.5810
20162TIP3    H281978   1.986   3.293   3.898 -1.2557  0.2087 -0.7017
20163TIP3   OH281979   3.327   5.520  17.178 -0.1098 -0.2265 -0.0414
20163TIP3    H181980   3.392   5.510  17.248  1.1733 -0.0906 -1.1618
20163TIP3    H281981   3.329   5.436  17.132  0.2236  0.2041 -0.8423
20164TIP3   OH281982   3.309   6.747  11.473 -0.1861 -0.4508  0.4293
20164TIP3    H181983   3.386   6.787  11.431  0.2159 -1.0090  0.6287
20164TIP3    H281984   3.330   6.654  11.479 -1.0125 -0.6619  0.1979
20165TIP3   OH281985   0.919   5.059  13.916  0.8754 -0.5408  0.3525
20165TIP3    H181986   0.933   5.141  13.963 -0.5250  0.5681 -1.0664
20165TIP3    H281987   0.938   4.991  13.980  0.5569  0.8950  2.0367
20166TIP3   OH281988   6.200   3.675   6.366 -0.1788 -0.6113  0.3244
20166TIP3    H181989   6.233   3.761   6.340  0.0670 -0.6015  0.6602
20166TIP3    H281990   6.276   3.617   6.358  0.1234 -0.4597  1.7482
20167TIP3   OH281991   1.736   0.950   5.729 -0.4048  0.1652  0.0646
20167TIP3    H181992   1.689   1.020   5.683  2.8050  1.8152 -0.9656
20167TIP3    H281993   1.751   0.986   5.817 -1.7923 -0.7705  0.7305
20168TIP3   OH281994   6.047   3.316  11.903 -0.4529  0.5931  0.6768
20168TIP3    H181995   5.958   3.333  11.871  0.1984 -0.7259 -2.1214
20168TIP3    H281996   6.098   3.390  11.871  0.2312 -0.8050 -1.6944
20169TIP3   OH281997   3.926   3.871   1.049 -0.5112  0.2502 -0.4166
20169TIP3    H181998   3.993   3.833   0.992  2.2075  3.7843 -0.0065
20169TIP3    H281999   3.883   3.937   0.995 -3.8581 -1.8778 -0.6348
20170TIP3   OH282000   4.375   5.641   4.687  0.0978 -0.7410 -0.0151
20170TIP3    H182001   4.411   5.728   4.703  0.3563 -0.3631 -2.3267
20170TIP3    H282002   4.421   5.610   4.609 -0.7644 -2.4991  0.1297
20171TIP3   OH282003   2.398   1.216   4.693 -0.0852  0.2370 -0.2309
20171TIP3    H182004   2.322   1.231   4.636 -1.5845 -0.3573  1.5293
20171TIP3    H282005   2.473   1.227   4.635 -1.5019  0.6004 -2.1059
20172TIP3   OH282006   5.495   5.374  17.225  0.3013 -0.3066  0.6327
20172TIP3    H182007   5.537   5.420  17.152  0.0923 -2.4510 -0.9363
20172TIP3    H282008   5.416   5.425  17.243  1.2675  1.2550  0.6139
20173TIP3   OH282009   6.650   1.015   5.738 -0.0921 -0.3093  0.2064
20173TIP3    H182010   6.607   0.960   5.673 -0.2539  0.1591 -0.0860
20173TIP3    H282011   6.707   0.955   5.786  0.5192 -0.5441 -0.7899
20174TIP3   OH282012   1.370   4.901   0.794 -0.2962  0.7186 -0.2479
20174TIP3    H182013   1.398   4.986   0.828  1.7379 -0.5276  1.5193
20174TIP3    H282014   1.355   4.848   0.873  0.8785 -1.2293 -1.2593
20175TIP3   OH282015   4.800   4.452   5.091  0.0961 -0.0556  0.1696
20175TIP3    H182016   4.748   4.372   5.098  0.6970 -0.4511  0.1968
20175TIP3    H282017   4.887   4.427   5.120  0.4868  0.4148 -0.5579
20176TIP3   OH282018   5.478   1.280  14.890  0.3658 -0.0710  0.4568
20176TIP3    H182019   5.489   1.373  14.910 -1.2431  0.0687  0.8588
20176TIP3    H282020   5.432   1.279  14.806 -0.6940 -0.4573  1.0225
20177TIP3   OH282021   1.229   5.796  16.781 -0.1551 -0.0862  0.0095
20177TIP3    H182022   1.172   5.746  16.839 -0.2296 -2.1263 -1.7238
20177TIP3    H282023   1.273   5.859  16.839  0.1011 -2.2904  2.3608
20178TIP3   OH282024   5.985   6.179   1.614 -0.6365  0.2114 -0.0273
20178TIP3    H182025   5.938   6.106   1.654 -0.0454  0.6720  1.5713
20178TIP3    H282026   6.072   6.176   1.653 -0.6295  1.8177  0.1524
20179TIP3   OH282027   4.050   6.232   0.952 -0.0084  0.3071 -0.4701
20179TIP3    H182028   4.009   6.193   1.029 -1.0856  2.3156  0.0394
20179TIP3    H282029   4.142   6.205   0.958  0.1929  1.2634  2.1728
20180TIP3   OH282030   2.707   3.968   6.429  0.2053  0.1213 -0.9051
20180TIP3    H182031   2.707   3.931   6.341 -2.8529 -1.9406 -0.2488
20180TIP3    H282032   2.661   4.051   6.421 -1.6875 -0.8851 -1.1072
20181TIP3   OH282033   0.235   6.659  15.561 -0.3789 -0.1774  0.2588
20181TIP3    H182034   0.275   6.573  15.579  0.3394  0.0502 -0.2039
20181TIP3    H282035   0.217   6.695  15.647  0.4278 -0.2873  0.4842
20182TIP3   OH282036   6.018   2.829   2.301 -0.8537  0.1312 -0.0300
20182TIP3    H182037   6.054   2.826   2.390 -0.8508  1.8760  0.0779
20182TIP3    H282038   5.934   2.874   2.311 -0.4579  1.1399 -0.9937
20183TIP3   OH282039   3.721   1.800   2.751  0.4726 -0.3521  0.2187
20183TIP3    H182040   3.644   1.801   2.694  0.4675 -1.2235  0.2021
20183TIP3    H282041   3.793   1.826   2.695  0.1050  1.0850  0.3803
20184TIP3   OH282042   3.691   4.789   4.666  0.2222  0.4590  0.3599
20184TIP3    H182043   3.770   4.738   4.649 -0.1535 -1.0248  2.5704
20184TIP3    H282044   3.622   4.744   4.617  0.6117  1.4964 -1.2138
20185TIP3   OH282045   5.723   0.482  14.358 -0.3632 -0.1268 -0.2690
20185TIP3    H182046   5.759   0.540  14.292  0.5384 -1.1173 -0.6705
20185TIP3    H282047   5.638   0.521  14.380  0.9599  2.4047  0.8638
20186TIP3   OH282048   1.705   2.551   2.435  0.2534  0.2704 -0.4208
20186TIP3    H182049   1.751   2.490   2.377  0.4365  0.4558 -0.4715
20186TIP3    H282050   1.613   2.529   2.424  0.4385 -2.6284  2.4417
20187TIP3   OH282051   6.148   0.569   1.297 -0.1252  0.4988 -0.1971
20187TIP3    H182052   6.230   0.554   1.249  0.2102  2.9510 -0.5308
20187TIP3    H282053   6.170   0.550   1.388  0.3688 -0.3358 -0.4822
20188TIP3   OH282054   6.758   0.798  15.749  0.1017 -0.7331  0.6123
20188TIP3    H182055   6.668   0.803  15.783 -0.3773 -2.6797 -0.2011
20188TIP3    H282056   6.812   0.782  15.827 -0.3099 -0.0099  1.0543
20189TIP3   OH282057   2.378   4.700  15.713  0.2502  0.1764 -0.2075
20189TIP3    H182058   2.408   4.612  15.689  0.2349 -0.0458  0.5516
20189TIP3    H282059   2.283   4.696  15.702 -0.0018 -0.5505  1.7044
20190TIP3   OH282060   5.463   0.746  11.282  0.4353  0.0393  0.9114
20190TIP3    H182061   5.531   0.704  11.228 -0.8254 -0.7335 -0.1313
20190TIP3    H282062   5.466   0.699  11.365  1.6514  0.4973  1.1505
20191TIP3   OH282063   5.886   1.306  12.231 -0.3456 -0.2214 -0.2100
20191TIP3    H182064   5.939   1.294  12.152 -0.2182  3.5657 -0.8631
20191TIP3    H282065   5.938   1.364  12.286 -1.9734  0.0973  1.0643
20192TIP3   OH282066   3.033   0.575  16.194 -0.0431  0.2335 -0.4303
20192TIP3    H182067   2.948   0.536  16.171  0.6550 -2.8558  1.5978
20192TIP3    H282068   3.014   0.627  16.272  0.0220 -1.4458  0.7680
20193TIP3   OH282069   2.853   1.792  13.023  0.1629  0.3585  0.0362
20193TIP3    H182070   2.796   1.734  12.974  0.3440  0.3100 -0.1183
20193TIP3    H282071   2.814   1.879  13.013  1.5998  0.8118 -2.3791
20194TIP3   OH282072   0.956   3.000   6.573  0.2705  0.0333  0.3436
20194TIP3    H182073   0.884   2.937   6.586  0.7896 -0.9690 -1.2492
20194TIP3    H282074   1.009   2.960   6.504 -0.2024  2.9229 -1.8733
20195TIP3   OH282075   1.604   4.173  11.766  0.0173  0.2123  0.1580
20195TIP3    H182076   1.544   4.214  11.703 -1.3789  1.6581  2.2646
20195TIP3    H282077   1.689   4.173  11.723 -0.4335  3.1396 -0.9502
20196TIP3   OH282078   3.263   2.836   5.148  0.1509  0.1168 -0.3389
20196TIP3    H182079   3.204   2.764   5.124  0.1180  0.7794 -2.4184
20196TIP3    H282080   3.295   2.870   5.065  1.2655  1.6272  0.6485
20197TIP3   OH282081   4.437   4.634  12.338  0.1560 -0.0578  0.2747
20197TIP3    H182082   4.366   4.695  12.319  0.6859  0.4002 -0.2648
20197TIP3    H282083   4.397   4.547  12.330  0.1051  0.1280 -1.9536
20198TIP3   OH282084   2.231   0.907  12.659  0.0291  0.1417 -0.0087
20198TIP3    H182085   2.228   0.834  12.598 -0.0827  0.9059 -0.9579
20198TIP3    H282086   2.139   0.933  12.669  0.1744  1.1130 -0.9227
20199TIP3   OH282087   0.966   5.946  13.596 -0.0666  0.1777 -0.4773
20199TIP3    H182088   1.019   5.950  13.675 -0.1450 -0.9118 -0.3624
20199TIP3    H282089   0.877   5.968  13.625  0.0575  0.6554 -0.4352
20200TIP3   OH282090   0.762   3.332   2.656 -0.6246  0.0363  0.9325
20200TIP3    H182091   0.699   3.382   2.604 -2.4917 -2.8402  0.1880
20200TIP3    H282092   0.753   3.242   2.624  2.1237 -0.9321  2.5593
20201TIP3   OH282093   1.713   5.539  13.924  0.6753  0.6238  0.1929
20201TIP3    H182094   1.782   5.496  13.975  0.5874 -0.5111 -0.5935
20201TIP3    H282095   1.756   5.565  13.843 -0.2701 -2.3421 -1.4099
20202TIP3   OH282096   1.003   1.731  15.793  0.3842 -0.8911 -0.0004
20202TIP3    H182097   0.932   1.704  15.852 -1.1609  0.9057 -0.9337
20202TIP3    H282098   1.066   1.775  15.850 -0.5877 -0.0873  0.4776
20203TIP3   OH282099   1.266   1.301  10.488  0.2602 -0.7513 -0.6062
20203TIP3    H182100   1.324   1.377  10.502  0.4045 -1.0847  0.8245
20203TIP3    H282101   1.178   1.335  10.502  0.3083 -0.7743 -0.2164
20204TIP3   OH282102   2.361   5.710   1.847  0.0286 -0.2092  0.0836
20204TIP3    H182103   2.392   5.653   1.917  0.3319 -1.0171 -0.6866
20204TIP3    H282104   2.440   5.752   1.814 -0.0886  0.0290  0.1078
20205TIP3   OH282105   4.957   3.606   2.114  0.6506  0.0737  0.0735
20205TIP3    H182106   5.031   3.579   2.060  0.5260 -2.7537  1.1540
20205TIP3    H282107   4.931   3.691   2.079  1.8866 -0.6659 -2.9032
20206TIP3   OH282108   3.534   1.379  15.910 -0.2354 -0.2352  0.9902
20206TIP3    H182109   3.619   1.355  15.872 -1.2439 -1.9800 -0.3436
20206TIP3    H282110   3.485   1.296  15.912 -2.1587  0.8467  1.0485
20207TIP3   OH282111   3.605   4.831   4.033  0.0846  0.0485 -0.7024
20207TIP3    H182112   3.529   4.868   4.076  0.4797 -3.6226  3.9147
20207TIP3    H282113   3.677   4.843   4.095  2.2703 -0.4486 -2.9513
20208TIP3   OH282114   6.356   2.063  15.099  0.5567 -0.9168 -0.1544
20208TIP3    H182115   6.349   1.969  15.115 -0.9636 -0.5483  1.7300
20208TIP3    H282116   6.373   2.070  15.005  0.7282 -3.0594 -0.3398
20209TIP3   OH282117   3.280   0.358   3.445 -0.2117 -0.3988  0.4249
20209TIP3    H182118   3.353   0.389   3.392 -1.5686  1.0465 -0.7170
20209TIP3    H282119   3.203   0.370   3.389 -1.6900  0.8911  2.5821
20210TIP3   OH282120   3.816   2.502  13.390 -0.4094  0.3184  0.1617
20210TIP3    H182121   3.836   2.532  13.301  1.6581 -2.7576 -0.5926
20210TIP3    H282122   3.852   2.569  13.447 -0.5056  1.6794 -1.3143
20211TIP3   OH282123   0.466   0.801   4.281  0.1894  0.8320 -0.0698
20211TIP3    H182124   0.405   0.736   4.316 -0.1700  1.6890  0.9390
20211TIP3    H282125   0.551   0.757   4.282  0.0972  0.6327  1.4021
20212TIP3   OH282126   5.544   1.045   5.874 -0.5108  1.1410  0.2740
20212TIP3    H182127   5.463   1.028   5.826  0.1987 -1.5311 -0.1400
20212TIP3    H282128   5.532   1.000   5.958  0.5556  0.6022  0.1569
20213TIP3   OH282129   1.572   0.035   0.584 -0.2489  0.1581 -0.5086
20213TIP3    H182130   1.590  -0.008   0.501 -0.9309  0.9766 -1.0920
20213TIP3    H282131   1.584   0.128   0.567  0.7719  0.2551  0.6300
20214TIP3   OH282132   1.682   0.024   5.342 -0.4354 -0.1002  0.1477
20214TIP3    H182133   1.770   0.018   5.305  0.2419 -1.8560  1.8863
20214TIP3    H282134   1.651   0.111   5.316  2.0170  0.8077 -0.0050
20215TIP3   OH282135   5.741   6.271  14.937 -0.0783 -0.7160  0.6472
20215TIP3    H182136   5.688   6.316  14.871 -0.6498  1.5739  2.5404
20215TIP3    H282137   5.753   6.183  14.901 -1.9953 -0.1857 -1.5832
20216TIP3   OH282138   0.489   4.355   0.320  0.2056  0.0600 -0.7097
20216TIP3    H182139   0.428   4.371   0.248 -1.7311 -0.7327  0.6539
20216TIP3    H282140   0.466   4.422   0.385  0.9356 -0.1220 -0.2556
20217TIP3   OH282141   4.228   4.824  13.354 -0.5961 -0.0167 -0.4390
20217TIP3    H182142   4.213   4.887  13.424  0.9452 -0.3757  0.2534
20217TIP3    H282143   4.141   4.793  13.330 -1.1496 -0.0954  1.5084
20218TIP3   OH282144   0.557   4.586  16.297 -0.6969 -0.0682 -0.1911
20218TIP3    H182145   0.494   4.527  16.339 -1.0004 -1.5594 -2.5506
20218TIP3    H282146   0.581   4.648  16.366 -2.8416 -0.9638  1.4944
20219TIP3   OH282147   0.848   1.734   0.518 -0.1949 -0.2213 -0.3921
20219TIP3    H182148   0.816   1.753   0.606  0.1603  1.5527 -0.6065
20219TIP3    H282149   0.944   1.737   0.526 -0.1573 -0.2305 -0.7975
20220TIP3   OH282150   2.541   5.954   5.695 -0.3675 -0.2094  0.9147
20220TIP3    H182151   2.562   6.013   5.767  2.0906 -0.2243  0.3189
20220TIP3    H282152   2.504   6.010   5.627  1.9608  0.7693  0.3440
20221TIP3   OH282153   0.311   3.987  14.858  0.0255 -0.2221  0.7033
20221TIP3    H182154   0.355   3.904  14.873  1.0888  0.3829  0.9745
20221TIP3    H282155   0.292   4.021  14.946  0.3938  0.2446  0.6029
20222TIP3   OH282156   3.410   5.055  11.252 -0.1029  0.2276  0.0233
20222TIP3    H182157   3.465   5.109  11.308  0.4364 -0.1144 -0.1659
20222TIP3    H282158   3.415   5.095  11.166  0.4423 -0.2233 -0.1566
20223TIP3   OH282159   4.594   3.526  14.840 -0.7557 -0.8298  0.0390
20223TIP3    H182160   4.512   3.477  14.833 -1.3818  0.2921 -0.7264
20223TIP3    H282161   4.638   3.511  14.756 -0.5517 -0.7714  0.1332
20224TIP3   OH282162   3.610   0.170  13.703  0.0853  0.1067  0.4226
20224TIP3    H182163   3.607   0.233  13.775 -1.1249 -0.7072  1.1179
20224TIP3    H282164   3.639   0.222  13.627  2.0619  0.8361  1.5991
20225TIP3   OH282165   1.701   3.594   1.282 -0.5313 -0.3579  0.6683
20225TIP3    H182166   1.686   3.648   1.360 -1.8059 -0.6464  0.6500
20225TIP3    H282167   1.624   3.537   1.278 -0.4063 -0.4534 -0.7147
20226TIP3   OH282168   4.957   4.906   0.740  0.2509  0.3487  0.1999
20226TIP3    H182169   5.035   4.889   0.793  0.0640 -0.0746  0.3445
20226TIP3    H282170   4.985   4.971   0.676  0.3901  1.1169  1.0181
20227TIP3   OH282171   5.640   5.246  12.695  0.5517 -0.2214 -0.0759
20227TIP3    H182172   5.651   5.273  12.604  1.3619  0.0052  0.0870
20227TIP3    H282173   5.545   5.251  12.710  0.5286  0.9664 -0.5299
20228TIP3   OH282174   2.117   0.989  15.868  0.0500 -0.2779  0.0588
20228TIP3    H182175   2.057   0.915  15.865  1.6090 -1.8851  3.2622
20228TIP3    H282176   2.171   0.980  15.789 -0.8896 -1.5346 -0.4734
20229TIP3   OH282177   0.888   4.103   2.123  0.4357  0.3052  0.3615
20229TIP3    H182178   0.982   4.092   2.113  0.8392  0.4129  3.2549
20229TIP3    H282179   0.868   4.184   2.076  1.5361 -0.2655 -1.1872
20230TIP3   OH282180   3.195   3.505  12.039  0.6286  0.7791 -0.6715
20230TIP3    H182181   3.139   3.499  12.116 -0.4097 -0.4220 -1.4827
20230TIP3    H282182   3.279   3.468  12.067  0.0569 -0.2527 -0.2961
20231TIP3   OH282183   4.722   0.400  16.082  0.0022 -0.5685 -0.3441
20231TIP3    H182184   4.707   0.311  16.051 -3.1510 -0.4049  0.3283
20231TIP3    H282185   4.680   0.456  16.016 -1.8932  0.0817  1.3022
20232TIP3   OH282186   2.127   3.889  11.724 -0.6949 -0.3012 -0.2459
20232TIP3    H182187   2.174   3.948  11.665 -0.3325 -0.9877 -0.6589
20232TIP3    H282188   2.196   3.847  11.776 -1.1014  2.0752  2.4482
20233TIP3   OH282189   0.639   3.058   2.058 -0.0743  0.5590  0.7788
20233TIP3    H182190   0.601   3.076   1.972 -1.0447  1.0099  1.2812
20233TIP3    H282191   0.588   3.113   2.118  0.2747 -0.0994  1.6963
20234TIP3   OH282192   1.408   2.490  11.767  0.3354  0.0678 -0.1548
20234TIP3    H182193   1.363   2.411  11.797 -0.1037  0.7704  1.1241
20234TIP3    H282194   1.500   2.475  11.789  0.1367  0.2267  0.8062
20235TIP3   OH282195   3.501   5.769  16.716 -0.0692  0.0917  0.0638
20235TIP3    H182196   3.510   5.774  16.621 -1.1122 -0.4220 -0.0750
20235TIP3    H282197   3.414   5.805  16.735  0.2256  0.4298  0.8533
20236TIP3   OH282198   3.130   3.468   3.022 -0.1562 -0.1448 -0.0791
20236TIP3    H182199   3.163   3.379   3.011  0.9396  0.2567 -0.1122
20236TIP3    H282200   3.176   3.502   3.099 -0.9867  0.2114  0.2791
20237TIP3   OH282201   4.876   5.396   1.209  0.5774 -0.0997 -0.1149
20237TIP3    H182202   4.900   5.465   1.270  2.6927 -1.2089  0.3902
20237TIP3    H282203   4.871   5.317   1.262 -0.1986 -0.6408 -0.9540
20238TIP3   OH282204   1.095   2.528   3.483  0.1570 -0.3349 -0.3650
20238TIP3    H182205   1.157   2.455   3.485  0.0539 -0.4064  0.3366
20238TIP3    H282206   1.015   2.494   3.523  0.4806  0.4793  1.0711
20239TIP3   OH282207   5.629   3.397   3.696 -0.7953 -0.0283 -0.0185
20239TIP3    H182208   5.609   3.305   3.676  0.8822 -0.0599 -1.7906
20239TIP3    H282209   5.681   3.393   3.776 -0.4502 -0.6762 -0.2644
20240TIP3   OH282210   4.477   2.507   4.811  0.0464  0.0388 -0.1903
20240TIP3    H182211   4.403   2.488   4.869  1.6432  0.1140  2.0138
20240TIP3    H282212   4.491   2.426   4.763 -0.3452 -0.5842  0.7069
20241TIP3   OH282213   0.658   1.509   0.768  0.1022  0.2054 -0.1078
20241TIP3    H182214   0.568   1.480   0.755  0.1449  0.2934 -0.6496
20241TIP3    H282215   0.708   1.457   0.704  0.8005 -1.6523  1.8060
20242TIP3   OH282216   3.675   1.161  14.395 -0.1172 -0.1574  0.6660
20242TIP3    H182217   3.667   1.115  14.479 -0.1706  0.7029  1.1500
20242TIP3    H282218   3.596   1.138  14.347  0.5788 -1.8166  0.2431
20243LIG     O182219   3.532   3.486  14.096 -0.3587  0.1685 -0.0786
20243LIG     O282220   3.034   3.090  14.117  0.2146  0.0069  0.1649
20243LIG     O382221   3.339   3.066  14.156 -0.0157 -0.1420 -0.3031
20243LIG     O482222   2.836   3.120  13.954 -0.1678 -0.4691 -0.4951
20243LIG     O582223   3.653   3.285  13.968 -0.3137 -0.5545 -0.4112
20243LIG     O682224   2.677   3.156  13.741 -0.4479  0.2342  0.7911
20243LIG      N82225   3.373   3.391  14.379 -0.4894  0.5574 -0.1499
20243LIG     C182226   3.206   3.394  14.185  0.2708  0.1154 -0.8841
20243LIG     C282227   3.200   3.245  14.178  0.3734  0.3990 -0.0248
20243LIG     C382228   3.179   3.467  14.050  0.7413  0.3640  0.3888
20243LIG     C482229   3.346   3.441  14.237 -0.3516  0.1283  0.4474
20243LIG     C582230   3.059   3.412  13.971 -0.3631 -0.0948  1.0407
20243LIG     C682231   3.078   3.200  14.093 -0.9545 -0.0789 -0.5708
20243LIG     C782232   3.010   3.282  13.988  0.0289  0.0776  0.7046
20243LIG     C882233   3.326   3.185  14.126  0.5731 -0.4992  0.1606
20243LIG     C982234   3.445   3.390  14.134  0.2290 -0.3309  0.2093
20243LIG    C1082235   3.437   3.264  14.078 -1.0718  0.5333  0.4890
20243LIG    C1182236   2.996   3.499  13.881 -0.1848 -0.0883  0.2946
20243LIG    C1282237   2.895   3.247  13.918  0.4345  1.1060  0.5810
20243LIG    C1382238   2.889   3.458  13.801  0.5227  0.7440 -0.3591
20243LIG    C1482239   2.840   3.325  13.820 -0.0536 -0.1277  0.1548
20243LIG    C1582240   3.046   3.634  13.841  0.2102 -0.5274 -0.1616
20243LIG    C1682241   3.548   3.223  13.987  0.0914  0.2459 -0.6767
20243LIG    C1782242   2.735   3.286  13.734 -0.4019  0.2309 -0.7622
20243LIG    C1882243   2.836   3.546  13.699 -0.9225  0.4782 -0.2270
20243LIG    C1982244   2.690   3.373  13.630  0.2140  0.2358 -0.0738
20243LIG    C2082245   2.745   3.500  13.610 -0.5500  0.1221  0.1949
20243LIG    C2182246   3.542   3.078  13.929  0.4081 -0.0170  0.1743
20243LIG    C2282247   3.630   3.522  14.197 -0.6891 -0.0603 -0.1879
20243LIG    C2382248   2.615   3.320  13.517 -0.1470  0.7248  0.7511
20243LIG     H182249   3.120   3.427  14.247  0.3488  0.8483 -1.1542
20243LIG     H282250   3.176   3.212  14.281  0.4477  1.6831  0.4234
20243LIG     H382251   3.259   3.459  13.973  0.4676  1.2977 -0.0057
20243LIG     H482252   3.154   3.574  14.071  0.7352  0.5609 -0.5629
20243LIG     H582253   3.344   3.551  14.246 -1.1147  0.1291  0.3281
20243LIG     H682254   3.378   3.292  14.401  0.2029  0.3848 -1.0523
20243LIG     H782255   3.458   3.429  14.420 -1.6917  0.8861  2.2235
20243LIG     H882256   3.130   3.668  13.907 -0.0050  2.2418 -1.1841
20243LIG     H982257   2.968   3.709  13.866 -0.0571 -0.6676 -0.5823
20243LIG    H1082258   3.083   3.654  13.738  2.9786 -1.0971  0.6326
20243LIG    H1182259   2.874   3.645  13.677  1.2860  0.4138  2.6968
20243LIG    H1282260   2.902   3.079  14.011  1.4908  1.8222 -0.6224
20243LIG    H1382261   2.709   3.559  13.526  0.4851  2.3930  1.2676
20243LIG    H1482262   3.445   3.069  13.876 -0.6235  1.3754  1.7169
20243LIG    H1582263   3.549   2.994  14.001  1.8262 -1.1797 -1.2659
20243LIG    H1682264   3.625   3.056  13.860  1.2652 -0.2818  1.2596
20243LIG    H1782265   3.579   3.550  14.292 -1.0189 -2.4926  0.4104
20243LIG    H1882266   3.693   3.608  14.166  1.5760 -0.8556  1.9057
20243LIG    H1982267   3.709   3.447  14.217  0.0370  0.4164 -1.2348
20243LIG    H2082268   2.524   3.268  13.555  0.7523 -2.9416 -1.6861
20243LIG    H2182269   2.675   3.245  13.462 -1.7822  0.7328 -1.1605
20243LIG    H2282270   2.578   3.406  13.456 -3.1087 -0.5698  0.5078
20243LIG    H2382271   2.727   3.118  13.813  0.5286  0.8805  0.4755
   6.82246   6.82246  17.31225
