* EQUILIBRATED WATER
*  DATE:    10/22/24     10:38:39      CREATED BY USER: apache
*
     11703  EXT
         1         1  TIP3      OH2           -24.9581487858      -26.6280057020       -4.3825686337  W2        1               0.0000000000
         2         1  TIP3      H1            -24.8690387858      -25.6841857020       -4.5148586337  W2        1               0.0000000000
         3         1  TIP3      H2            -25.5963887858      -26.9033657020       -5.0406286337  W2        1               0.0000000000
         4         2  TIP3      OH2           -26.0250187858      -27.3729357020       -0.9637486337  W2        2               0.0000000000
         5         2  TIP3      H1            -26.0632687858      -28.0193057020       -0.2587886337  W2        2               0.0000000000
         6         2  TIP3      H2            -26.3473687858      -27.8394957020       -1.7348786337  W2        2               0.0000000000
         7         3  TIP3      OH2           -33.6565187858      -27.7587257020        0.6292413663  W2        3               0.0000000000
         8         3  TIP3      H1            -33.6153087858      -28.3843957020        1.3524813663  W2        3               0.0000000000
         9         3  TIP3      H2            -32.9537487858      -27.1348657020        0.8112813663  W2        3               0.0000000000
        10         4  TIP3      OH2           -22.3189987858      -24.4338957020       -2.6622386337  W2        4               0.0000000000
        11         4  TIP3      H1            -22.7597287858      -25.1542957020       -2.2116786337  W2        4               0.0000000000
        12         4  TIP3      H2            -22.3320287858      -23.7131757020       -2.0324686337  W2        4               0.0000000000
        13         5  TIP3      OH2           -32.7332087858      -23.3088357020       -0.8358486337  W2        5               0.0000000000
        14         5  TIP3      H1            -33.1026887858      -24.1107857020       -1.2054186337  W2        5               0.0000000000
        15         5  TIP3      H2            -31.7920987858      -23.4773457020       -0.7895086337  W2        5               0.0000000000
        16         6  TIP3      OH2           -36.1231587858      -29.6485757020       -5.4429686337  W2        6               0.0000000000
        17         6  TIP3      H1            -36.5708187858      -28.8027057020       -5.4613186337  W2        6               0.0000000000
        18         6  TIP3      H2            -36.6840387858      -30.2281557020       -5.9584586337  W2        6               0.0000000000
        19         7  TIP3      OH2           -35.4125487858      -27.4866157020       -3.3171686337  W2        7               0.0000000000
        20         7  TIP3      H1            -35.1991987858      -28.2564557020       -2.7898686337  W2        7               0.0000000000
        21         7  TIP3      H2            -34.6747887858      -27.3969457020       -3.9204086337  W2        7               0.0000000000
        22         8  TIP3      OH2           -25.2074487858      -19.3297257020       -2.4501986337  W2        8               0.0000000000
        23         8  TIP3      H1            -24.5878087858      -20.0062557020       -2.7232786337  W2        8               0.0000000000
        24         8  TIP3      H2            -25.4157087858      -19.5476457020       -1.5417086337  W2        8               0.0000000000
        25         9  TIP3      OH2           -27.6355787858      -24.9407957020       -0.5576486337  W2        9               0.0000000000
        26         9  TIP3      H1            -27.3317887858      -25.6266557020       -1.1522386337  W2        9               0.0000000000
        27         9  TIP3      H2            -26.9141787858      -24.8219257020        0.0601513663  W2        9               0.0000000000
        28        10  TIP3      OH2           -18.9725987858      -33.3392657020        0.3029713663  W2        10              0.0000000000
        29        10  TIP3      H1            -18.9233787858      -32.7291457020        1.0388813663  W2        10              0.0000000000
        30        10  TIP3      H2            -18.5470887858      -32.8781757020       -0.4199186337  W2        10              0.0000000000
        31        11  TIP3      OH2           -24.4948787858      -30.5465557020       -0.2301686337  W2        11              0.0000000000
        32        11  TIP3      H1            -24.3522887858      -31.4928557020       -0.2100086337  W2        11              0.0000000000
        33        11  TIP3      H2            -24.6009787858      -30.3395757020       -1.1586786337  W2        11              0.0000000000
        34        12  TIP3      OH2           -31.3400487858      -32.4449157020       -2.9576886337  W2        12              0.0000000000
        35        12  TIP3      H1            -31.2969387858      -31.5850657020       -3.3760586337  W2        12              0.0000000000
        36        12  TIP3      H2            -31.7976387858      -32.9974457020       -3.5913686337  W2        12              0.0000000000
        37        13  TIP3      OH2           -23.6177787858      -32.3143557020       -4.5568586337  W2        13              0.0000000000
        38        13  TIP3      H1            -22.9713487858      -32.6430357020       -3.9320986337  W2        13              0.0000000000
        39        13  TIP3      H2            -23.1078387858      -31.7964557020       -5.1797186337  W2        13              0.0000000000
        40        14  TIP3      OH2           -34.7198987858      -30.0483357020       -2.1955486337  W2        14              0.0000000000
        41        14  TIP3      H1            -34.0662387858      -30.5981657020       -1.7635386337  W2        14              0.0000000000
        42        14  TIP3      H2            -34.6959687858      -30.3224357020       -3.1123486337  W2        14              0.0000000000
        43        15  TIP3      OH2           -29.5634487858      -28.4982057020       -2.9803986337  W2        15              0.0000000000
        44        15  TIP3      H1            -28.9473487858      -29.0246657020       -2.4709986337  W2        15              0.0000000000
        45        15  TIP3      H2            -30.1495687858      -29.1383357020       -3.3840386337  W2        15              0.0000000000
        46        16  TIP3      OH2           -18.5811387858      -31.8613457020        2.5389513663  W2        16              0.0000000000
        47        16  TIP3      H1            -19.2696787858      -31.2032757020        2.4436113663  W2        16              0.0000000000
        48        16  TIP3      H2            -18.5656787858      -32.0585557020        3.4754913663  W2        16              0.0000000000
        49        17  TIP3      OH2           -32.5298587858      -33.5270757020        1.1163913663  W2        17              0.0000000000
        50        17  TIP3      H1            -32.7486887858      -32.9970157020        0.3499913663  W2        17              0.0000000000
        51        17  TIP3      H2            -33.1977687858      -33.3005257020        1.7635313663  W2        17              0.0000000000
        52        18  TIP3      OH2           -25.1608787858      -24.0269657020       -5.3396986337  W2        18              0.0000000000
        53        18  TIP3      H1            -25.4563687858      -24.3497357020       -6.1910086337  W2        18              0.0000000000
        54        18  TIP3      H2            -25.4850987858      -23.1272957020       -5.2984386337  W2        18              0.0000000000
        55        19  TIP3      OH2           -29.9607187858      -25.8515057020        1.4037613663  W2        19              0.0000000000
        56        19  TIP3      H1            -30.7008087858      -25.2533557020        1.5072813663  W2        19              0.0000000000
        57        19  TIP3      H2            -29.2467687858      -25.2975457020        1.0881213663  W2        19              0.0000000000
        58        20  TIP3      OH2           -21.8539387858      -33.0234257020       -2.5762686337  W2        20              0.0000000000
        59        20  TIP3      H1            -22.0691387858      -33.7890857020       -2.0436686337  W2        20              0.0000000000
        60        20  TIP3      H2            -21.1981987858      -32.5509657020       -2.0634186337  W2        20              0.0000000000
        61        21  TIP3      OH2           -32.9361287858      -31.6348957020       -0.9313886337  W2        21              0.0000000000
        62        21  TIP3      H1            -32.3224987858      -31.0021357020       -0.5581486337  W2        21              0.0000000000
        63        21  TIP3      H2            -32.4240587858      -32.1073957020       -1.5876986337  W2        21              0.0000000000
        64        22  TIP3      OH2           -31.5532887858      -23.8872057020        2.1909113663  W2        22              0.0000000000
        65        22  TIP3      H1            -31.5585287858      -23.0078557020        1.8128413663  W2        22              0.0000000000
        66        22  TIP3      H2            -32.4068787858      -23.9707957020        2.6159013663  W2        22              0.0000000000
        67        23  TIP3      OH2           -35.4321987858      -24.2164157020       -7.0271586337  W2        23              0.0000000000
        68        23  TIP3      H1            -35.7041087858      -23.9873157020       -7.9158686337  W2        23              0.0000000000
        69        23  TIP3      H2            -35.3866287858      -23.3785357020       -6.5666286337  W2        23              0.0000000000
        70        24  TIP3      OH2           -21.8072287858      -22.5948257020       -0.3143086337  W2        24              0.0000000000
        71        24  TIP3      H1            -22.7488587858      -22.5364357020       -0.1526186337  W2        24              0.0000000000
        72        24  TIP3      H2            -21.5306187858      -21.6887757020       -0.4513386337  W2        24              0.0000000000
        73        25  TIP3      OH2           -21.5065287858      -34.3082957020        1.1030813663  W2        25              0.0000000000
        74        25  TIP3      H1            -22.2426087858      -33.6975857020        1.0652113663  W2        25              0.0000000000
        75        25  TIP3      H2            -20.8231287858      -33.8933957020        0.5767213663  W2        25              0.0000000000
        76        26  TIP3      OH2           -28.5033887858      -36.2215657020       -1.4311186337  W2        26              0.0000000000
        77        26  TIP3      H1            -28.6209687858      -37.1699657020       -1.4852886337  W2        26              0.0000000000
        78        26  TIP3      H2            -29.3583787858      -35.8889557020       -1.1580086337  W2        26              0.0000000000
        79        27  TIP3      OH2           -23.5551087858      -20.8134757020       -3.6891486337  W2        27              0.0000000000
        80        27  TIP3      H1            -23.1298787858      -21.5206857020       -4.1741886337  W2        27              0.0000000000
        81        27  TIP3      H2            -23.2381087858      -20.0122057020       -4.1059286337  W2        27              0.0000000000
        82        28  TIP3      OH2           -22.3954587858      -22.9126257020       -5.1804886337  W2        28              0.0000000000
        83        28  TIP3      H1            -22.6529787858      -23.6026157020       -5.7918986337  W2        28              0.0000000000
        84        28  TIP3      H2            -22.3243787858      -23.3555057020       -4.3348986337  W2        28              0.0000000000
        85        29  TIP3      OH2           -20.7094387858      -24.3459557020        3.2968613663  W2        29              0.0000000000
        86        29  TIP3      H1            -20.5698087858      -24.9377057020        2.5575613663  W2        29              0.0000000000
        87        29  TIP3      H2            -20.5421587858      -23.4733657020        2.9407413663  W2        29              0.0000000000
        88        30  TIP3      OH2           -26.2368987858      -27.3840057020       -6.9305386337  W2        30              0.0000000000
        89        30  TIP3      H1            -26.9483487858      -26.8490357020       -7.2824886337  W2        30              0.0000000000
        90        30  TIP3      H2            -25.5459387858      -27.3287957020       -7.5906486337  W2        30              0.0000000000
        91        31  TIP3      OH2           -26.1829787858      -28.9265757020       -9.8920386337  W2        31              0.0000000000
        92        31  TIP3      H1            -25.4819887858      -28.9038857020       -9.2406386337  W2        31              0.0000000000
        93        31  TIP3      H2            -25.8806887858      -29.5546057020      -10.5481086337  W2        31              0.0000000000
        94        32  TIP3      OH2           -18.8675087858      -28.0061557020        1.3629013663  W2        32              0.0000000000
        95        32  TIP3      H1            -19.5200987858      -27.3115957020        1.4519913663  W2        32              0.0000000000
        96        32  TIP3      H2            -18.4024787858      -27.7960657020        0.5530613663  W2        32              0.0000000000
        97        33  TIP3      OH2           -22.8311287858      -27.1746757020       -5.9789486337  W2        33              0.0000000000
        98        33  TIP3      H1            -23.5630287858      -26.9463057020       -5.4058886337  W2        33              0.0000000000
        99        33  TIP3      H2            -22.3839087858      -27.8884057020       -5.5241986337  W2        33              0.0000000000
       100        34  TIP3      OH2           -22.9337787858      -29.0004157020        3.0887513663  W2        34              0.0000000000
       101        34  TIP3      H1            -22.8538687858      -28.2369757020        3.6606013663  W2        34              0.0000000000
       102        34  TIP3      H2            -23.5350087858      -28.7211757020        2.3982613663  W2        34              0.0000000000
       103        35  TIP3      OH2           -31.1857587858      -26.5440557020       -4.0964486337  W2        35              0.0000000000
       104        35  TIP3      H1            -31.5162387858      -26.9147157020       -4.9147486337  W2        35              0.0000000000
       105        35  TIP3      H2            -30.5973487858      -27.2146557020       -3.7496186337  W2        35              0.0000000000
       106        36  TIP3      OH2           -29.8190087858      -23.1159957020       -1.4152286337  W2        36              0.0000000000
       107        36  TIP3      H1            -29.9138787858      -23.6946857020       -2.1717686337  W2        36              0.0000000000
       108        36  TIP3      H2            -29.0896487858      -23.4874257020       -0.9189486337  W2        36              0.0000000000
       109        37  TIP3      OH2           -30.8192087858      -27.7754957020       -0.4629486337  W2        37              0.0000000000
       110        37  TIP3      H1            -30.2539587858      -27.6540757020       -1.2258286337  W2        37              0.0000000000
       111        37  TIP3      H2            -30.5003187858      -27.1379957020        0.1759013663  W2        37              0.0000000000
       112        38  TIP3      OH2           -24.5099887858      -22.2723057020        0.2711013663  W2        38              0.0000000000
       113        38  TIP3      H1            -24.7503287858      -21.6099957020        0.9190213663  W2        38              0.0000000000
       114        38  TIP3      H2            -24.7081687858      -23.1067857020        0.6960613663  W2        38              0.0000000000
       115        39  TIP3      OH2           -29.9391387858      -23.3762257020        4.2542413663  W2        39              0.0000000000
       116        39  TIP3      H1            -30.2503887858      -22.5939057020        4.7095613663  W2        39              0.0000000000
       117        39  TIP3      H2            -30.5891187858      -23.5293157020        3.5684413663  W2        39              0.0000000000
       118        40  TIP3      OH2           -23.9601787858      -28.0123857020       -8.2938286337  W2        40              0.0000000000
       119        40  TIP3      H1            -23.3806287858      -27.8623557020       -7.5469386337  W2        40              0.0000000000
       120        40  TIP3      H2            -23.5461787858      -27.5416457020       -9.0171886337  W2        40              0.0000000000
       121        41  TIP3      OH2           -33.0191487858      -27.1781157020        3.4828113663  W2        41              0.0000000000
       122        41  TIP3      H1            -32.9488287858      -26.5274357020        4.1813113663  W2        41              0.0000000000
       123        41  TIP3      H2            -33.9099287858      -27.0753657020        3.1479013663  W2        41              0.0000000000
       124        42  TIP3      OH2           -26.2336887858      -21.2755357020       -4.8585186337  W2        42              0.0000000000
       125        42  TIP3      H1            -25.7599287858      -20.9799057020       -4.0810986337  W2        42              0.0000000000
       126        42  TIP3      H2            -26.7967587858      -20.5373757020       -5.0915586337  W2        42              0.0000000000
       127        43  TIP3      OH2           -31.6995487858      -21.3047257020        5.0176213663  W2        43              0.0000000000
       128        43  TIP3      H1            -31.6920187858      -21.4407557020        4.0701713663  W2        43              0.0000000000
       129        43  TIP3      H2            -32.6155087858      -21.4219157020        5.2696213663  W2        43              0.0000000000
       130        44  TIP3      OH2           -20.2613387858      -36.2623457020       -8.4808586337  W2        44              0.0000000000
       131        44  TIP3      H1            -21.1612687858      -36.1234457020       -8.1857986337  W2        44              0.0000000000
       132        44  TIP3      H2            -20.0094987858      -35.4308857020       -8.8826886337  W2        44              0.0000000000
       133        45  TIP3      OH2           -32.1954887858      -27.4746257020       -6.5071686337  W2        45              0.0000000000
       134        45  TIP3      H1            -32.4873587858      -26.7064557020       -6.9980386337  W2        45              0.0000000000
       135        45  TIP3      H2            -32.8699687858      -28.1340057020       -6.6700286337  W2        45              0.0000000000
       136        46  TIP3      OH2           -19.0721987858      -21.8961057020      -10.1044686337  W2        46              0.0000000000
       137        46  TIP3      H1            -18.9988487858      -20.9570857020       -9.9339386337  W2        46              0.0000000000
       138        46  TIP3      H2            -18.1666887858      -22.2012457020      -10.1607386337  W2        46              0.0000000000
       139        47  TIP3      OH2           -36.1024787858      -25.1117057020        2.3078113663  W2        47              0.0000000000
       140        47  TIP3      H1            -36.6036387858      -25.1397657020        1.4927813663  W2        47              0.0000000000
       141        47  TIP3      H2            -36.0971087858      -26.0173857020        2.6175413663  W2        47              0.0000000000
       142        48  TIP3      OH2           -36.3522087858      -22.3313257020       -0.8081686337  W2        48              0.0000000000
       143        48  TIP3      H1            -35.4061487858      -22.4756257020       -0.8272186337  W2        48              0.0000000000
       144        48  TIP3      H2            -36.4645787858      -21.5470457020       -0.2710486337  W2        48              0.0000000000
       145        49  TIP3      OH2           -18.1543587858      -21.6653557020        4.8742013663  W2        49              0.0000000000
       146        49  TIP3      H1            -18.2036787858      -22.6205457020        4.8369613663  W2        49              0.0000000000
       147        49  TIP3      H2            -18.9811287858      -21.3978257020        5.2755813663  W2        49              0.0000000000
       148        50  TIP3      OH2           -27.1759587858      -22.0914357020        3.7503413663  W2        50              0.0000000000
       149        50  TIP3      H1            -27.0884987858      -21.2649757020        4.2252513663  W2        50              0.0000000000
       150        50  TIP3      H2            -28.0394487858      -22.4210557020        3.9992713663  W2        50              0.0000000000
       151        51  TIP3      OH2           -26.7613787858      -18.3190657020       -6.4435986337  W2        51              0.0000000000
       152        51  TIP3      H1            -26.8367787858      -18.4403457020       -7.3900786337  W2        51              0.0000000000
       153        51  TIP3      H2            -26.7285087858      -17.3697957020       -6.3251386337  W2        51              0.0000000000
       154        52  TIP3      OH2           -33.1079987858      -19.5303657020       -4.6626986337  W2        52              0.0000000000
       155        52  TIP3      H1            -32.9559587858      -19.8783257020       -3.7840486337  W2        52              0.0000000000
       156        52  TIP3      H2            -33.9589587858      -19.8866357020       -4.9179786337  W2        52              0.0000000000
       157        53  TIP3      OH2           -23.6597787858      -19.1650457020       -9.4413586337  W2        53              0.0000000000
       158        53  TIP3      H1            -23.2849387858      -19.9094357020       -9.9120986337  W2        53              0.0000000000
       159        53  TIP3      H2            -23.6554087858      -19.4349857020       -8.5230286337  W2        53              0.0000000000
       160        54  TIP3      OH2           -23.9909687858      -19.2393357020       -6.6921386337  W2        54              0.0000000000
       161        54  TIP3      H1            -24.9259887858      -19.1391457020       -6.5134386337  W2        54              0.0000000000
       162        54  TIP3      H2            -23.7107787858      -19.9487357020       -6.1138186337  W2        54              0.0000000000
       163        55  TIP3      OH2           -21.0023787858      -30.1721057020        5.3544213663  W2        55              0.0000000000
       164        55  TIP3      H1            -21.4096987858      -29.6915457020        4.6337513663  W2        55              0.0000000000
       165        55  TIP3      H2            -20.9618087858      -31.0775057020        5.0465013663  W2        55              0.0000000000
       166        56  TIP3      OH2           -33.8534287858      -23.7881657020        3.3510913663  W2        56              0.0000000000
       167        56  TIP3      H1            -33.6372987858      -24.1496057020        4.2106713663  W2        56              0.0000000000
       168        56  TIP3      H2            -34.7089587858      -24.1627857020        3.1414413663  W2        56              0.0000000000
       169        57  TIP3      OH2           -31.2346287858      -35.3181157020       -0.6534886337  W2        57              0.0000000000
       170        57  TIP3      H1            -32.0962587858      -35.4052957020       -1.0611986337  W2        57              0.0000000000
       171        57  TIP3      H2            -31.2570587858      -34.4621057020       -0.2257286337  W2        57              0.0000000000
       172        58  TIP3      OH2           -26.5718487858      -35.5960757020        2.7212113663  W2        58              0.0000000000
       173        58  TIP3      H1            -26.1515387858      -36.0113657020        3.4742713663  W2        58              0.0000000000
       174        58  TIP3      H2            -27.5048887858      -35.7747457020        2.8384113663  W2        58              0.0000000000
       175        59  TIP3      OH2           -23.2453587858      -31.8405557020        3.5746613663  W2        59              0.0000000000
       176        59  TIP3      H1            -23.7594087858      -31.9663357020        4.3722613663  W2        59              0.0000000000
       177        59  TIP3      H2            -23.4008887858      -30.9282457020        3.3302813663  W2        59              0.0000000000
       178        60  TIP3      OH2           -22.4828687858      -26.9795557020      -10.6640386337  W2        60              0.0000000000
       179        60  TIP3      H1            -22.4407887858      -27.2021657020      -11.5940386337  W2        60              0.0000000000
       180        60  TIP3      H2            -21.6336587858      -26.5808457020      -10.4740486337  W2        60              0.0000000000
       181        61  TIP3      OH2           -26.9101187858      -33.1037357020       -9.9937086337  W2        61              0.0000000000
       182        61  TIP3      H1            -27.1636387858      -33.0845757020       -9.0708986337  W2        61              0.0000000000
       183        61  TIP3      H2            -27.1669087858      -33.9751957020      -10.2950886337  W2        61              0.0000000000
       184        62  TIP3      OH2           -31.1436187858      -30.3526657020        0.4415313663  W2        62              0.0000000000
       185        62  TIP3      H1            -31.7854087858      -30.3929357020        1.1505413663  W2        62              0.0000000000
       186        62  TIP3      H2            -31.1064187858      -29.4261957020        0.2038313663  W2        62              0.0000000000
       187        63  TIP3      OH2           -31.1467087858      -30.1316557020       -4.6464686337  W2        63              0.0000000000
       188        63  TIP3      H1            -32.0394187858      -30.4720457020       -4.7050886337  W2        63              0.0000000000
       189        63  TIP3      H2            -30.6960487858      -30.5085657020       -5.4021486337  W2        63              0.0000000000
       190        64  TIP3      OH2           -25.6111587858      -29.7156257020       -5.8293886337  W2        64              0.0000000000
       191        64  TIP3      H1            -26.0201287858      -28.9007657020       -6.1209086337  W2        64              0.0000000000
       192        64  TIP3      H2            -24.8905387858      -29.8556157020       -6.4436786337  W2        64              0.0000000000
       193        65  TIP3      OH2           -26.5089987858      -29.5399857020        5.6586813663  W2        65              0.0000000000
       194        65  TIP3      H1            -27.0716187858      -30.2448257020        5.9794613663  W2        65              0.0000000000
       195        65  TIP3      H2            -25.6826587858      -29.6607957020        6.1264413663  W2        65              0.0000000000
       196        66  TIP3      OH2           -24.6063887858      -30.2695857020       -3.0154186337  W2        66              0.0000000000
       197        66  TIP3      H1            -24.8019387858      -29.6639057020       -3.7303586337  W2        66              0.0000000000
       198        66  TIP3      H2            -24.4251287858      -31.1030657020       -3.4497886337  W2        66              0.0000000000
       199        67  TIP3      OH2           -33.3935687858      -30.0323157020        2.3087313663  W2        67              0.0000000000
       200        67  TIP3      H1            -33.4316287858      -29.6321557020        3.1774413663  W2        67              0.0000000000
       201        67  TIP3      H2            -33.8844587858      -30.8490757020        2.3990213663  W2        67              0.0000000000
       202        68  TIP3      OH2           -30.0278287858      -32.6580857020      -10.8926686337  W2        68              0.0000000000
       203        68  TIP3      H1            -30.4587587858      -33.1030757020      -10.1629286337  W2        68              0.0000000000
       204        68  TIP3      H2            -30.7459587858      -32.2864557020      -11.4049186337  W2        68              0.0000000000
       205        69  TIP3      OH2           -36.7854887858      -32.9161357020       -3.8407986337  W2        69              0.0000000000
       206        69  TIP3      H1            -36.1547187858      -32.9449257020       -3.1214086337  W2        69              0.0000000000
       207        69  TIP3      H2            -36.3360587858      -33.3412657020       -4.5712086337  W2        69              0.0000000000
       208        70  TIP3      OH2           -35.5112787858      -32.1699357020       -8.4167586337  W2        70              0.0000000000
       209        70  TIP3      H1            -35.0371087858      -31.5789457020       -9.0016686337  W2        70              0.0000000000
       210        70  TIP3      H2            -36.2286387858      -31.6396457020       -8.0697486337  W2        70              0.0000000000
       211        71  TIP3      OH2           -25.3424687858      -28.6314557020        1.6558213663  W2        71              0.0000000000
       212        71  TIP3      H1            -25.0189887858      -29.2624857020        1.0128713663  W2        71              0.0000000000
       213        71  TIP3      H2            -25.7825387858      -29.1662357020        2.3165613663  W2        71              0.0000000000
       214        72  TIP3      OH2           -28.5651787858      -32.7039057020       -3.5600586337  W2        72              0.0000000000
       215        72  TIP3      H1            -29.4760687858      -32.6472257020       -3.2714586337  W2        72              0.0000000000
       216        72  TIP3      H2            -28.0598887858      -32.7643557020       -2.7493386337  W2        72              0.0000000000
       217        73  TIP3      OH2           -33.7368387858      -31.0752757020       -4.7332986337  W2        73              0.0000000000
       218        73  TIP3      H1            -34.6260387858      -30.9757257020       -5.0733386337  W2        73              0.0000000000
       219        73  TIP3      H2            -33.4403487858      -31.9169757020       -5.0795086337  W2        73              0.0000000000
       220        74  TIP3      OH2           -30.0836587858      -31.0750157020       -7.0768386337  W2        74              0.0000000000
       221        74  TIP3      H1            -29.1521087858      -30.9460157020       -6.8985286337  W2        74              0.0000000000
       222        74  TIP3      H2            -30.2986287858      -30.4055857020       -7.7263686337  W2        74              0.0000000000
       223        75  TIP3      OH2           -24.1599887858      -33.4692757020       -0.2958786337  W2        75              0.0000000000
       224        75  TIP3      H1            -24.8368287858      -33.3379657020        0.3680913663  W2        75              0.0000000000
       225        75  TIP3      H2            -24.6454987858      -33.6243257020       -1.1061086337  W2        75              0.0000000000
       226        76  TIP3      OH2           -31.4096387858      -29.8807957020       -9.5102286337  W2        76              0.0000000000
       227        76  TIP3      H1            -31.9521287858      -30.2604157020      -10.2014686337  W2        76              0.0000000000
       228        76  TIP3      H2            -30.5761487858      -29.6863257020       -9.9388186337  W2        76              0.0000000000
       229        77  TIP3      OH2           -20.8724787858      -17.7977357020        5.9808813663  W2        77              0.0000000000
       230        77  TIP3      H1            -20.6726087858      -17.3735457020        5.1464113663  W2        77              0.0000000000
       231        77  TIP3      H2            -20.2171087858      -17.4539157020        6.5879213663  W2        77              0.0000000000
       232        78  TIP3      OH2           -33.2744987858      -25.3236057020        5.5889313663  W2        78              0.0000000000
       233        78  TIP3      H1            -32.5422587858      -25.0690157020        6.1503813663  W2        78              0.0000000000
       234        78  TIP3      H2            -34.0546287858      -25.1190657020        6.1044713663  W2        78              0.0000000000
       235        79  TIP3      OH2           -27.2452087858      -29.9166057020       -1.6730986337  W2        79              0.0000000000
       236        79  TIP3      H1            -26.6808687858      -30.4629457020       -2.2201386337  W2        79              0.0000000000
       237        79  TIP3      H2            -27.3928687858      -30.4384157020       -0.8843386337  W2        79              0.0000000000
       238        80  TIP3      OH2           -32.2432387858      -33.7799957020       -5.2546186337  W2        80              0.0000000000
       239        80  TIP3      H1            -32.5602887858      -34.6824657020       -5.2900786337  W2        80              0.0000000000
       240        80  TIP3      H2            -31.4618287858      -33.7782557020       -5.8074586337  W2        80              0.0000000000
       241        81  TIP3      OH2           -28.6186187858      -31.5279957020        0.7409413663  W2        81              0.0000000000
       242        81  TIP3      H1            -29.4540887858      -31.0740457020        0.8511813663  W2        81              0.0000000000
       243        81  TIP3      H2            -28.0945587858      -31.2521457020        1.4929313663  W2        81              0.0000000000
       244        82  TIP3      OH2           -28.0743587858      -25.3152257020       -7.5744186337  W2        82              0.0000000000
       245        82  TIP3      H1            -28.8192587858      -25.8226957020       -7.8966286337  W2        82              0.0000000000
       246        82  TIP3      H2            -28.2086387858      -25.2664257020       -6.6279386337  W2        82              0.0000000000
       247        83  TIP3      OH2           -20.9244687858      -26.1824057020        1.2123413663  W2        83              0.0000000000
       248        83  TIP3      H1            -20.2825887858      -25.7257757020        0.6685613663  W2        83              0.0000000000
       249        83  TIP3      H2            -21.7547787858      -26.0691657020        0.7497513663  W2        83              0.0000000000
       250        84  TIP3      OH2           -24.1766787858      -32.5012357020       -9.3751586337  W2        84              0.0000000000
       251        84  TIP3      H1            -25.1152587858      -32.3896757020       -9.5262786337  W2        84              0.0000000000
       252        84  TIP3      H2            -23.8794687858      -31.6445457020       -9.0685886337  W2        84              0.0000000000
       253        85  TIP3      OH2           -26.5551487858      -25.1308957020        3.6624913663  W2        85              0.0000000000
       254        85  TIP3      H1            -26.9005387858      -25.5126557020        4.4694513663  W2        85              0.0000000000
       255        85  TIP3      H2            -26.7551387858      -24.1975357020        3.7337813663  W2        85              0.0000000000
       256        86  TIP3      OH2           -23.4583287858      -30.6339657020       -7.7144186337  W2        86              0.0000000000
       257        86  TIP3      H1            -22.5664287858      -30.7714657020       -7.3952986337  W2        86              0.0000000000
       258        86  TIP3      H2            -23.4019687858      -29.8433557020       -8.2510686337  W2        86              0.0000000000
       259        87  TIP3      OH2           -32.9495287858      -26.0202257020       -1.8046286337  W2        87              0.0000000000
       260        87  TIP3      H1            -32.2048087858      -26.0226557020       -2.4059786337  W2        87              0.0000000000
       261        87  TIP3      H2            -32.8718687858      -26.8438457020       -1.3231186337  W2        87              0.0000000000
       262        88  TIP3      OH2           -25.9489487858      -23.8567957020       -8.5489586337  W2        88              0.0000000000
       263        88  TIP3      H1            -26.2441087858      -23.0300057020       -8.1674786337  W2        88              0.0000000000
       264        88  TIP3      H2            -26.6519487858      -24.4761057020       -8.3528186337  W2        88              0.0000000000
       265        89  TIP3      OH2           -35.9415587858      -27.5595357020        3.5102213663  W2        89              0.0000000000
       266        89  TIP3      H1            -35.7186987858      -27.9775757020        4.3419713663  W2        89              0.0000000000
       267        89  TIP3      H2            -36.5435487858      -28.1720357020        3.0875013663  W2        89              0.0000000000
       268        90  TIP3      OH2           -28.9250687858      -28.0425457020        5.7231913663  W2        90              0.0000000000
       269        90  TIP3      H1            -29.2209887858      -28.2082457020        4.8281013663  W2        90              0.0000000000
       270        90  TIP3      H2            -27.9935487858      -28.2625157020        5.7125813663  W2        90              0.0000000000
       271        91  TIP3      OH2           -24.3047887858      -22.6693457020        3.6129913663  W2        91              0.0000000000
       272        91  TIP3      H1            -25.2053587858      -22.4860857020        3.3453813663  W2        91              0.0000000000
       273        91  TIP3      H2            -24.2706787858      -22.4104157020        4.5338713663  W2        91              0.0000000000
       274        92  TIP3      OH2           -18.5734587858      -30.4245557020       -8.0197486337  W2        92              0.0000000000
       275        92  TIP3      H1            -19.1278287858      -30.8207557020       -8.6919986337  W2        92              0.0000000000
       276        92  TIP3      H2            -18.4730987858      -29.5140357020       -8.2974186337  W2        92              0.0000000000
       277        93  TIP3      OH2           -18.6102587858      -24.6243857020        4.8174013663  W2        93              0.0000000000
       278        93  TIP3      H1            -19.4614087858      -24.3860057020        4.4500413663  W2        93              0.0000000000
       279        93  TIP3      H2            -18.0199187858      -24.6410657020        4.0641113663  W2        93              0.0000000000
       280        94  TIP3      OH2           -20.2782887858      -21.6385157020       -7.5545386337  W2        94              0.0000000000
       281        94  TIP3      H1            -20.6511787858      -22.4641357020       -7.2454786337  W2        94              0.0000000000
       282        94  TIP3      H2            -20.0009387858      -21.8215757020       -8.4521986337  W2        94              0.0000000000
       283        95  TIP3      OH2           -23.1178987858      -26.8305657020       -0.5333486337  W2        95              0.0000000000
       284        95  TIP3      H1            -24.0462087858      -27.0623757020       -0.5604186337  W2        95              0.0000000000
       285        95  TIP3      H2            -22.6667887858      -27.6075857020       -0.8634686337  W2        95              0.0000000000
       286        96  TIP3      OH2           -30.5745887858      -22.5024057020       -4.4004786337  W2        96              0.0000000000
       287        96  TIP3      H1            -30.0473687858      -21.7289657020       -4.6005986337  W2        96              0.0000000000
       288        96  TIP3      H2            -31.4547387858      -22.2774857020       -4.7020786337  W2        96              0.0000000000
       289        97  TIP3      OH2           -34.8198187858      -27.6399957020       -9.8132386337  W2        97              0.0000000000
       290        97  TIP3      H1            -34.2038287858      -27.0132757020       -9.4337586337  W2        97              0.0000000000
       291        97  TIP3      H2            -35.6815587858      -27.3240157020       -9.5415886337  W2        97              0.0000000000
       292        98  TIP3      OH2           -29.1473587858      -24.8394157020       -4.8240486337  W2        98              0.0000000000
       293        98  TIP3      H1            -29.3883587858      -23.9139757020       -4.7825186337  W2        98              0.0000000000
       294        98  TIP3      H2            -29.8879987858      -25.2982857020       -4.4276586337  W2        98              0.0000000000
       295        99  TIP3      OH2           -28.6326987858      -20.6900557020        1.4910613663  W2        99              0.0000000000
       296        99  TIP3      H1            -28.2702287858      -19.8354957020        1.2575013663  W2        99              0.0000000000
       297        99  TIP3      H2            -28.1011787858      -20.9818957020        2.2316913663  W2        99              0.0000000000
       298       100  TIP3      OH2           -30.4642787858      -19.8176557020       -5.2788286337  W2        100             0.0000000000
       299       100  TIP3      H1            -31.4142287858      -19.7119157020       -5.2274986337  W2        100             0.0000000000
       300       100  TIP3      H2            -30.1124687858      -18.9969157020       -4.9340786337  W2        100             0.0000000000
       301       101  TIP3      OH2           -25.0886187858      -24.5909857020        1.1916213663  W2        101             0.0000000000
       302       101  TIP3      H1            -25.5144887858      -24.8188157020        2.0180213663  W2        101             0.0000000000
       303       101  TIP3      H2            -24.5080387858      -25.3298057020        1.0091513663  W2        101             0.0000000000
       304       102  TIP3      OH2           -22.8857287858      -23.6619357020       -9.7344786337  W2        102             0.0000000000
       305       102  TIP3      H1            -22.5324187858      -24.0419557020       -8.9301286337  W2        102             0.0000000000
       306       102  TIP3      H2            -23.8343787858      -23.7554557020       -9.6475486337  W2        102             0.0000000000
       307       103  TIP3      OH2           -22.4301987858      -20.0390357020        3.6611013663  W2        103             0.0000000000
       308       103  TIP3      H1            -23.0318787858      -20.5947457020        3.1657313663  W2        103             0.0000000000
       309       103  TIP3      H2            -22.1488287858      -19.3720557020        3.0348413663  W2        103             0.0000000000
       310       104  TIP3      OH2           -18.3822887858      -19.1826857020       -9.5334586337  W2        104             0.0000000000
       311       104  TIP3      H1            -17.6384987858      -18.5966357020       -9.6732986337  W2        104             0.0000000000
       312       104  TIP3      H2            -19.0764787858      -18.6141057020       -9.2002186337  W2        104             0.0000000000
       313       105  TIP3      OH2           -34.3076087858      -32.8062657020        3.0683613663  W2        105             0.0000000000
       314       105  TIP3      H1            -35.2003787858      -32.4677257020        3.0007613663  W2        105             0.0000000000
       315       105  TIP3      H2            -34.4063287858      -33.6616557020        3.4864413663  W2        105             0.0000000000
       316       106  TIP3      OH2           -22.0197987858      -24.9897357020       -7.5076886337  W2        106             0.0000000000
       317       106  TIP3      H1            -22.2970387858      -25.7178057020       -6.9515786337  W2        106             0.0000000000
       318       106  TIP3      H2            -21.0924987858      -24.8705357020       -7.3024286337  W2        106             0.0000000000
       319       107  TIP3      OH2           -34.6564087858      -21.0018257020        1.5033013663  W2        107             0.0000000000
       320       107  TIP3      H1            -34.4393787858      -21.9335857020        1.4722713663  W2        107             0.0000000000
       321       107  TIP3      H2            -34.4100587858      -20.7273257020        2.3865813663  W2        107             0.0000000000
       322       108  TIP3      OH2           -28.7949487858      -22.5503257020      -11.2874786337  W2        108             0.0000000000
       323       108  TIP3      H1            -28.5559687858      -23.2985157020      -11.8345886337  W2        108             0.0000000000
       324       108  TIP3      H2            -29.0638187858      -22.9381557020      -10.4546986337  W2        108             0.0000000000
       325       109  TIP3      OH2           -29.8578887858      -22.9799457020       -8.8312186337  W2        109             0.0000000000
       326       109  TIP3      H1            -29.7110887858      -23.4999657020       -8.0411286337  W2        109             0.0000000000
       327       109  TIP3      H2            -29.8607187858      -22.0731857020       -8.5246286337  W2        109             0.0000000000
       328       110  TIP3      OH2           -33.4047787858      -25.7276157020       -8.3206786337  W2        110             0.0000000000
       329       110  TIP3      H1            -34.0908487858      -25.3753657020       -7.7537086337  W2        110             0.0000000000
       330       110  TIP3      H2            -32.8819887858      -24.9646557020       -8.5672486337  W2        110             0.0000000000
       331       111  TIP3      OH2           -25.5732687858      -33.0652357020        1.9582213663  W2        111             0.0000000000
       332       111  TIP3      H1            -24.8744787858      -32.9913657020        2.6081913663  W2        111             0.0000000000
       333       111  TIP3      H2            -25.9541287858      -33.9297357020        2.1125113663  W2        111             0.0000000000
       334       112  TIP3      OH2           -24.7887787858      -33.4130657020       -6.9445486337  W2        112             0.0000000000
       335       112  TIP3      H1            -24.5689487858      -32.9415257020       -7.7480086337  W2        112             0.0000000000
       336       112  TIP3      H2            -24.2303787858      -33.0188057020       -6.2744886337  W2        112             0.0000000000
       337       113  TIP3      OH2           -27.1201687858      -21.2825857020       -8.0817986337  W2        113             0.0000000000
       338       113  TIP3      H1            -27.9365587858      -20.7856157020       -8.0293686337  W2        113             0.0000000000
       339       113  TIP3      H2            -26.5905387858      -20.8072357020       -8.7219186337  W2        113             0.0000000000
       340       114  TIP3      OH2           -27.5887887858      -31.6851857020       -6.1097086337  W2        114             0.0000000000
       341       114  TIP3      H1            -26.7765287858      -31.1808657020       -6.0635386337  W2        114             0.0000000000
       342       114  TIP3      H2            -27.8334887858      -31.8302157020       -5.1957486337  W2        114             0.0000000000
       343       115  TIP3      OH2           -27.0531487858      -30.6989157020        3.0749513663  W2        115             0.0000000000
       344       115  TIP3      H1            -26.9341187858      -30.1253757020        3.8319913663  W2        115             0.0000000000
       345       115  TIP3      H2            -26.3976887858      -31.3869757020        3.1897313663  W2        115             0.0000000000
       346       116  TIP3      OH2           -26.7051187858      -34.6038857020       -5.1715986337  W2        116             0.0000000000
       347       116  TIP3      H1            -27.0517687858      -33.9868257020       -4.5271686337  W2        116             0.0000000000
       348       116  TIP3      H2            -26.0464287858      -34.1033157020       -5.6530486337  W2        116             0.0000000000
       349       117  TIP3      OH2           -29.7818587858      -20.2388657020       -8.1001086337  W2        117             0.0000000000
       350       117  TIP3      H1            -29.6209887858      -19.4391157020       -8.6008486337  W2        117             0.0000000000
       351       117  TIP3      H2            -29.9790787858      -19.9322657020       -7.2150486337  W2        117             0.0000000000
       352       118  TIP3      OH2           -31.0474187858      -33.5409457020       -8.4843486337  W2        118             0.0000000000
       353       118  TIP3      H1            -31.1309387858      -32.6526357020       -8.1377086337  W2        118             0.0000000000
       354       118  TIP3      H2            -30.1573887858      -33.8062757020       -8.2526686337  W2        118             0.0000000000
       355       119  TIP3      OH2           -20.8485687858      -32.7918857020        3.9099213663  W2        119             0.0000000000
       356       119  TIP3      H1            -21.7649887858      -32.5297157020        3.8222913663  W2        119             0.0000000000
       357       119  TIP3      H2            -20.5130687858      -32.7949857020        3.0134513663  W2        119             0.0000000000
       358       120  TIP3      OH2           -22.2464687858      -29.0417857020       -1.9943486337  W2        120             0.0000000000
       359       120  TIP3      H1            -23.0440287858      -29.4567657020       -2.3228486337  W2        120             0.0000000000
       360       120  TIP3      H2            -21.8013587858      -29.7324157020       -1.5032986337  W2        120             0.0000000000
       361       121  TIP3      OH2           -32.7888887858      -23.1137257020       -9.4238986337  W2        121             0.0000000000
       362       121  TIP3      H1            -32.1967387858      -22.4142457020       -9.1476586337  W2        121             0.0000000000
       363       121  TIP3      H2            -32.3295887858      -23.5467757020      -10.1434386337  W2        121             0.0000000000
       364       122  TIP3      OH2           -34.4729687858      -30.4494257020      -10.3079586337  W2        122             0.0000000000
       365       122  TIP3      H1            -34.5177087858      -29.5101157020      -10.1292586337  W2        122             0.0000000000
       366       122  TIP3      H2            -35.3606487858      -30.6849357020      -10.5777486337  W2        122             0.0000000000
       367       123  TIP3      OH2           -21.1600087858      -19.7855357020       -0.3719986337  W2        123             0.0000000000
       368       123  TIP3      H1            -21.3155787858      -19.1070957020       -1.0290686337  W2        123             0.0000000000
       369       123  TIP3      H2            -20.2273687858      -19.7136057020       -0.1689386337  W2        123             0.0000000000
       370       124  TIP3      OH2           -33.6647687858      -35.6677657020       -1.6348586337  W2        124             0.0000000000
       371       124  TIP3      H1            -33.8937887858      -35.6085157020       -2.5623586337  W2        124             0.0000000000
       372       124  TIP3      H2            -34.1074287858      -36.4592157020       -1.3284486337  W2        124             0.0000000000
       373       125  TIP3      OH2           -34.7344387858      -21.7270557020       -5.4742786337  W2        125             0.0000000000
       374       125  TIP3      H1            -35.5665787858      -21.2547857020       -5.4471386337  W2        125             0.0000000000
       375       125  TIP3      H2            -34.1886087858      -21.2172957020       -6.0729686337  W2        125             0.0000000000
       376       126  TIP3      OH2           -35.4460687858      -19.1146857020        5.8555213663  W2        126             0.0000000000
       377       126  TIP3      H1            -34.9058487858      -19.3312857020        6.6154413663  W2        126             0.0000000000
       378       126  TIP3      H2            -35.9272687858      -19.9200857020        5.6657713663  W2        126             0.0000000000
       379       127  TIP3      OH2           -30.8487287858      -20.1952457020        7.4759413663  W2        127             0.0000000000
       380       127  TIP3      H1            -30.0810087858      -20.6541657020        7.8168613663  W2        127             0.0000000000
       381       127  TIP3      H2            -30.8701087858      -20.4212657020        6.5460613663  W2        127             0.0000000000
       382       128  TIP3      OH2           -26.7567687858      -20.6871857020      -11.1488786337  W2        128             0.0000000000
       383       128  TIP3      H1            -27.4006687858      -21.3183257020      -10.8275086337  W2        128             0.0000000000
       384       128  TIP3      H2            -25.9949387858      -21.2183857020      -11.3805286337  W2        128             0.0000000000
       385       129  TIP3      OH2           -24.2718587858      -21.8151357020        6.2050913663  W2        129             0.0000000000
       386       129  TIP3      H1            -24.6229087858      -22.6718357020        6.4481313663  W2        129             0.0000000000
       387       129  TIP3      H2            -23.5455387858      -21.6724657020        6.8119913663  W2        129             0.0000000000
       388       130  TIP3      OH2           -22.1524787858      -20.8701957020      -10.9150786337  W2        130             0.0000000000
       389       130  TIP3      H1            -21.8694387858      -21.6646757020      -10.4623886337  W2        130             0.0000000000
       390       130  TIP3      H2            -21.4126887858      -20.6370957020      -11.4759686337  W2        130             0.0000000000
       391       131  TIP3      OH2           -35.5391187858      -25.3042757020        6.8099513663  W2        131             0.0000000000
       392       131  TIP3      H1            -35.3950687858      -26.2062057020        6.5236213663  W2        131             0.0000000000
       393       131  TIP3      H2            -36.3113787858      -25.0180657020        6.3221813663  W2        131             0.0000000000
       394       132  TIP3      OH2           -31.1977487858      -24.9607057020      -11.0575886337  W2        132             0.0000000000
       395       132  TIP3      H1            -31.1333387858      -25.7547457020      -10.5269486337  W2        132             0.0000000000
       396       132  TIP3      H2            -30.5448287858      -25.0794257020      -11.7473886337  W2        132             0.0000000000
       397       133  TIP3      OH2           -28.8835087858      -25.3344657020        6.2425913663  W2        133             0.0000000000
       398       133  TIP3      H1            -29.2121287858      -25.0636557020        5.3853313663  W2        133             0.0000000000
       399       133  TIP3      H2            -28.7316887858      -26.2754857020        6.1550913663  W2        133             0.0000000000
       400       134  TIP3      OH2           -25.8454087858      -23.9135357020      -11.3217886337  W2        134             0.0000000000
       401       134  TIP3      H1            -26.1139987858      -23.7333257020      -10.4208986337  W2        134             0.0000000000
       402       134  TIP3      H2            -26.0518487858      -24.8389157020      -11.4532086337  W2        134             0.0000000000
       403       135  TIP3      OH2           -23.1489887858      -25.4187357020        3.6258213663  W2        135             0.0000000000
       404       135  TIP3      H1            -22.4035087858      -24.8303657020        3.5062213663  W2        135             0.0000000000
       405       135  TIP3      H2            -23.9063087858      -24.8367657020        3.6891313663  W2        135             0.0000000000
       406       136  TIP3      OH2           -34.7064687858      -28.1039457020        6.2298813663  W2        136             0.0000000000
       407       136  TIP3      H1            -34.2983487858      -28.9612857020        6.1089413663  W2        136             0.0000000000
       408       136  TIP3      H2            -34.9667087858      -28.0898157020        7.1509113663  W2        136             0.0000000000
       409       137  TIP3      OH2           -30.0483687858      -26.9880857020       -8.7517886337  W2        137             0.0000000000
       410       137  TIP3      H1            -30.5081687858      -27.4722557020       -8.0659386337  W2        137             0.0000000000
       411       137  TIP3      H2            -29.7934987858      -27.6565457020       -9.3877386337  W2        137             0.0000000000
       412       138  TIP3      OH2           -30.7594387858      -29.0953757020        3.6041713663  W2        138             0.0000000000
       413       138  TIP3      H1            -31.3778287858      -28.4207157020        3.8846413663  W2        138             0.0000000000
       414       138  TIP3      H2            -30.4153187858      -28.7739857020        2.7707913663  W2        138             0.0000000000
       415       139  TIP3      OH2           -28.9773287858      -28.7449057020      -10.4894686337  W2        139             0.0000000000
       416       139  TIP3      H1            -29.1578287858      -28.8997857020      -11.4166386337  W2        139             0.0000000000
       417       139  TIP3      H2            -28.0272787858      -28.6370357020      -10.4446786337  W2        139             0.0000000000
       418       140  TIP3      OH2           -25.7396187858      -26.6238457020        6.8816513663  W2        140             0.0000000000
       419       140  TIP3      H1            -24.7864987858      -26.5399357020        6.8542513663  W2        140             0.0000000000
       420       140  TIP3      H2            -25.9001587858      -27.3356657020        7.5011413663  W2        140             0.0000000000
       421       141  TIP3      OH2           -19.5874987858      -26.3904857020      -11.0436586337  W2        141             0.0000000000
       422       141  TIP3      H1            -19.8610187858      -26.8149357020      -11.8568286337  W2        141             0.0000000000
       423       141  TIP3      H2            -19.5480887858      -25.4590357020      -11.2606186337  W2        141             0.0000000000
       424       142  TIP3      OH2           -30.4200687858      -31.7402957020        4.6864813663  W2        142             0.0000000000
       425       142  TIP3      H1            -30.2699787858      -32.4691657020        4.0844513663  W2        142             0.0000000000
       426       142  TIP3      H2            -30.4178287858      -30.9631257020        4.1277013663  W2        142             0.0000000000
       427       143  TIP3      OH2           -30.0074987858      -33.3707157020        2.1792213663  W2        143             0.0000000000
       428       143  TIP3      H1            -29.4717487858      -32.9190457020        1.5271513663  W2        143             0.0000000000
       429       143  TIP3      H2            -30.8595387858      -33.4787357020        1.7566313663  W2        143             0.0000000000
       430       144  TIP3      OH2           -28.4256587858      -27.9310957020        2.4187413663  W2        144             0.0000000000
       431       144  TIP3      H1            -27.6751787858      -28.0873457020        1.8455213663  W2        144             0.0000000000
       432       144  TIP3      H2            -28.7648287858      -27.0794357020        2.1432913663  W2        144             0.0000000000
       433       145  TIP3      OH2           -24.0100387858      -30.1159157020        7.4472713663  W2        145             0.0000000000
       434       145  TIP3      H1            -23.8179087858      -31.0469757020        7.3357213663  W2        145             0.0000000000
       435       145  TIP3      H2            -23.1524087858      -29.6909657020        7.4368113663  W2        145             0.0000000000
       436       146  TIP3      OH2           -22.6933187858      -27.3273957020        5.5245413663  W2        146             0.0000000000
       437       146  TIP3      H1            -22.9748187858      -26.6179357020        4.9469213663  W2        146             0.0000000000
       438       146  TIP3      H2            -21.7508887858      -27.4000957020        5.3736613663  W2        146             0.0000000000
       439       147  TIP3      OH2           -31.9414387858      -30.5419457020        6.5980413663  W2        147             0.0000000000
       440       147  TIP3      H1            -32.7085387858      -31.0744657020        6.3878013663  W2        147             0.0000000000
       441       147  TIP3      H2            -31.2625387858      -30.8519057020        5.9986713663  W2        147             0.0000000000
       442       148  TIP3      OH2           -29.2019487858      -35.9141457020        2.6105813663  W2        148             0.0000000000
       443       148  TIP3      H1            -29.2999887858      -34.9678257020        2.5052013663  W2        148             0.0000000000
       444       148  TIP3      H2            -29.9443287858      -36.2867657020        2.1349313663  W2        148             0.0000000000
       445       149  TIP3      OH2           -27.9378987858      -31.5926057020        6.1744213663  W2        149             0.0000000000
       446       149  TIP3      H1            -28.1733587858      -31.8119357020        7.0759113663  W2        149             0.0000000000
       447       149  TIP3      H2            -28.7212087858      -31.7994857020        5.6646713663  W2        149             0.0000000000
       448       150  TIP3      OH2           -25.2222387858      -32.4652557020        5.2497713663  W2        150             0.0000000000
       449       150  TIP3      H1            -26.1696987858      -32.4332857020        5.3821013663  W2        150             0.0000000000
       450       150  TIP3      H2            -24.9095687858      -33.0905457020        5.9035913663  W2        150             0.0000000000
       451       151  TIP3      OH2           -23.5880887858      -33.8311457020        7.2549613663  W2        151             0.0000000000
       452       151  TIP3      H1            -23.6849087858      -34.7834157020        7.2491513663  W2        151             0.0000000000
       453       151  TIP3      H2            -23.9097787858      -33.5624657020        8.1155113663  W2        151             0.0000000000
       454       152  TIP3      OH2           -33.7611587858      -32.6215657020        6.3025113663  W2        152             0.0000000000
       455       152  TIP3      H1            -33.5494187858      -33.3279557020        5.6922613663  W2        152             0.0000000000
       456       152  TIP3      H2            -33.8724087858      -33.0589657020        7.1466313663  W2        152             0.0000000000
       457       153  TIP3      OH2           -28.9801387858      -36.6204057020        5.2818613663  W2        153             0.0000000000
       458       153  TIP3      H1            -28.2682987858      -37.2601857020        5.2677713663  W2        153             0.0000000000
       459       153  TIP3      H2            -29.0810987858      -36.3535757020        4.3681713663  W2        153             0.0000000000
       460       154  TIP3      OH2           -28.6263887858      -34.9375657020        7.3354913663  W2        154             0.0000000000
       461       154  TIP3      H1            -28.7581687858      -35.4131857020        6.5153413663  W2        154             0.0000000000
       462       154  TIP3      H2            -29.2256487858      -34.1932057020        7.2802013663  W2        154             0.0000000000
       463       155  TIP3      OH2           -29.0801587858      -18.0545357020       -9.4881086337  W2        155             0.0000000000
       464       155  TIP3      H1            -28.1470887858      -17.8966657020       -9.3442686337  W2        155             0.0000000000
       465       155  TIP3      H2            -29.3442787858      -17.3792357020      -10.1129586337  W2        155             0.0000000000
       466       156  TIP3      OH2           -35.5116687858      -23.4181557020      -10.0052986337  W2        156             0.0000000000
       467       156  TIP3      H1            -34.5977487858      -23.3392657020       -9.7319086337  W2        156             0.0000000000
       468       156  TIP3      H2            -35.5043587858      -24.1051957020      -10.6717386337  W2        156             0.0000000000
       469       157  TIP3      OH2           -36.8626087858      -18.0253057020       -4.9279086337  W2        157             0.0000000000
       470       157  TIP3      H1            -37.5098987858      -18.4871357020       -5.4607886337  W2        157             0.0000000000
       471       157  TIP3      H2            -36.5081487858      -18.6969757020       -4.3452886337  W2        157             0.0000000000
       472       158  TIP3      OH2           -35.9926887858      -19.9446057020       -3.1232886337  W2        158             0.0000000000
       473       158  TIP3      H1            -36.3270087858      -20.8248757020       -2.9512686337  W2        158             0.0000000000
       474       158  TIP3      H2            -35.7704487858      -19.5991057020       -2.2587286337  W2        158             0.0000000000
       475       159  TIP3      OH2           -18.4442087858      -19.1349657020       -0.1428086337  W2        159             0.0000000000
       476       159  TIP3      H1            -18.4655387858      -18.9501257020        0.7961313663  W2        159             0.0000000000
       477       159  TIP3      H2            -17.7535887858      -18.5665657020       -0.4836686337  W2        159             0.0000000000
       478       160  TIP3      OH2           -18.8809187858      -19.5678557020        2.7791013663  W2        160             0.0000000000
       479       160  TIP3      H1            -19.3680487858      -20.3034457020        2.4078413663  W2        160             0.0000000000
       480       160  TIP3      H2            -18.3316487858      -19.9614657020        3.4570413663  W2        160             0.0000000000
       481       161  TIP3      OH2           -20.4301887858      -23.7780457020        7.4171313663  W2        161             0.0000000000
       482       161  TIP3      H1            -21.2960787858      -23.8830757020        7.8113613663  W2        161             0.0000000000
       483       161  TIP3      H2            -20.0535987858      -23.0197157020        7.8636013663  W2        161             0.0000000000
       484       162  TIP3      OH2           -19.1292187858      -25.5216757020       -7.0686186337  W2        162             0.0000000000
       485       162  TIP3      H1            -18.2790787858      -25.1005857020       -6.9414586337  W2        162             0.0000000000
       486       162  TIP3      H2            -19.1237087858      -26.2616657020       -6.4614786337  W2        162             0.0000000000
       487       163  TIP3      OH2           -18.7346587858      -27.4679357020       -5.2450486337  W2        163             0.0000000000
       488       163  TIP3      H1            -19.4611987858      -27.9476757020       -4.8472886337  W2        163             0.0000000000
       489       163  TIP3      H2            -18.1533287858      -27.2624657020       -4.5128886337  W2        163             0.0000000000
       490       164  TIP3      OH2           -18.9755387858      -24.6831857020       -0.2972886337  W2        164             0.0000000000
       491       164  TIP3      H1            -18.1421187858      -25.0611857020       -0.5779286337  W2        164             0.0000000000
       492       164  TIP3      H2            -18.8635087858      -23.7400657020       -0.4163786337  W2        164             0.0000000000
       493       165  TIP3      OH2           -20.4893087858      -21.8054357020        2.0095513663  W2        165             0.0000000000
       494       165  TIP3      H1            -21.1367787858      -21.4802857020        2.6350713663  W2        165             0.0000000000
       495       165  TIP3      H2            -21.0069087858      -22.2456657020        1.3353813663  W2        165             0.0000000000
       496       166  TIP3      OH2           -18.4663487858      -27.5670857020       -8.8539186337  W2        166             0.0000000000
       497       166  TIP3      H1            -18.9882387858      -27.2106757020       -9.5728286337  W2        166             0.0000000000
       498       166  TIP3      H2            -18.4994287858      -26.8923057020       -8.1758286337  W2        166             0.0000000000
       499       167  TIP3      OH2           -20.1174487858      -30.3275257020      -10.3032086337  W2        167             0.0000000000
       500       167  TIP3      H1            -20.0210087858      -29.6608257020      -10.9832386337  W2        167             0.0000000000
       501       167  TIP3      H2            -20.2574887858      -31.1428957020      -10.7846586337  W2        167             0.0000000000
       502       168  TIP3      OH2           -20.9479787858      -28.9472857020       -4.6821786337  W2        168             0.0000000000
       503       168  TIP3      H1            -21.0980987858      -29.8924257020       -4.7023986337  W2        168             0.0000000000
       504       168  TIP3      H2            -21.3015287858      -28.6661457020       -3.8382686337  W2        168             0.0000000000
       505       169  TIP3      OH2           -35.9127387858      -26.8690657020       -0.6717986337  W2        169             0.0000000000
       506       169  TIP3      H1            -35.7284487858      -26.9508957020       -1.6075086337  W2        169             0.0000000000
       507       169  TIP3      H2            -35.0634487858      -26.9933657020       -0.2481586337  W2        169             0.0000000000
       508       170  TIP3      OH2           -20.0916887858      -26.9769557020        4.9566513663  W2        170             0.0000000000
       509       170  TIP3      H1            -19.5089587858      -27.7117257020        5.1483713663  W2        170             0.0000000000
       510       170  TIP3      H2            -19.5277587858      -26.2049257020        5.0032313663  W2        170             0.0000000000
       511       171  TIP3      OH2           -18.5949787858      -29.0743757020        5.6411913663  W2        171             0.0000000000
       512       171  TIP3      H1            -19.4583087858      -29.4531657020        5.4756613663  W2        171             0.0000000000
       513       171  TIP3      H2            -17.9906087858      -29.8128957020        5.5667713663  W2        171             0.0000000000
       514       172  TIP3      OH2           -20.8700687858      -32.9195457020      -11.1856586337  W2        172             0.0000000000
       515       172  TIP3      H1            -20.2594887858      -33.2908657020      -10.5488386337  W2        172             0.0000000000
       516       172  TIP3      H2            -21.7069187858      -33.3408557020      -10.9896586337  W2        172             0.0000000000
       517       173  TIP3      OH2           -21.2374987858      -31.3647057020       -6.2196686337  W2        173             0.0000000000
       518       173  TIP3      H1            -20.9577887858      -32.2716657020       -6.0954986337  W2        173             0.0000000000
       519       173  TIP3      H2            -20.4783287858      -30.9305557020       -6.6087486337  W2        173             0.0000000000
       520       174  TIP3      OH2           -20.6256687858      -30.7829657020       -0.7837786337  W2        174             0.0000000000
       521       174  TIP3      H1            -19.6928687858      -30.5709757020       -0.8181786337  W2        174             0.0000000000
       522       174  TIP3      H2            -20.8609187858      -30.6817557020        0.1385213663  W2        174             0.0000000000
       523       175  TIP3      OH2           -20.5964787858      -30.0464357020        1.9921613663  W2        175             0.0000000000
       524       175  TIP3      H1            -21.4393487858      -29.7783957020        2.3581413663  W2        175             0.0000000000
       525       175  TIP3      H2            -20.1540487858      -29.2242457020        1.7812713663  W2        175             0.0000000000
       526       176  TIP3      OH2           -36.3152587858      -31.5985657020        5.4690813663  W2        176             0.0000000000
       527       176  TIP3      H1            -35.3957687858      -31.7207357020        5.7053913663  W2        176             0.0000000000
       528       176  TIP3      H2            -36.7648087858      -32.3485957020        5.8584313663  W2        176             0.0000000000
       529       177  TIP3      OH2           -18.3133187858      -36.0664157020        7.3456613663  W2        177             0.0000000000
       530       177  TIP3      H1            -17.9636187858      -36.7200657020        6.7401313663  W2        177             0.0000000000
       531       177  TIP3      H2            -18.1663687858      -35.2290057020        6.9059213663  W2        177             0.0000000000
       532       178  TIP3      OH2           -20.6240187858      -34.1017757020       -6.1714686337  W2        178             0.0000000000
       533       178  TIP3      H1            -20.4415187858      -34.5506257020       -5.3459686337  W2        178             0.0000000000
       534       178  TIP3      H2            -21.2237287858      -34.6863357020       -6.6350086337  W2        178             0.0000000000
       535       179  TIP3      OH2           -35.0940087858      -33.2864057020       -1.6396286337  W2        179             0.0000000000
       536       179  TIP3      H1            -34.6488487858      -34.0781557020       -1.3376586337  W2        179             0.0000000000
       537       179  TIP3      H2            -34.6277087858      -32.5698857020       -1.2090686337  W2        179             0.0000000000
       538       180  TIP3      OH2           -36.7899787858      -30.2871057020       -0.5706086337  W2        180             0.0000000000
       539       180  TIP3      H1            -36.2979987858      -30.5080557020       -1.3614086337  W2        180             0.0000000000
       540       180  TIP3      H2            -36.4278887858      -29.4467657020       -0.2896586337  W2        180             0.0000000000
       541       181  TIP3      OH2           -18.7935987858      -33.9569557020        5.6947913663  W2        181             0.0000000000
       542       181  TIP3      H1            -19.7110287858      -33.6862457020        5.6591413663  W2        181             0.0000000000
       543       181  TIP3      H2            -18.6706587858      -34.4921157020        4.9107613663  W2        181             0.0000000000
       544       182  TIP3      OH2           -18.7573987858      -34.0339657020       -9.6434386337  W2        182             0.0000000000
       545       182  TIP3      H1            -18.3451387858      -34.7553957020      -10.1186386337  W2        182             0.0000000000
       546       182  TIP3      H2            -18.0757487858      -33.3645057020       -9.5850086337  W2        182             0.0000000000
       547       183  TIP3      OH2           -36.4763287858      -34.0291957020       -6.5163686337  W2        183             0.0000000000
       548       183  TIP3      H1            -37.4014887858      -33.8205357020       -6.6458186337  W2        183             0.0000000000
       549       183  TIP3      H2            -36.0223387858      -33.5451157020       -7.2061386337  W2        183             0.0000000000
       550       184  TIP3      OH2           -21.7056087858      -19.0450257020       -4.5706286337  W2        184             0.0000000000
       551       184  TIP3      H1            -21.0533187858      -19.3928157020       -5.1787186337  W2        184             0.0000000000
       552       184  TIP3      H2            -21.1952287858      -18.5567057020       -3.9246586337  W2        184             0.0000000000
       553       185  TIP3      OH2           -36.5127887858      -35.2912957020        1.8278813663  W2        185             0.0000000000
       554       185  TIP3      H1            -37.1777387858      -35.5372657020        2.4709713663  W2        185             0.0000000000
       555       185  TIP3      H2            -36.9556587858      -34.6692557020        1.2506813663  W2        185             0.0000000000
       556       186  TIP3      OH2           -34.3208587858      -22.1158857020        5.9724613663  W2        186             0.0000000000
       557       186  TIP3      H1            -35.1416087858      -21.9412357020        5.5119313663  W2        186             0.0000000000
       558       186  TIP3      H2            -34.5730787858      -22.1894157020        6.8929013663  W2        186             0.0000000000
       559       187  TIP3      OH2           -31.3665687858      -21.1417657020        2.2308613663  W2        187             0.0000000000
       560       187  TIP3      H1            -31.7914587858      -20.3319157020        1.9483213663  W2        187             0.0000000000
       561       187  TIP3      H2            -30.4622887858      -21.0563557020        1.9288413663  W2        187             0.0000000000
       562       188  TIP3      OH2           -27.0554287858      -19.7427657020        5.1902313663  W2        188             0.0000000000
       563       188  TIP3      H1            -26.8706787858      -20.0761557020        6.0682613663  W2        188             0.0000000000
       564       188  TIP3      H2            -26.2089787858      -19.4329057020        4.8681513663  W2        188             0.0000000000
       565       189  TIP3      OH2           -24.7103887858      -18.4568757020        4.4343713663  W2        189             0.0000000000
       566       189  TIP3      H1            -24.0334987858      -19.0896457020        4.1942913663  W2        189             0.0000000000
       567       189  TIP3      H2            -24.3885087858      -18.0558257020        5.2417013663  W2        189             0.0000000000
       568       190  TIP3      OH2           -19.7930087858      -35.8673257020        3.5138713663  W2        190             0.0000000000
       569       190  TIP3      H1            -20.6056587858      -35.5422957020        3.1263413663  W2        190             0.0000000000
       570       190  TIP3      H2            -19.5601587858      -36.6274757020        2.9807813663  W2        190             0.0000000000
       571       191  TIP3      OH2           -33.9648987858      -17.8853757020        2.2783913663  W2        191             0.0000000000
       572       191  TIP3      H1            -34.6852587858      -17.4452757020        1.8271613663  W2        191             0.0000000000
       573       191  TIP3      H2            -34.3304987858      -18.1359057020        3.1267913663  W2        191             0.0000000000
       574       192  TIP3      OH2           -31.4976387858      -18.2849857020        1.3081113663  W2        192             0.0000000000
       575       192  TIP3      H1            -32.3624187858      -18.2131357020        1.7121213663  W2        192             0.0000000000
       576       192  TIP3      H2            -31.5527387858      -17.7382557020        0.5243613663  W2        192             0.0000000000
       577       193  TIP3      OH2           -26.7870787858      -18.3970957020        0.4837113663  W2        193             0.0000000000
       578       193  TIP3      H1            -27.2436787858      -17.8681257020       -0.1704486337  W2        193             0.0000000000
       579       193  TIP3      H2            -26.6242787858      -17.7939557020        1.2089413663  W2        193             0.0000000000
       580       194  TIP3      OH2           -24.4594487858      -19.5191357020        1.4287413663  W2        194             0.0000000000
       581       194  TIP3      H1            -25.3640787858      -19.3541157020        1.1629513663  W2        194             0.0000000000
       582       194  TIP3      H2            -24.0305887858      -18.6659157020        1.3630813663  W2        194             0.0000000000
       583       195  TIP3      OH2           -21.8552587858      -17.9492257020        1.7235213663  W2        195             0.0000000000
       584       195  TIP3      H1            -22.0370587858      -17.0333357020        1.5130113663  W2        195             0.0000000000
       585       195  TIP3      H2            -21.6784787858      -18.3595157020        0.8769813663  W2        195             0.0000000000
       586       196  TIP3      OH2           -34.5500887858      -19.2621257020       -0.8114286337  W2        196             0.0000000000
       587       196  TIP3      H1            -34.5684887858      -19.6876157020        0.0458013663  W2        196             0.0000000000
       588       196  TIP3      H2            -33.7452987858      -19.5806257020       -1.2202086337  W2        196             0.0000000000
       589       197  TIP3      OH2           -32.4087787858      -20.5522557020       -2.1564386337  W2        197             0.0000000000
       590       197  TIP3      H1            -32.6277087858      -21.4685157020       -1.9868386337  W2        197             0.0000000000
       591       197  TIP3      H2            -31.5845587858      -20.4122157020       -1.6902986337  W2        197             0.0000000000
       592       198  TIP3      OH2           -29.8715287858      -20.0823257020       -1.3076386337  W2        198             0.0000000000
       593       198  TIP3      H1            -29.6589587858      -20.9704257020       -1.5945486337  W2        198             0.0000000000
       594       198  TIP3      H2            -29.8070187858      -20.1165557020       -0.3532386337  W2        198             0.0000000000
       595       199  TIP3      OH2           -26.3631587858      -34.4182657020       -2.1633086337  W2        199             0.0000000000
       596       199  TIP3      H1            -27.0374787858      -35.0477057020       -1.9077286337  W2        199             0.0000000000
       597       199  TIP3      H2            -25.7992387858      -34.9023757020       -2.7665186337  W2        199             0.0000000000
       598       200  TIP3      OH2           -21.2204387858      -36.3108657020       -2.0505986337  W2        200             0.0000000000
       599       200  TIP3      H1            -20.6166787858      -35.7633257020       -2.5524986337  W2        200             0.0000000000
       600       200  TIP3      H2            -22.0902387858      -35.9918257020       -2.2911886337  W2        200             0.0000000000
       601       201  TIP3      OH2           -19.4933987858      -35.1719957020       -3.7175086337  W2        201             0.0000000000
       602       201  TIP3      H1            -18.8816487858      -35.6864257020       -4.2441486337  W2        201             0.0000000000
       603       201  TIP3      H2            -19.1110587858      -34.2947857020       -3.6940686337  W2        201             0.0000000000
       604       202  TIP3      OH2           -34.0364087858      -35.7842357020       -4.3413186337  W2        202             0.0000000000
       605       202  TIP3      H1            -34.8134287858      -36.0187457020       -4.8487286337  W2        202             0.0000000000
       606       202  TIP3      H2            -33.5060487858      -36.5810257020       -4.3325186337  W2        202             0.0000000000
       607       203  TIP3      OH2           -35.2000687858      -35.9864257020       -8.5377086337  W2        203             0.0000000000
       608       203  TIP3      H1            -34.7609987858      -35.3753757020       -9.1293586337  W2        203             0.0000000000
       609       203  TIP3      H2            -35.8338287858      -35.4480157020       -8.0637086337  W2        203             0.0000000000
       610       204  TIP3      OH2           -29.4571487858      -35.8575257020       -4.5280086337  W2        204             0.0000000000
       611       204  TIP3      H1            -28.5828087858      -35.4690957020       -4.5575786337  W2        204             0.0000000000
       612       204  TIP3      H2            -29.5930687858      -36.0727457020       -3.6052886337  W2        204             0.0000000000
       613       205  TIP3      OH2           -23.9003087858      -35.8275457020       -2.8788386337  W2        205             0.0000000000
       614       205  TIP3      H1            -23.8241487858      -35.7323857020       -3.8282386337  W2        205             0.0000000000
       615       205  TIP3      H2            -24.1753887858      -36.7352557020       -2.7499286337  W2        205             0.0000000000
       616       206  TIP3      OH2           -22.5470487858      -35.8017657020       -7.1863386337  W2        206             0.0000000000
       617       206  TIP3      H1            -23.2499387858      -35.1868457020       -7.3961986337  W2        206             0.0000000000
       618       206  TIP3      H2            -22.9919087858      -36.6390957020       -7.0552486337  W2        206             0.0000000000
       619       207  TIP3      OH2           -35.2991187858      -20.0382057020       -7.6401986337  W2        207             0.0000000000
       620       207  TIP3      H1            -35.9841287858      -20.0763157020       -8.3076886337  W2        207             0.0000000000
       621       207  TIP3      H2            -35.2953987858      -19.1254457020       -7.3519886337  W2        207             0.0000000000
       622       208  TIP3      OH2           -33.3391587858      -34.0702757020      -10.0952986337  W2        208             0.0000000000
       623       208  TIP3      H1            -32.8478187858      -34.7000357020      -10.6227486337  W2        208             0.0000000000
       624       208  TIP3      H2            -32.7155287858      -33.7743357020       -9.4321786337  W2        208             0.0000000000
       625       209  TIP3      OH2           -28.3131487858      -33.7771257020       -7.6382486337  W2        209             0.0000000000
       626       209  TIP3      H1            -28.1350187858      -34.4238057020       -6.9553886337  W2        209             0.0000000000
       627       209  TIP3      H2            -28.3665287858      -32.9433557020       -7.1711386337  W2        209             0.0000000000
       628       210  TIP3      OH2           -26.4347687858      -18.8287157020       -9.2425786337  W2        210             0.0000000000
       629       210  TIP3      H1            -25.5687487858      -18.4619757020       -9.4207586337  W2        210             0.0000000000
       630       210  TIP3      H2            -26.6814887858      -19.2679157020      -10.0564986337  W2        210             0.0000000000
       631       211  TIP3      OH2           -19.7258087858      -19.2656857020       -6.5634686337  W2        211             0.0000000000
       632       211  TIP3      H1            -19.9200987858      -20.0134757020       -7.1285086337  W2        211             0.0000000000
       633       211  TIP3      H2            -19.7647987858      -18.5076757020       -7.1466786337  W2        211             0.0000000000
       634       212  TIP3      OH2           -34.0786087858      -35.2700457020        5.1763013663  W2        212             0.0000000000
       635       212  TIP3      H1            -34.4447887858      -36.0357857020        5.6187713663  W2        212             0.0000000000
       636       212  TIP3      H2            -33.1657587858      -35.2410257020        5.4628113663  W2        212             0.0000000000
       637       213  TIP3      OH2           -32.1055287858      -35.9196057020        6.7120113663  W2        213             0.0000000000
       638       213  TIP3      H1            -31.2071687858      -36.1935857020        6.5273513663  W2        213             0.0000000000
       639       213  TIP3      H2            -32.4922187858      -36.6620057020        7.1762713663  W2        213             0.0000000000
       640       214  TIP3      OH2           -33.4809987858      -19.1181257020      -10.6149886337  W2        214             0.0000000000
       641       214  TIP3      H1            -33.7485387858      -18.8318357020       -9.7416786337  W2        214             0.0000000000
       642       214  TIP3      H2            -32.7097387858      -19.6642057020      -10.4627386337  W2        214             0.0000000000
       643       215  TIP3      OH2           -23.6842987858      -36.5870757020        6.8942913663  W2        215             0.0000000000
       644       215  TIP3      H1            -23.6075787858      -37.0130057020        7.7480613663  W2        215             0.0000000000
       645       215  TIP3      H2            -22.7906387858      -36.5736057020        6.5516413663  W2        215             0.0000000000
       646       216  TIP3      OH2           -20.5081887858      -20.5144457020        5.5867113663  W2        216             0.0000000000
       647       216  TIP3      H1            -21.2899987858      -20.7006457020        5.0667713663  W2        216             0.0000000000
       648       216  TIP3      H2            -20.5801987858      -19.5850157020        5.8039613663  W2        216             0.0000000000
       649       217  TIP3      OH2            -6.1021487858      -26.6280057020       -4.3825686337  W2        217             0.0000000000
       650       217  TIP3      H1             -6.0130387858      -25.6841857020       -4.5148586337  W2        217             0.0000000000
       651       217  TIP3      H2             -6.7403887858      -26.9033657020       -5.0406286337  W2        217             0.0000000000
       652       218  TIP3      OH2            -7.1690187858      -27.3729357020       -0.9637486337  W2        218             0.0000000000
       653       218  TIP3      H1             -7.2072687858      -28.0193057020       -0.2587886337  W2        218             0.0000000000
       654       218  TIP3      H2             -7.4913687858      -27.8394957020       -1.7348786337  W2        218             0.0000000000
       655       219  TIP3      OH2           -14.8005187858      -27.7587257020        0.6292413663  W2        219             0.0000000000
       656       219  TIP3      H1            -14.7593087858      -28.3843957020        1.3524813663  W2        219             0.0000000000
       657       219  TIP3      H2            -14.0977487858      -27.1348657020        0.8112813663  W2        219             0.0000000000
       658       220  TIP3      OH2            -3.4629987858      -24.4338957020       -2.6622386337  W2        220             0.0000000000
       659       220  TIP3      H1             -3.9037287858      -25.1542957020       -2.2116786337  W2        220             0.0000000000
       660       220  TIP3      H2             -3.4760287858      -23.7131757020       -2.0324686337  W2        220             0.0000000000
       661       221  TIP3      OH2           -13.8772087858      -23.3088357020       -0.8358486337  W2        221             0.0000000000
       662       221  TIP3      H1            -14.2466887858      -24.1107857020       -1.2054186337  W2        221             0.0000000000
       663       221  TIP3      H2            -12.9360987858      -23.4773457020       -0.7895086337  W2        221             0.0000000000
       664       222  TIP3      OH2           -17.2671587858      -29.6485757020       -5.4429686337  W2        222             0.0000000000
       665       222  TIP3      H1            -17.7148187858      -28.8027057020       -5.4613186337  W2        222             0.0000000000
       666       222  TIP3      H2            -17.8280387858      -30.2281557020       -5.9584586337  W2        222             0.0000000000
       667       223  TIP3      OH2           -16.5565487858      -27.4866157020       -3.3171686337  W2        223             0.0000000000
       668       223  TIP3      H1            -16.3431987858      -28.2564557020       -2.7898686337  W2        223             0.0000000000
       669       223  TIP3      H2            -15.8187887858      -27.3969457020       -3.9204086337  W2        223             0.0000000000
       670       224  TIP3      OH2            -6.3514487858      -19.3297257020       -2.4501986337  W2        224             0.0000000000
       671       224  TIP3      H1             -5.7318087858      -20.0062557020       -2.7232786337  W2        224             0.0000000000
       672       224  TIP3      H2             -6.5597087858      -19.5476457020       -1.5417086337  W2        224             0.0000000000
       673       225  TIP3      OH2            -8.7795787858      -24.9407957020       -0.5576486337  W2        225             0.0000000000
       674       225  TIP3      H1             -8.4757887858      -25.6266557020       -1.1522386337  W2        225             0.0000000000
       675       225  TIP3      H2             -8.0581787858      -24.8219257020        0.0601513663  W2        225             0.0000000000
       676       226  TIP3      OH2            -0.1165987858      -33.3392657020        0.3029713663  W2        226             0.0000000000
       677       226  TIP3      H1             -0.0673787858      -32.7291457020        1.0388813663  W2        226             0.0000000000
       678       226  TIP3      H2              0.3089112142      -32.8781757020       -0.4199186337  W2        226             0.0000000000
       679       227  TIP3      OH2            -5.6388787858      -30.5465557020       -0.2301686337  W2        227             0.0000000000
       680       227  TIP3      H1             -5.4962887858      -31.4928557020       -0.2100086337  W2        227             0.0000000000
       681       227  TIP3      H2             -5.7449787858      -30.3395757020       -1.1586786337  W2        227             0.0000000000
       682       228  TIP3      OH2           -12.4840487858      -32.4449157020       -2.9576886337  W2        228             0.0000000000
       683       228  TIP3      H1            -12.4409387858      -31.5850657020       -3.3760586337  W2        228             0.0000000000
       684       228  TIP3      H2            -12.9416387858      -32.9974457020       -3.5913686337  W2        228             0.0000000000
       685       229  TIP3      OH2            -4.7617787858      -32.3143557020       -4.5568586337  W2        229             0.0000000000
       686       229  TIP3      H1             -4.1153487858      -32.6430357020       -3.9320986337  W2        229             0.0000000000
       687       229  TIP3      H2             -4.2518387858      -31.7964557020       -5.1797186337  W2        229             0.0000000000
       688       230  TIP3      OH2           -15.8638987858      -30.0483357020       -2.1955486337  W2        230             0.0000000000
       689       230  TIP3      H1            -15.2102387858      -30.5981657020       -1.7635386337  W2        230             0.0000000000
       690       230  TIP3      H2            -15.8399687858      -30.3224357020       -3.1123486337  W2        230             0.0000000000
       691       231  TIP3      OH2           -10.7074487858      -28.4982057020       -2.9803986337  W2        231             0.0000000000
       692       231  TIP3      H1            -10.0913487858      -29.0246657020       -2.4709986337  W2        231             0.0000000000
       693       231  TIP3      H2            -11.2935687858      -29.1383357020       -3.3840386337  W2        231             0.0000000000
       694       232  TIP3      OH2             0.2748612142      -31.8613457020        2.5389513663  W2        232             0.0000000000
       695       232  TIP3      H1             -0.4136787858      -31.2032757020        2.4436113663  W2        232             0.0000000000
       696       232  TIP3      H2              0.2903212142      -32.0585557020        3.4754913663  W2        232             0.0000000000
       697       233  TIP3      OH2           -13.6738587858      -33.5270757020        1.1163913663  W2        233             0.0000000000
       698       233  TIP3      H1            -13.8926887858      -32.9970157020        0.3499913663  W2        233             0.0000000000
       699       233  TIP3      H2            -14.3417687858      -33.3005257020        1.7635313663  W2        233             0.0000000000
       700       234  TIP3      OH2            -6.3048787858      -24.0269657020       -5.3396986337  W2        234             0.0000000000
       701       234  TIP3      H1             -6.6003687858      -24.3497357020       -6.1910086337  W2        234             0.0000000000
       702       234  TIP3      H2             -6.6290987858      -23.1272957020       -5.2984386337  W2        234             0.0000000000
       703       235  TIP3      OH2           -11.1047187858      -25.8515057020        1.4037613663  W2        235             0.0000000000
       704       235  TIP3      H1            -11.8448087858      -25.2533557020        1.5072813663  W2        235             0.0000000000
       705       235  TIP3      H2            -10.3907687858      -25.2975457020        1.0881213663  W2        235             0.0000000000
       706       236  TIP3      OH2            -2.9979387858      -33.0234257020       -2.5762686337  W2        236             0.0000000000
       707       236  TIP3      H1             -3.2131387858      -33.7890857020       -2.0436686337  W2        236             0.0000000000
       708       236  TIP3      H2             -2.3421987858      -32.5509657020       -2.0634186337  W2        236             0.0000000000
       709       237  TIP3      OH2           -14.0801287858      -31.6348957020       -0.9313886337  W2        237             0.0000000000
       710       237  TIP3      H1            -13.4664987858      -31.0021357020       -0.5581486337  W2        237             0.0000000000
       711       237  TIP3      H2            -13.5680587858      -32.1073957020       -1.5876986337  W2        237             0.0000000000
       712       238  TIP3      OH2           -12.6972887858      -23.8872057020        2.1909113663  W2        238             0.0000000000
       713       238  TIP3      H1            -12.7025287858      -23.0078557020        1.8128413663  W2        238             0.0000000000
       714       238  TIP3      H2            -13.5508787858      -23.9707957020        2.6159013663  W2        238             0.0000000000
       715       239  TIP3      OH2           -16.5761987858      -24.2164157020       -7.0271586337  W2        239             0.0000000000
       716       239  TIP3      H1            -16.8481087858      -23.9873157020       -7.9158686337  W2        239             0.0000000000
       717       239  TIP3      H2            -16.5306287858      -23.3785357020       -6.5666286337  W2        239             0.0000000000
       718       240  TIP3      OH2            -2.9512287858      -22.5948257020       -0.3143086337  W2        240             0.0000000000
       719       240  TIP3      H1             -3.8928587858      -22.5364357020       -0.1526186337  W2        240             0.0000000000
       720       240  TIP3      H2             -2.6746187858      -21.6887757020       -0.4513386337  W2        240             0.0000000000
       721       241  TIP3      OH2            -2.6505287858      -34.3082957020        1.1030813663  W2        241             0.0000000000
       722       241  TIP3      H1             -3.3866087858      -33.6975857020        1.0652113663  W2        241             0.0000000000
       723       241  TIP3      H2             -1.9671287858      -33.8933957020        0.5767213663  W2        241             0.0000000000
       724       242  TIP3      OH2            -9.6473887858      -36.2215657020       -1.4311186337  W2        242             0.0000000000
       725       242  TIP3      H1             -9.7649687858      -37.1699657020       -1.4852886337  W2        242             0.0000000000
       726       242  TIP3      H2            -10.5023787858      -35.8889557020       -1.1580086337  W2        242             0.0000000000
       727       243  TIP3      OH2            -4.6991087858      -20.8134757020       -3.6891486337  W2        243             0.0000000000
       728       243  TIP3      H1             -4.2738787858      -21.5206857020       -4.1741886337  W2        243             0.0000000000
       729       243  TIP3      H2             -4.3821087858      -20.0122057020       -4.1059286337  W2        243             0.0000000000
       730       244  TIP3      OH2            -3.5394587858      -22.9126257020       -5.1804886337  W2        244             0.0000000000
       731       244  TIP3      H1             -3.7969787858      -23.6026157020       -5.7918986337  W2        244             0.0000000000
       732       244  TIP3      H2             -3.4683787858      -23.3555057020       -4.3348986337  W2        244             0.0000000000
       733       245  TIP3      OH2            -1.8534387858      -24.3459557020        3.2968613663  W2        245             0.0000000000
       734       245  TIP3      H1             -1.7138087858      -24.9377057020        2.5575613663  W2        245             0.0000000000
       735       245  TIP3      H2             -1.6861587858      -23.4733657020        2.9407413663  W2        245             0.0000000000
       736       246  TIP3      OH2            -7.3808987858      -27.3840057020       -6.9305386337  W2        246             0.0000000000
       737       246  TIP3      H1             -8.0923487858      -26.8490357020       -7.2824886337  W2        246             0.0000000000
       738       246  TIP3      H2             -6.6899387858      -27.3287957020       -7.5906486337  W2        246             0.0000000000
       739       247  TIP3      OH2            -7.3269787858      -28.9265757020       -9.8920386337  W2        247             0.0000000000
       740       247  TIP3      H1             -6.6259887858      -28.9038857020       -9.2406386337  W2        247             0.0000000000
       741       247  TIP3      H2             -7.0246887858      -29.5546057020      -10.5481086337  W2        247             0.0000000000
       742       248  TIP3      OH2            -0.0115087858      -28.0061557020        1.3629013663  W2        248             0.0000000000
       743       248  TIP3      H1             -0.6640987858      -27.3115957020        1.4519913663  W2        248             0.0000000000
       744       248  TIP3      H2              0.4535212142      -27.7960657020        0.5530613663  W2        248             0.0000000000
       745       249  TIP3      OH2            -3.9751287858      -27.1746757020       -5.9789486337  W2        249             0.0000000000
       746       249  TIP3      H1             -4.7070287858      -26.9463057020       -5.4058886337  W2        249             0.0000000000
       747       249  TIP3      H2             -3.5279087858      -27.8884057020       -5.5241986337  W2        249             0.0000000000
       748       250  TIP3      OH2            -4.0777787858      -29.0004157020        3.0887513663  W2        250             0.0000000000
       749       250  TIP3      H1             -3.9978687858      -28.2369757020        3.6606013663  W2        250             0.0000000000
       750       250  TIP3      H2             -4.6790087858      -28.7211757020        2.3982613663  W2        250             0.0000000000
       751       251  TIP3      OH2           -12.3297587858      -26.5440557020       -4.0964486337  W2        251             0.0000000000
       752       251  TIP3      H1            -12.6602387858      -26.9147157020       -4.9147486337  W2        251             0.0000000000
       753       251  TIP3      H2            -11.7413487858      -27.2146557020       -3.7496186337  W2        251             0.0000000000
       754       252  TIP3      OH2           -10.9630087858      -23.1159957020       -1.4152286337  W2        252             0.0000000000
       755       252  TIP3      H1            -11.0578787858      -23.6946857020       -2.1717686337  W2        252             0.0000000000
       756       252  TIP3      H2            -10.2336487858      -23.4874257020       -0.9189486337  W2        252             0.0000000000
       757       253  TIP3      OH2           -11.9632087858      -27.7754957020       -0.4629486337  W2        253             0.0000000000
       758       253  TIP3      H1            -11.3979587858      -27.6540757020       -1.2258286337  W2        253             0.0000000000
       759       253  TIP3      H2            -11.6443187858      -27.1379957020        0.1759013663  W2        253             0.0000000000
       760       254  TIP3      OH2            -5.6539887858      -22.2723057020        0.2711013663  W2        254             0.0000000000
       761       254  TIP3      H1             -5.8943287858      -21.6099957020        0.9190213663  W2        254             0.0000000000
       762       254  TIP3      H2             -5.8521687858      -23.1067857020        0.6960613663  W2        254             0.0000000000
       763       255  TIP3      OH2           -11.0831387858      -23.3762257020        4.2542413663  W2        255             0.0000000000
       764       255  TIP3      H1            -11.3943887858      -22.5939057020        4.7095613663  W2        255             0.0000000000
       765       255  TIP3      H2            -11.7331187858      -23.5293157020        3.5684413663  W2        255             0.0000000000
       766       256  TIP3      OH2            -5.1041787858      -28.0123857020       -8.2938286337  W2        256             0.0000000000
       767       256  TIP3      H1             -4.5246287858      -27.8623557020       -7.5469386337  W2        256             0.0000000000
       768       256  TIP3      H2             -4.6901787858      -27.5416457020       -9.0171886337  W2        256             0.0000000000
       769       257  TIP3      OH2           -14.1631487858      -27.1781157020        3.4828113663  W2        257             0.0000000000
       770       257  TIP3      H1            -14.0928287858      -26.5274357020        4.1813113663  W2        257             0.0000000000
       771       257  TIP3      H2            -15.0539287858      -27.0753657020        3.1479013663  W2        257             0.0000000000
       772       258  TIP3      OH2            -7.3776887858      -21.2755357020       -4.8585186337  W2        258             0.0000000000
       773       258  TIP3      H1             -6.9039287858      -20.9799057020       -4.0810986337  W2        258             0.0000000000
       774       258  TIP3      H2             -7.9407587858      -20.5373757020       -5.0915586337  W2        258             0.0000000000
       775       259  TIP3      OH2           -12.8435487858      -21.3047257020        5.0176213663  W2        259             0.0000000000
       776       259  TIP3      H1            -12.8360187858      -21.4407557020        4.0701713663  W2        259             0.0000000000
       777       259  TIP3      H2            -13.7595087858      -21.4219157020        5.2696213663  W2        259             0.0000000000
       778       260  TIP3      OH2            -1.4053387858      -36.2623457020       -8.4808586337  W2        260             0.0000000000
       779       260  TIP3      H1             -2.3052687858      -36.1234457020       -8.1857986337  W2        260             0.0000000000
       780       260  TIP3      H2             -1.1534987858      -35.4308857020       -8.8826886337  W2        260             0.0000000000
       781       261  TIP3      OH2           -13.3394887858      -27.4746257020       -6.5071686337  W2        261             0.0000000000
       782       261  TIP3      H1            -13.6313587858      -26.7064557020       -6.9980386337  W2        261             0.0000000000
       783       261  TIP3      H2            -14.0139687858      -28.1340057020       -6.6700286337  W2        261             0.0000000000
       784       262  TIP3      OH2            -0.2161987858      -21.8961057020      -10.1044686337  W2        262             0.0000000000
       785       262  TIP3      H1             -0.1428487858      -20.9570857020       -9.9339386337  W2        262             0.0000000000
       786       262  TIP3      H2              0.6893112142      -22.2012457020      -10.1607386337  W2        262             0.0000000000
       787       263  TIP3      OH2           -17.2464787858      -25.1117057020        2.3078113663  W2        263             0.0000000000
       788       263  TIP3      H1            -17.7476387858      -25.1397657020        1.4927813663  W2        263             0.0000000000
       789       263  TIP3      H2            -17.2411087858      -26.0173857020        2.6175413663  W2        263             0.0000000000
       790       264  TIP3      OH2           -17.4962087858      -22.3313257020       -0.8081686337  W2        264             0.0000000000
       791       264  TIP3      H1            -16.5501487858      -22.4756257020       -0.8272186337  W2        264             0.0000000000
       792       264  TIP3      H2            -17.6085787858      -21.5470457020       -0.2710486337  W2        264             0.0000000000
       793       265  TIP3      OH2             0.7016412142      -21.6653557020        4.8742013663  W2        265             0.0000000000
       794       265  TIP3      H1              0.6523212142      -22.6205457020        4.8369613663  W2        265             0.0000000000
       795       265  TIP3      H2             -0.1251287858      -21.3978257020        5.2755813663  W2        265             0.0000000000
       796       266  TIP3      OH2            -8.3199587858      -22.0914357020        3.7503413663  W2        266             0.0000000000
       797       266  TIP3      H1             -8.2324987858      -21.2649757020        4.2252513663  W2        266             0.0000000000
       798       266  TIP3      H2             -9.1834487858      -22.4210557020        3.9992713663  W2        266             0.0000000000
       799       267  TIP3      OH2            -7.9053787858      -18.3190657020       -6.4435986337  W2        267             0.0000000000
       800       267  TIP3      H1             -7.9807787858      -18.4403457020       -7.3900786337  W2        267             0.0000000000
       801       267  TIP3      H2             -7.8725087858      -17.3697957020       -6.3251386337  W2        267             0.0000000000
       802       268  TIP3      OH2           -14.2519987858      -19.5303657020       -4.6626986337  W2        268             0.0000000000
       803       268  TIP3      H1            -14.0999587858      -19.8783257020       -3.7840486337  W2        268             0.0000000000
       804       268  TIP3      H2            -15.1029587858      -19.8866357020       -4.9179786337  W2        268             0.0000000000
       805       269  TIP3      OH2            -4.8037787858      -19.1650457020       -9.4413586337  W2        269             0.0000000000
       806       269  TIP3      H1             -4.4289387858      -19.9094357020       -9.9120986337  W2        269             0.0000000000
       807       269  TIP3      H2             -4.7994087858      -19.4349857020       -8.5230286337  W2        269             0.0000000000
       808       270  TIP3      OH2            -5.1349687858      -19.2393357020       -6.6921386337  W2        270             0.0000000000
       809       270  TIP3      H1             -6.0699887858      -19.1391457020       -6.5134386337  W2        270             0.0000000000
       810       270  TIP3      H2             -4.8547787858      -19.9487357020       -6.1138186337  W2        270             0.0000000000
       811       271  TIP3      OH2            -2.1463787858      -30.1721057020        5.3544213663  W2        271             0.0000000000
       812       271  TIP3      H1             -2.5536987858      -29.6915457020        4.6337513663  W2        271             0.0000000000
       813       271  TIP3      H2             -2.1058087858      -31.0775057020        5.0465013663  W2        271             0.0000000000
       814       272  TIP3      OH2           -14.9974287858      -23.7881657020        3.3510913663  W2        272             0.0000000000
       815       272  TIP3      H1            -14.7812987858      -24.1496057020        4.2106713663  W2        272             0.0000000000
       816       272  TIP3      H2            -15.8529587858      -24.1627857020        3.1414413663  W2        272             0.0000000000
       817       273  TIP3      OH2           -12.3786287858      -35.3181157020       -0.6534886337  W2        273             0.0000000000
       818       273  TIP3      H1            -13.2402587858      -35.4052957020       -1.0611986337  W2        273             0.0000000000
       819       273  TIP3      H2            -12.4010587858      -34.4621057020       -0.2257286337  W2        273             0.0000000000
       820       274  TIP3      OH2            -7.7158487858      -35.5960757020        2.7212113663  W2        274             0.0000000000
       821       274  TIP3      H1             -7.2955387858      -36.0113657020        3.4742713663  W2        274             0.0000000000
       822       274  TIP3      H2             -8.6488887858      -35.7747457020        2.8384113663  W2        274             0.0000000000
       823       275  TIP3      OH2            -4.3893587858      -31.8405557020        3.5746613663  W2        275             0.0000000000
       824       275  TIP3      H1             -4.9034087858      -31.9663357020        4.3722613663  W2        275             0.0000000000
       825       275  TIP3      H2             -4.5448887858      -30.9282457020        3.3302813663  W2        275             0.0000000000
       826       276  TIP3      OH2            -3.6268687858      -26.9795557020      -10.6640386337  W2        276             0.0000000000
       827       276  TIP3      H1             -3.5847887858      -27.2021657020      -11.5940386337  W2        276             0.0000000000
       828       276  TIP3      H2             -2.7776587858      -26.5808457020      -10.4740486337  W2        276             0.0000000000
       829       277  TIP3      OH2            -8.0541187858      -33.1037357020       -9.9937086337  W2        277             0.0000000000
       830       277  TIP3      H1             -8.3076387858      -33.0845757020       -9.0708986337  W2        277             0.0000000000
       831       277  TIP3      H2             -8.3109087858      -33.9751957020      -10.2950886337  W2        277             0.0000000000
       832       278  TIP3      OH2           -12.2876187858      -30.3526657020        0.4415313663  W2        278             0.0000000000
       833       278  TIP3      H1            -12.9294087858      -30.3929357020        1.1505413663  W2        278             0.0000000000
       834       278  TIP3      H2            -12.2504187858      -29.4261957020        0.2038313663  W2        278             0.0000000000
       835       279  TIP3      OH2           -12.2907087858      -30.1316557020       -4.6464686337  W2        279             0.0000000000
       836       279  TIP3      H1            -13.1834187858      -30.4720457020       -4.7050886337  W2        279             0.0000000000
       837       279  TIP3      H2            -11.8400487858      -30.5085657020       -5.4021486337  W2        279             0.0000000000
       838       280  TIP3      OH2            -6.7551587858      -29.7156257020       -5.8293886337  W2        280             0.0000000000
       839       280  TIP3      H1             -7.1641287858      -28.9007657020       -6.1209086337  W2        280             0.0000000000
       840       280  TIP3      H2             -6.0345387858      -29.8556157020       -6.4436786337  W2        280             0.0000000000
       841       281  TIP3      OH2            -7.6529987858      -29.5399857020        5.6586813663  W2        281             0.0000000000
       842       281  TIP3      H1             -8.2156187858      -30.2448257020        5.9794613663  W2        281             0.0000000000
       843       281  TIP3      H2             -6.8266587858      -29.6607957020        6.1264413663  W2        281             0.0000000000
       844       282  TIP3      OH2            -5.7503887858      -30.2695857020       -3.0154186337  W2        282             0.0000000000
       845       282  TIP3      H1             -5.9459387858      -29.6639057020       -3.7303586337  W2        282             0.0000000000
       846       282  TIP3      H2             -5.5691287858      -31.1030657020       -3.4497886337  W2        282             0.0000000000
       847       283  TIP3      OH2           -14.5375687858      -30.0323157020        2.3087313663  W2        283             0.0000000000
       848       283  TIP3      H1            -14.5756287858      -29.6321557020        3.1774413663  W2        283             0.0000000000
       849       283  TIP3      H2            -15.0284587858      -30.8490757020        2.3990213663  W2        283             0.0000000000
       850       284  TIP3      OH2           -11.1718287858      -32.6580857020      -10.8926686337  W2        284             0.0000000000
       851       284  TIP3      H1            -11.6027587858      -33.1030757020      -10.1629286337  W2        284             0.0000000000
       852       284  TIP3      H2            -11.8899587858      -32.2864557020      -11.4049186337  W2        284             0.0000000000
       853       285  TIP3      OH2           -17.9294887858      -32.9161357020       -3.8407986337  W2        285             0.0000000000
       854       285  TIP3      H1            -17.2987187858      -32.9449257020       -3.1214086337  W2        285             0.0000000000
       855       285  TIP3      H2            -17.4800587858      -33.3412657020       -4.5712086337  W2        285             0.0000000000
       856       286  TIP3      OH2           -16.6552787858      -32.1699357020       -8.4167586337  W2        286             0.0000000000
       857       286  TIP3      H1            -16.1811087858      -31.5789457020       -9.0016686337  W2        286             0.0000000000
       858       286  TIP3      H2            -17.3726387858      -31.6396457020       -8.0697486337  W2        286             0.0000000000
       859       287  TIP3      OH2            -6.4864687858      -28.6314557020        1.6558213663  W2        287             0.0000000000
       860       287  TIP3      H1             -6.1629887858      -29.2624857020        1.0128713663  W2        287             0.0000000000
       861       287  TIP3      H2             -6.9265387858      -29.1662357020        2.3165613663  W2        287             0.0000000000
       862       288  TIP3      OH2            -9.7091787858      -32.7039057020       -3.5600586337  W2        288             0.0000000000
       863       288  TIP3      H1            -10.6200687858      -32.6472257020       -3.2714586337  W2        288             0.0000000000
       864       288  TIP3      H2             -9.2038887858      -32.7643557020       -2.7493386337  W2        288             0.0000000000
       865       289  TIP3      OH2           -14.8808387858      -31.0752757020       -4.7332986337  W2        289             0.0000000000
       866       289  TIP3      H1            -15.7700387858      -30.9757257020       -5.0733386337  W2        289             0.0000000000
       867       289  TIP3      H2            -14.5843487858      -31.9169757020       -5.0795086337  W2        289             0.0000000000
       868       290  TIP3      OH2           -11.2276587858      -31.0750157020       -7.0768386337  W2        290             0.0000000000
       869       290  TIP3      H1            -10.2961087858      -30.9460157020       -6.8985286337  W2        290             0.0000000000
       870       290  TIP3      H2            -11.4426287858      -30.4055857020       -7.7263686337  W2        290             0.0000000000
       871       291  TIP3      OH2            -5.3039887858      -33.4692757020       -0.2958786337  W2        291             0.0000000000
       872       291  TIP3      H1             -5.9808287858      -33.3379657020        0.3680913663  W2        291             0.0000000000
       873       291  TIP3      H2             -5.7894987858      -33.6243257020       -1.1061086337  W2        291             0.0000000000
       874       292  TIP3      OH2           -12.5536387858      -29.8807957020       -9.5102286337  W2        292             0.0000000000
       875       292  TIP3      H1            -13.0961287858      -30.2604157020      -10.2014686337  W2        292             0.0000000000
       876       292  TIP3      H2            -11.7201487858      -29.6863257020       -9.9388186337  W2        292             0.0000000000
       877       293  TIP3      OH2            -2.0164787858      -17.7977357020        5.9808813663  W2        293             0.0000000000
       878       293  TIP3      H1             -1.8166087858      -17.3735457020        5.1464113663  W2        293             0.0000000000
       879       293  TIP3      H2             -1.3611087858      -17.4539157020        6.5879213663  W2        293             0.0000000000
       880       294  TIP3      OH2           -14.4184987858      -25.3236057020        5.5889313663  W2        294             0.0000000000
       881       294  TIP3      H1            -13.6862587858      -25.0690157020        6.1503813663  W2        294             0.0000000000
       882       294  TIP3      H2            -15.1986287858      -25.1190657020        6.1044713663  W2        294             0.0000000000
       883       295  TIP3      OH2            -8.3892087858      -29.9166057020       -1.6730986337  W2        295             0.0000000000
       884       295  TIP3      H1             -7.8248687858      -30.4629457020       -2.2201386337  W2        295             0.0000000000
       885       295  TIP3      H2             -8.5368687858      -30.4384157020       -0.8843386337  W2        295             0.0000000000
       886       296  TIP3      OH2           -13.3872387858      -33.7799957020       -5.2546186337  W2        296             0.0000000000
       887       296  TIP3      H1            -13.7042887858      -34.6824657020       -5.2900786337  W2        296             0.0000000000
       888       296  TIP3      H2            -12.6058287858      -33.7782557020       -5.8074586337  W2        296             0.0000000000
       889       297  TIP3      OH2            -9.7626187858      -31.5279957020        0.7409413663  W2        297             0.0000000000
       890       297  TIP3      H1            -10.5980887858      -31.0740457020        0.8511813663  W2        297             0.0000000000
       891       297  TIP3      H2             -9.2385587858      -31.2521457020        1.4929313663  W2        297             0.0000000000
       892       298  TIP3      OH2            -9.2183587858      -25.3152257020       -7.5744186337  W2        298             0.0000000000
       893       298  TIP3      H1             -9.9632587858      -25.8226957020       -7.8966286337  W2        298             0.0000000000
       894       298  TIP3      H2             -9.3526387858      -25.2664257020       -6.6279386337  W2        298             0.0000000000
       895       299  TIP3      OH2            -2.0684687858      -26.1824057020        1.2123413663  W2        299             0.0000000000
       896       299  TIP3      H1             -1.4265887858      -25.7257757020        0.6685613663  W2        299             0.0000000000
       897       299  TIP3      H2             -2.8987787858      -26.0691657020        0.7497513663  W2        299             0.0000000000
       898       300  TIP3      OH2            -5.3206787858      -32.5012357020       -9.3751586337  W2        300             0.0000000000
       899       300  TIP3      H1             -6.2592587858      -32.3896757020       -9.5262786337  W2        300             0.0000000000
       900       300  TIP3      H2             -5.0234687858      -31.6445457020       -9.0685886337  W2        300             0.0000000000
       901       301  TIP3      OH2            -7.6991487858      -25.1308957020        3.6624913663  W2        301             0.0000000000
       902       301  TIP3      H1             -8.0445387858      -25.5126557020        4.4694513663  W2        301             0.0000000000
       903       301  TIP3      H2             -7.8991387858      -24.1975357020        3.7337813663  W2        301             0.0000000000
       904       302  TIP3      OH2            -4.6023287858      -30.6339657020       -7.7144186337  W2        302             0.0000000000
       905       302  TIP3      H1             -3.7104287858      -30.7714657020       -7.3952986337  W2        302             0.0000000000
       906       302  TIP3      H2             -4.5459687858      -29.8433557020       -8.2510686337  W2        302             0.0000000000
       907       303  TIP3      OH2           -14.0935287858      -26.0202257020       -1.8046286337  W2        303             0.0000000000
       908       303  TIP3      H1            -13.3488087858      -26.0226557020       -2.4059786337  W2        303             0.0000000000
       909       303  TIP3      H2            -14.0158687858      -26.8438457020       -1.3231186337  W2        303             0.0000000000
       910       304  TIP3      OH2            -7.0929487858      -23.8567957020       -8.5489586337  W2        304             0.0000000000
       911       304  TIP3      H1             -7.3881087858      -23.0300057020       -8.1674786337  W2        304             0.0000000000
       912       304  TIP3      H2             -7.7959487858      -24.4761057020       -8.3528186337  W2        304             0.0000000000
       913       305  TIP3      OH2           -17.0855587858      -27.5595357020        3.5102213663  W2        305             0.0000000000
       914       305  TIP3      H1            -16.8626987858      -27.9775757020        4.3419713663  W2        305             0.0000000000
       915       305  TIP3      H2            -17.6875487858      -28.1720357020        3.0875013663  W2        305             0.0000000000
       916       306  TIP3      OH2           -10.0690687858      -28.0425457020        5.7231913663  W2        306             0.0000000000
       917       306  TIP3      H1            -10.3649887858      -28.2082457020        4.8281013663  W2        306             0.0000000000
       918       306  TIP3      H2             -9.1375487858      -28.2625157020        5.7125813663  W2        306             0.0000000000
       919       307  TIP3      OH2            -5.4487887858      -22.6693457020        3.6129913663  W2        307             0.0000000000
       920       307  TIP3      H1             -6.3493587858      -22.4860857020        3.3453813663  W2        307             0.0000000000
       921       307  TIP3      H2             -5.4146787858      -22.4104157020        4.5338713663  W2        307             0.0000000000
       922       308  TIP3      OH2             0.2825412142      -30.4245557020       -8.0197486337  W2        308             0.0000000000
       923       308  TIP3      H1             -0.2718287858      -30.8207557020       -8.6919986337  W2        308             0.0000000000
       924       308  TIP3      H2              0.3829012142      -29.5140357020       -8.2974186337  W2        308             0.0000000000
       925       309  TIP3      OH2             0.2457412142      -24.6243857020        4.8174013663  W2        309             0.0000000000
       926       309  TIP3      H1             -0.6054087858      -24.3860057020        4.4500413663  W2        309             0.0000000000
       927       309  TIP3      H2              0.8360812142      -24.6410657020        4.0641113663  W2        309             0.0000000000
       928       310  TIP3      OH2            -1.4222887858      -21.6385157020       -7.5545386337  W2        310             0.0000000000
       929       310  TIP3      H1             -1.7951787858      -22.4641357020       -7.2454786337  W2        310             0.0000000000
       930       310  TIP3      H2             -1.1449387858      -21.8215757020       -8.4521986337  W2        310             0.0000000000
       931       311  TIP3      OH2            -4.2618987858      -26.8305657020       -0.5333486337  W2        311             0.0000000000
       932       311  TIP3      H1             -5.1902087858      -27.0623757020       -0.5604186337  W2        311             0.0000000000
       933       311  TIP3      H2             -3.8107887858      -27.6075857020       -0.8634686337  W2        311             0.0000000000
       934       312  TIP3      OH2           -11.7185887858      -22.5024057020       -4.4004786337  W2        312             0.0000000000
       935       312  TIP3      H1            -11.1913687858      -21.7289657020       -4.6005986337  W2        312             0.0000000000
       936       312  TIP3      H2            -12.5987387858      -22.2774857020       -4.7020786337  W2        312             0.0000000000
       937       313  TIP3      OH2           -15.9638187858      -27.6399957020       -9.8132386337  W2        313             0.0000000000
       938       313  TIP3      H1            -15.3478287858      -27.0132757020       -9.4337586337  W2        313             0.0000000000
       939       313  TIP3      H2            -16.8255587858      -27.3240157020       -9.5415886337  W2        313             0.0000000000
       940       314  TIP3      OH2           -10.2913587858      -24.8394157020       -4.8240486337  W2        314             0.0000000000
       941       314  TIP3      H1            -10.5323587858      -23.9139757020       -4.7825186337  W2        314             0.0000000000
       942       314  TIP3      H2            -11.0319987858      -25.2982857020       -4.4276586337  W2        314             0.0000000000
       943       315  TIP3      OH2            -9.7766987858      -20.6900557020        1.4910613663  W2        315             0.0000000000
       944       315  TIP3      H1             -9.4142287858      -19.8354957020        1.2575013663  W2        315             0.0000000000
       945       315  TIP3      H2             -9.2451787858      -20.9818957020        2.2316913663  W2        315             0.0000000000
       946       316  TIP3      OH2           -11.6082787858      -19.8176557020       -5.2788286337  W2        316             0.0000000000
       947       316  TIP3      H1            -12.5582287858      -19.7119157020       -5.2274986337  W2        316             0.0000000000
       948       316  TIP3      H2            -11.2564687858      -18.9969157020       -4.9340786337  W2        316             0.0000000000
       949       317  TIP3      OH2            -6.2326187858      -24.5909857020        1.1916213663  W2        317             0.0000000000
       950       317  TIP3      H1             -6.6584887858      -24.8188157020        2.0180213663  W2        317             0.0000000000
       951       317  TIP3      H2             -5.6520387858      -25.3298057020        1.0091513663  W2        317             0.0000000000
       952       318  TIP3      OH2            -4.0297287858      -23.6619357020       -9.7344786337  W2        318             0.0000000000
       953       318  TIP3      H1             -3.6764187858      -24.0419557020       -8.9301286337  W2        318             0.0000000000
       954       318  TIP3      H2             -4.9783787858      -23.7554557020       -9.6475486337  W2        318             0.0000000000
       955       319  TIP3      OH2            -3.5741987858      -20.0390357020        3.6611013663  W2        319             0.0000000000
       956       319  TIP3      H1             -4.1758787858      -20.5947457020        3.1657313663  W2        319             0.0000000000
       957       319  TIP3      H2             -3.2928287858      -19.3720557020        3.0348413663  W2        319             0.0000000000
       958       320  TIP3      OH2             0.4737112142      -19.1826857020       -9.5334586337  W2        320             0.0000000000
       959       320  TIP3      H1              1.2175012142      -18.5966357020       -9.6732986337  W2        320             0.0000000000
       960       320  TIP3      H2             -0.2204787858      -18.6141057020       -9.2002186337  W2        320             0.0000000000
       961       321  TIP3      OH2           -15.4516087858      -32.8062657020        3.0683613663  W2        321             0.0000000000
       962       321  TIP3      H1            -16.3443787858      -32.4677257020        3.0007613663  W2        321             0.0000000000
       963       321  TIP3      H2            -15.5503287858      -33.6616557020        3.4864413663  W2        321             0.0000000000
       964       322  TIP3      OH2            -3.1637987858      -24.9897357020       -7.5076886337  W2        322             0.0000000000
       965       322  TIP3      H1             -3.4410387858      -25.7178057020       -6.9515786337  W2        322             0.0000000000
       966       322  TIP3      H2             -2.2364987858      -24.8705357020       -7.3024286337  W2        322             0.0000000000
       967       323  TIP3      OH2           -15.8004087858      -21.0018257020        1.5033013663  W2        323             0.0000000000
       968       323  TIP3      H1            -15.5833787858      -21.9335857020        1.4722713663  W2        323             0.0000000000
       969       323  TIP3      H2            -15.5540587858      -20.7273257020        2.3865813663  W2        323             0.0000000000
       970       324  TIP3      OH2            -9.9389487858      -22.5503257020      -11.2874786337  W2        324             0.0000000000
       971       324  TIP3      H1             -9.6999687858      -23.2985157020      -11.8345886337  W2        324             0.0000000000
       972       324  TIP3      H2            -10.2078187858      -22.9381557020      -10.4546986337  W2        324             0.0000000000
       973       325  TIP3      OH2           -11.0018887858      -22.9799457020       -8.8312186337  W2        325             0.0000000000
       974       325  TIP3      H1            -10.8550887858      -23.4999657020       -8.0411286337  W2        325             0.0000000000
       975       325  TIP3      H2            -11.0047187858      -22.0731857020       -8.5246286337  W2        325             0.0000000000
       976       326  TIP3      OH2           -14.5487787858      -25.7276157020       -8.3206786337  W2        326             0.0000000000
       977       326  TIP3      H1            -15.2348487858      -25.3753657020       -7.7537086337  W2        326             0.0000000000
       978       326  TIP3      H2            -14.0259887858      -24.9646557020       -8.5672486337  W2        326             0.0000000000
       979       327  TIP3      OH2            -6.7172687858      -33.0652357020        1.9582213663  W2        327             0.0000000000
       980       327  TIP3      H1             -6.0184787858      -32.9913657020        2.6081913663  W2        327             0.0000000000
       981       327  TIP3      H2             -7.0981287858      -33.9297357020        2.1125113663  W2        327             0.0000000000
       982       328  TIP3      OH2            -5.9327787858      -33.4130657020       -6.9445486337  W2        328             0.0000000000
       983       328  TIP3      H1             -5.7129487858      -32.9415257020       -7.7480086337  W2        328             0.0000000000
       984       328  TIP3      H2             -5.3743787858      -33.0188057020       -6.2744886337  W2        328             0.0000000000
       985       329  TIP3      OH2            -8.2641687858      -21.2825857020       -8.0817986337  W2        329             0.0000000000
       986       329  TIP3      H1             -9.0805587858      -20.7856157020       -8.0293686337  W2        329             0.0000000000
       987       329  TIP3      H2             -7.7345387858      -20.8072357020       -8.7219186337  W2        329             0.0000000000
       988       330  TIP3      OH2            -8.7327887858      -31.6851857020       -6.1097086337  W2        330             0.0000000000
       989       330  TIP3      H1             -7.9205287858      -31.1808657020       -6.0635386337  W2        330             0.0000000000
       990       330  TIP3      H2             -8.9774887858      -31.8302157020       -5.1957486337  W2        330             0.0000000000
       991       331  TIP3      OH2            -8.1971487858      -30.6989157020        3.0749513663  W2        331             0.0000000000
       992       331  TIP3      H1             -8.0781187858      -30.1253757020        3.8319913663  W2        331             0.0000000000
       993       331  TIP3      H2             -7.5416887858      -31.3869757020        3.1897313663  W2        331             0.0000000000
       994       332  TIP3      OH2            -7.8491187858      -34.6038857020       -5.1715986337  W2        332             0.0000000000
       995       332  TIP3      H1             -8.1957687858      -33.9868257020       -4.5271686337  W2        332             0.0000000000
       996       332  TIP3      H2             -7.1904287858      -34.1033157020       -5.6530486337  W2        332             0.0000000000
       997       333  TIP3      OH2           -10.9258587858      -20.2388657020       -8.1001086337  W2        333             0.0000000000
       998       333  TIP3      H1            -10.7649887858      -19.4391157020       -8.6008486337  W2        333             0.0000000000
       999       333  TIP3      H2            -11.1230787858      -19.9322657020       -7.2150486337  W2        333             0.0000000000
      1000       334  TIP3      OH2           -12.1914187858      -33.5409457020       -8.4843486337  W2        334             0.0000000000
      1001       334  TIP3      H1            -12.2749387858      -32.6526357020       -8.1377086337  W2        334             0.0000000000
      1002       334  TIP3      H2            -11.3013887858      -33.8062757020       -8.2526686337  W2        334             0.0000000000
      1003       335  TIP3      OH2            -1.9925687858      -32.7918857020        3.9099213663  W2        335             0.0000000000
      1004       335  TIP3      H1             -2.9089887858      -32.5297157020        3.8222913663  W2        335             0.0000000000
      1005       335  TIP3      H2             -1.6570687858      -32.7949857020        3.0134513663  W2        335             0.0000000000
      1006       336  TIP3      OH2            -3.3904687858      -29.0417857020       -1.9943486337  W2        336             0.0000000000
      1007       336  TIP3      H1             -4.1880287858      -29.4567657020       -2.3228486337  W2        336             0.0000000000
      1008       336  TIP3      H2             -2.9453587858      -29.7324157020       -1.5032986337  W2        336             0.0000000000
      1009       337  TIP3      OH2           -13.9328887858      -23.1137257020       -9.4238986337  W2        337             0.0000000000
      1010       337  TIP3      H1            -13.3407387858      -22.4142457020       -9.1476586337  W2        337             0.0000000000
      1011       337  TIP3      H2            -13.4735887858      -23.5467757020      -10.1434386337  W2        337             0.0000000000
      1012       338  TIP3      OH2           -15.6169687858      -30.4494257020      -10.3079586337  W2        338             0.0000000000
      1013       338  TIP3      H1            -15.6617087858      -29.5101157020      -10.1292586337  W2        338             0.0000000000
      1014       338  TIP3      H2            -16.5046487858      -30.6849357020      -10.5777486337  W2        338             0.0000000000
      1015       339  TIP3      OH2            -2.3040087858      -19.7855357020       -0.3719986337  W2        339             0.0000000000
      1016       339  TIP3      H1             -2.4595787858      -19.1070957020       -1.0290686337  W2        339             0.0000000000
      1017       339  TIP3      H2             -1.3713687858      -19.7136057020       -0.1689386337  W2        339             0.0000000000
      1018       340  TIP3      OH2           -14.8087687858      -35.6677657020       -1.6348586337  W2        340             0.0000000000
      1019       340  TIP3      H1            -15.0377887858      -35.6085157020       -2.5623586337  W2        340             0.0000000000
      1020       340  TIP3      H2            -15.2514287858      -36.4592157020       -1.3284486337  W2        340             0.0000000000
      1021       341  TIP3      OH2           -15.8784387858      -21.7270557020       -5.4742786337  W2        341             0.0000000000
      1022       341  TIP3      H1            -16.7105787858      -21.2547857020       -5.4471386337  W2        341             0.0000000000
      1023       341  TIP3      H2            -15.3326087858      -21.2172957020       -6.0729686337  W2        341             0.0000000000
      1024       342  TIP3      OH2           -16.5900687858      -19.1146857020        5.8555213663  W2        342             0.0000000000
      1025       342  TIP3      H1            -16.0498487858      -19.3312857020        6.6154413663  W2        342             0.0000000000
      1026       342  TIP3      H2            -17.0712687858      -19.9200857020        5.6657713663  W2        342             0.0000000000
      1027       343  TIP3      OH2           -11.9927287858      -20.1952457020        7.4759413663  W2        343             0.0000000000
      1028       343  TIP3      H1            -11.2250087858      -20.6541657020        7.8168613663  W2        343             0.0000000000
      1029       343  TIP3      H2            -12.0141087858      -20.4212657020        6.5460613663  W2        343             0.0000000000
      1030       344  TIP3      OH2            -7.9007687858      -20.6871857020      -11.1488786337  W2        344             0.0000000000
      1031       344  TIP3      H1             -8.5446687858      -21.3183257020      -10.8275086337  W2        344             0.0000000000
      1032       344  TIP3      H2             -7.1389387858      -21.2183857020      -11.3805286337  W2        344             0.0000000000
      1033       345  TIP3      OH2            -5.4158587858      -21.8151357020        6.2050913663  W2        345             0.0000000000
      1034       345  TIP3      H1             -5.7669087858      -22.6718357020        6.4481313663  W2        345             0.0000000000
      1035       345  TIP3      H2             -4.6895387858      -21.6724657020        6.8119913663  W2        345             0.0000000000
      1036       346  TIP3      OH2            -3.2964787858      -20.8701957020      -10.9150786337  W2        346             0.0000000000
      1037       346  TIP3      H1             -3.0134387858      -21.6646757020      -10.4623886337  W2        346             0.0000000000
      1038       346  TIP3      H2             -2.5566887858      -20.6370957020      -11.4759686337  W2        346             0.0000000000
      1039       347  TIP3      OH2           -16.6831187858      -25.3042757020        6.8099513663  W2        347             0.0000000000
      1040       347  TIP3      H1            -16.5390687858      -26.2062057020        6.5236213663  W2        347             0.0000000000
      1041       347  TIP3      H2            -17.4553787858      -25.0180657020        6.3221813663  W2        347             0.0000000000
      1042       348  TIP3      OH2           -12.3417487858      -24.9607057020      -11.0575886337  W2        348             0.0000000000
      1043       348  TIP3      H1            -12.2773387858      -25.7547457020      -10.5269486337  W2        348             0.0000000000
      1044       348  TIP3      H2            -11.6888287858      -25.0794257020      -11.7473886337  W2        348             0.0000000000
      1045       349  TIP3      OH2           -10.0275087858      -25.3344657020        6.2425913663  W2        349             0.0000000000
      1046       349  TIP3      H1            -10.3561287858      -25.0636557020        5.3853313663  W2        349             0.0000000000
      1047       349  TIP3      H2             -9.8756887858      -26.2754857020        6.1550913663  W2        349             0.0000000000
      1048       350  TIP3      OH2            -6.9894087858      -23.9135357020      -11.3217886337  W2        350             0.0000000000
      1049       350  TIP3      H1             -7.2579987858      -23.7333257020      -10.4208986337  W2        350             0.0000000000
      1050       350  TIP3      H2             -7.1958487858      -24.8389157020      -11.4532086337  W2        350             0.0000000000
      1051       351  TIP3      OH2            -4.2929887858      -25.4187357020        3.6258213663  W2        351             0.0000000000
      1052       351  TIP3      H1             -3.5475087858      -24.8303657020        3.5062213663  W2        351             0.0000000000
      1053       351  TIP3      H2             -5.0503087858      -24.8367657020        3.6891313663  W2        351             0.0000000000
      1054       352  TIP3      OH2           -15.8504687858      -28.1039457020        6.2298813663  W2        352             0.0000000000
      1055       352  TIP3      H1            -15.4423487858      -28.9612857020        6.1089413663  W2        352             0.0000000000
      1056       352  TIP3      H2            -16.1107087858      -28.0898157020        7.1509113663  W2        352             0.0000000000
      1057       353  TIP3      OH2           -11.1923687858      -26.9880857020       -8.7517886337  W2        353             0.0000000000
      1058       353  TIP3      H1            -11.6521687858      -27.4722557020       -8.0659386337  W2        353             0.0000000000
      1059       353  TIP3      H2            -10.9374987858      -27.6565457020       -9.3877386337  W2        353             0.0000000000
      1060       354  TIP3      OH2           -11.9034387858      -29.0953757020        3.6041713663  W2        354             0.0000000000
      1061       354  TIP3      H1            -12.5218287858      -28.4207157020        3.8846413663  W2        354             0.0000000000
      1062       354  TIP3      H2            -11.5593187858      -28.7739857020        2.7707913663  W2        354             0.0000000000
      1063       355  TIP3      OH2           -10.1213287858      -28.7449057020      -10.4894686337  W2        355             0.0000000000
      1064       355  TIP3      H1            -10.3018287858      -28.8997857020      -11.4166386337  W2        355             0.0000000000
      1065       355  TIP3      H2             -9.1712787858      -28.6370357020      -10.4446786337  W2        355             0.0000000000
      1066       356  TIP3      OH2            -6.8836187858      -26.6238457020        6.8816513663  W2        356             0.0000000000
      1067       356  TIP3      H1             -5.9304987858      -26.5399357020        6.8542513663  W2        356             0.0000000000
      1068       356  TIP3      H2             -7.0441587858      -27.3356657020        7.5011413663  W2        356             0.0000000000
      1069       357  TIP3      OH2            -0.7314987858      -26.3904857020      -11.0436586337  W2        357             0.0000000000
      1070       357  TIP3      H1             -1.0050187858      -26.8149357020      -11.8568286337  W2        357             0.0000000000
      1071       357  TIP3      H2             -0.6920887858      -25.4590357020      -11.2606186337  W2        357             0.0000000000
      1072       358  TIP3      OH2           -11.5640687858      -31.7402957020        4.6864813663  W2        358             0.0000000000
      1073       358  TIP3      H1            -11.4139787858      -32.4691657020        4.0844513663  W2        358             0.0000000000
      1074       358  TIP3      H2            -11.5618287858      -30.9631257020        4.1277013663  W2        358             0.0000000000
      1075       359  TIP3      OH2           -11.1514987858      -33.3707157020        2.1792213663  W2        359             0.0000000000
      1076       359  TIP3      H1            -10.6157487858      -32.9190457020        1.5271513663  W2        359             0.0000000000
      1077       359  TIP3      H2            -12.0035387858      -33.4787357020        1.7566313663  W2        359             0.0000000000
      1078       360  TIP3      OH2            -9.5696587858      -27.9310957020        2.4187413663  W2        360             0.0000000000
      1079       360  TIP3      H1             -8.8191787858      -28.0873457020        1.8455213663  W2        360             0.0000000000
      1080       360  TIP3      H2             -9.9088287858      -27.0794357020        2.1432913663  W2        360             0.0000000000
      1081       361  TIP3      OH2            -5.1540387858      -30.1159157020        7.4472713663  W2        361             0.0000000000
      1082       361  TIP3      H1             -4.9619087858      -31.0469757020        7.3357213663  W2        361             0.0000000000
      1083       361  TIP3      H2             -4.2964087858      -29.6909657020        7.4368113663  W2        361             0.0000000000
      1084       362  TIP3      OH2            -3.8373187858      -27.3273957020        5.5245413663  W2        362             0.0000000000
      1085       362  TIP3      H1             -4.1188187858      -26.6179357020        4.9469213663  W2        362             0.0000000000
      1086       362  TIP3      H2             -2.8948887858      -27.4000957020        5.3736613663  W2        362             0.0000000000
      1087       363  TIP3      OH2           -13.0854387858      -30.5419457020        6.5980413663  W2        363             0.0000000000
      1088       363  TIP3      H1            -13.8525387858      -31.0744657020        6.3878013663  W2        363             0.0000000000
      1089       363  TIP3      H2            -12.4065387858      -30.8519057020        5.9986713663  W2        363             0.0000000000
      1090       364  TIP3      OH2           -10.3459487858      -35.9141457020        2.6105813663  W2        364             0.0000000000
      1091       364  TIP3      H1            -10.4439887858      -34.9678257020        2.5052013663  W2        364             0.0000000000
      1092       364  TIP3      H2            -11.0883287858      -36.2867657020        2.1349313663  W2        364             0.0000000000
      1093       365  TIP3      OH2            -9.0818987858      -31.5926057020        6.1744213663  W2        365             0.0000000000
      1094       365  TIP3      H1             -9.3173587858      -31.8119357020        7.0759113663  W2        365             0.0000000000
      1095       365  TIP3      H2             -9.8652087858      -31.7994857020        5.6646713663  W2        365             0.0000000000
      1096       366  TIP3      OH2            -6.3662387858      -32.4652557020        5.2497713663  W2        366             0.0000000000
      1097       366  TIP3      H1             -7.3136987858      -32.4332857020        5.3821013663  W2        366             0.0000000000
      1098       366  TIP3      H2             -6.0535687858      -33.0905457020        5.9035913663  W2        366             0.0000000000
      1099       367  TIP3      OH2            -4.7320887858      -33.8311457020        7.2549613663  W2        367             0.0000000000
      1100       367  TIP3      H1             -4.8289087858      -34.7834157020        7.2491513663  W2        367             0.0000000000
      1101       367  TIP3      H2             -5.0537787858      -33.5624657020        8.1155113663  W2        367             0.0000000000
      1102       368  TIP3      OH2           -14.9051587858      -32.6215657020        6.3025113663  W2        368             0.0000000000
      1103       368  TIP3      H1            -14.6934187858      -33.3279557020        5.6922613663  W2        368             0.0000000000
      1104       368  TIP3      H2            -15.0164087858      -33.0589657020        7.1466313663  W2        368             0.0000000000
      1105       369  TIP3      OH2           -10.1241387858      -36.6204057020        5.2818613663  W2        369             0.0000000000
      1106       369  TIP3      H1             -9.4122987858      -37.2601857020        5.2677713663  W2        369             0.0000000000
      1107       369  TIP3      H2            -10.2250987858      -36.3535757020        4.3681713663  W2        369             0.0000000000
      1108       370  TIP3      OH2            -9.7703887858      -34.9375657020        7.3354913663  W2        370             0.0000000000
      1109       370  TIP3      H1             -9.9021687858      -35.4131857020        6.5153413663  W2        370             0.0000000000
      1110       370  TIP3      H2            -10.3696487858      -34.1932057020        7.2802013663  W2        370             0.0000000000
      1111       371  TIP3      OH2           -10.2241587858      -18.0545357020       -9.4881086337  W2        371             0.0000000000
      1112       371  TIP3      H1             -9.2910887858      -17.8966657020       -9.3442686337  W2        371             0.0000000000
      1113       371  TIP3      H2            -10.4882787858      -17.3792357020      -10.1129586337  W2        371             0.0000000000
      1114       372  TIP3      OH2           -16.6556687858      -23.4181557020      -10.0052986337  W2        372             0.0000000000
      1115       372  TIP3      H1            -15.7417487858      -23.3392657020       -9.7319086337  W2        372             0.0000000000
      1116       372  TIP3      H2            -16.6483587858      -24.1051957020      -10.6717386337  W2        372             0.0000000000
      1117       373  TIP3      OH2           -18.0066087858      -18.0253057020       -4.9279086337  W2        373             0.0000000000
      1118       373  TIP3      H1            -18.6538987858      -18.4871357020       -5.4607886337  W2        373             0.0000000000
      1119       373  TIP3      H2            -17.6521487858      -18.6969757020       -4.3452886337  W2        373             0.0000000000
      1120       374  TIP3      OH2           -17.1366887858      -19.9446057020       -3.1232886337  W2        374             0.0000000000
      1121       374  TIP3      H1            -17.4710087858      -20.8248757020       -2.9512686337  W2        374             0.0000000000
      1122       374  TIP3      H2            -16.9144487858      -19.5991057020       -2.2587286337  W2        374             0.0000000000
      1123       375  TIP3      OH2             0.4117912142      -19.1349657020       -0.1428086337  W2        375             0.0000000000
      1124       375  TIP3      H1              0.3904612142      -18.9501257020        0.7961313663  W2        375             0.0000000000
      1125       375  TIP3      H2              1.1024112142      -18.5665657020       -0.4836686337  W2        375             0.0000000000
      1126       376  TIP3      OH2            -0.0249187858      -19.5678557020        2.7791013663  W2        376             0.0000000000
      1127       376  TIP3      H1             -0.5120487858      -20.3034457020        2.4078413663  W2        376             0.0000000000
      1128       376  TIP3      H2              0.5243512142      -19.9614657020        3.4570413663  W2        376             0.0000000000
      1129       377  TIP3      OH2            -1.5741887858      -23.7780457020        7.4171313663  W2        377             0.0000000000
      1130       377  TIP3      H1             -2.4400787858      -23.8830757020        7.8113613663  W2        377             0.0000000000
      1131       377  TIP3      H2             -1.1975987858      -23.0197157020        7.8636013663  W2        377             0.0000000000
      1132       378  TIP3      OH2            -0.2732187858      -25.5216757020       -7.0686186337  W2        378             0.0000000000
      1133       378  TIP3      H1              0.5769212142      -25.1005857020       -6.9414586337  W2        378             0.0000000000
      1134       378  TIP3      H2             -0.2677087858      -26.2616657020       -6.4614786337  W2        378             0.0000000000
      1135       379  TIP3      OH2             0.1213412142      -27.4679357020       -5.2450486337  W2        379             0.0000000000
      1136       379  TIP3      H1             -0.6051987858      -27.9476757020       -4.8472886337  W2        379             0.0000000000
      1137       379  TIP3      H2              0.7026712142      -27.2624657020       -4.5128886337  W2        379             0.0000000000
      1138       380  TIP3      OH2            -0.1195387858      -24.6831857020       -0.2972886337  W2        380             0.0000000000
      1139       380  TIP3      H1              0.7138812142      -25.0611857020       -0.5779286337  W2        380             0.0000000000
      1140       380  TIP3      H2             -0.0075087858      -23.7400657020       -0.4163786337  W2        380             0.0000000000
      1141       381  TIP3      OH2            -1.6333087858      -21.8054357020        2.0095513663  W2        381             0.0000000000
      1142       381  TIP3      H1             -2.2807787858      -21.4802857020        2.6350713663  W2        381             0.0000000000
      1143       381  TIP3      H2             -2.1509087858      -22.2456657020        1.3353813663  W2        381             0.0000000000
      1144       382  TIP3      OH2             0.3896512142      -27.5670857020       -8.8539186337  W2        382             0.0000000000
      1145       382  TIP3      H1             -0.1322387858      -27.2106757020       -9.5728286337  W2        382             0.0000000000
      1146       382  TIP3      H2              0.3565712142      -26.8923057020       -8.1758286337  W2        382             0.0000000000
      1147       383  TIP3      OH2            -1.2614487858      -30.3275257020      -10.3032086337  W2        383             0.0000000000
      1148       383  TIP3      H1             -1.1650087858      -29.6608257020      -10.9832386337  W2        383             0.0000000000
      1149       383  TIP3      H2             -1.4014887858      -31.1428957020      -10.7846586337  W2        383             0.0000000000
      1150       384  TIP3      OH2            -2.0919787858      -28.9472857020       -4.6821786337  W2        384             0.0000000000
      1151       384  TIP3      H1             -2.2420987858      -29.8924257020       -4.7023986337  W2        384             0.0000000000
      1152       384  TIP3      H2             -2.4455287858      -28.6661457020       -3.8382686337  W2        384             0.0000000000
      1153       385  TIP3      OH2           -17.0567387858      -26.8690657020       -0.6717986337  W2        385             0.0000000000
      1154       385  TIP3      H1            -16.8724487858      -26.9508957020       -1.6075086337  W2        385             0.0000000000
      1155       385  TIP3      H2            -16.2074487858      -26.9933657020       -0.2481586337  W2        385             0.0000000000
      1156       386  TIP3      OH2            -1.2356887858      -26.9769557020        4.9566513663  W2        386             0.0000000000
      1157       386  TIP3      H1             -0.6529587858      -27.7117257020        5.1483713663  W2        386             0.0000000000
      1158       386  TIP3      H2             -0.6717587858      -26.2049257020        5.0032313663  W2        386             0.0000000000
      1159       387  TIP3      OH2             0.2610212142      -29.0743757020        5.6411913663  W2        387             0.0000000000
      1160       387  TIP3      H1             -0.6023087858      -29.4531657020        5.4756613663  W2        387             0.0000000000
      1161       387  TIP3      H2              0.8653912142      -29.8128957020        5.5667713663  W2        387             0.0000000000
      1162       388  TIP3      OH2            -2.0140687858      -32.9195457020      -11.1856586337  W2        388             0.0000000000
      1163       388  TIP3      H1             -1.4034887858      -33.2908657020      -10.5488386337  W2        388             0.0000000000
      1164       388  TIP3      H2             -2.8509187858      -33.3408557020      -10.9896586337  W2        388             0.0000000000
      1165       389  TIP3      OH2            -2.3814987858      -31.3647057020       -6.2196686337  W2        389             0.0000000000
      1166       389  TIP3      H1             -2.1017887858      -32.2716657020       -6.0954986337  W2        389             0.0000000000
      1167       389  TIP3      H2             -1.6223287858      -30.9305557020       -6.6087486337  W2        389             0.0000000000
      1168       390  TIP3      OH2            -1.7696687858      -30.7829657020       -0.7837786337  W2        390             0.0000000000
      1169       390  TIP3      H1             -0.8368687858      -30.5709757020       -0.8181786337  W2        390             0.0000000000
      1170       390  TIP3      H2             -2.0049187858      -30.6817557020        0.1385213663  W2        390             0.0000000000
      1171       391  TIP3      OH2            -1.7404787858      -30.0464357020        1.9921613663  W2        391             0.0000000000
      1172       391  TIP3      H1             -2.5833487858      -29.7783957020        2.3581413663  W2        391             0.0000000000
      1173       391  TIP3      H2             -1.2980487858      -29.2242457020        1.7812713663  W2        391             0.0000000000
      1174       392  TIP3      OH2           -17.4592587858      -31.5985657020        5.4690813663  W2        392             0.0000000000
      1175       392  TIP3      H1            -16.5397687858      -31.7207357020        5.7053913663  W2        392             0.0000000000
      1176       392  TIP3      H2            -17.9088087858      -32.3485957020        5.8584313663  W2        392             0.0000000000
      1177       393  TIP3      OH2             0.5426812142      -36.0664157020        7.3456613663  W2        393             0.0000000000
      1178       393  TIP3      H1              0.8923812142      -36.7200657020        6.7401313663  W2        393             0.0000000000
      1179       393  TIP3      H2              0.6896312142      -35.2290057020        6.9059213663  W2        393             0.0000000000
      1180       394  TIP3      OH2            -1.7680187858      -34.1017757020       -6.1714686337  W2        394             0.0000000000
      1181       394  TIP3      H1             -1.5855187858      -34.5506257020       -5.3459686337  W2        394             0.0000000000
      1182       394  TIP3      H2             -2.3677287858      -34.6863357020       -6.6350086337  W2        394             0.0000000000
      1183       395  TIP3      OH2           -16.2380087858      -33.2864057020       -1.6396286337  W2        395             0.0000000000
      1184       395  TIP3      H1            -15.7928487858      -34.0781557020       -1.3376586337  W2        395             0.0000000000
      1185       395  TIP3      H2            -15.7717087858      -32.5698857020       -1.2090686337  W2        395             0.0000000000
      1186       396  TIP3      OH2           -17.9339787858      -30.2871057020       -0.5706086337  W2        396             0.0000000000
      1187       396  TIP3      H1            -17.4419987858      -30.5080557020       -1.3614086337  W2        396             0.0000000000
      1188       396  TIP3      H2            -17.5718887858      -29.4467657020       -0.2896586337  W2        396             0.0000000000
      1189       397  TIP3      OH2             0.0624012142      -33.9569557020        5.6947913663  W2        397             0.0000000000
      1190       397  TIP3      H1             -0.8550287858      -33.6862457020        5.6591413663  W2        397             0.0000000000
      1191       397  TIP3      H2              0.1853412142      -34.4921157020        4.9107613663  W2        397             0.0000000000
      1192       398  TIP3      OH2             0.0986012142      -34.0339657020       -9.6434386337  W2        398             0.0000000000
      1193       398  TIP3      H1              0.5108612142      -34.7553957020      -10.1186386337  W2        398             0.0000000000
      1194       398  TIP3      H2              0.7802512142      -33.3645057020       -9.5850086337  W2        398             0.0000000000
      1195       399  TIP3      OH2           -17.6203287858      -34.0291957020       -6.5163686337  W2        399             0.0000000000
      1196       399  TIP3      H1            -18.5454887858      -33.8205357020       -6.6458186337  W2        399             0.0000000000
      1197       399  TIP3      H2            -17.1663387858      -33.5451157020       -7.2061386337  W2        399             0.0000000000
      1198       400  TIP3      OH2            -2.8496087858      -19.0450257020       -4.5706286337  W2        400             0.0000000000
      1199       400  TIP3      H1             -2.1973187858      -19.3928157020       -5.1787186337  W2        400             0.0000000000
      1200       400  TIP3      H2             -2.3392287858      -18.5567057020       -3.9246586337  W2        400             0.0000000000
      1201       401  TIP3      OH2           -17.6567887858      -35.2912957020        1.8278813663  W2        401             0.0000000000
      1202       401  TIP3      H1            -18.3217387858      -35.5372657020        2.4709713663  W2        401             0.0000000000
      1203       401  TIP3      H2            -18.0996587858      -34.6692557020        1.2506813663  W2        401             0.0000000000
      1204       402  TIP3      OH2           -15.4648587858      -22.1158857020        5.9724613663  W2        402             0.0000000000
      1205       402  TIP3      H1            -16.2856087858      -21.9412357020        5.5119313663  W2        402             0.0000000000
      1206       402  TIP3      H2            -15.7170787858      -22.1894157020        6.8929013663  W2        402             0.0000000000
      1207       403  TIP3      OH2           -12.5105687858      -21.1417657020        2.2308613663  W2        403             0.0000000000
      1208       403  TIP3      H1            -12.9354587858      -20.3319157020        1.9483213663  W2        403             0.0000000000
      1209       403  TIP3      H2            -11.6062887858      -21.0563557020        1.9288413663  W2        403             0.0000000000
      1210       404  TIP3      OH2            -8.1994287858      -19.7427657020        5.1902313663  W2        404             0.0000000000
      1211       404  TIP3      H1             -8.0146787858      -20.0761557020        6.0682613663  W2        404             0.0000000000
      1212       404  TIP3      H2             -7.3529787858      -19.4329057020        4.8681513663  W2        404             0.0000000000
      1213       405  TIP3      OH2            -5.8543887858      -18.4568757020        4.4343713663  W2        405             0.0000000000
      1214       405  TIP3      H1             -5.1774987858      -19.0896457020        4.1942913663  W2        405             0.0000000000
      1215       405  TIP3      H2             -5.5325087858      -18.0558257020        5.2417013663  W2        405             0.0000000000
      1216       406  TIP3      OH2            -0.9370087858      -35.8673257020        3.5138713663  W2        406             0.0000000000
      1217       406  TIP3      H1             -1.7496587858      -35.5422957020        3.1263413663  W2        406             0.0000000000
      1218       406  TIP3      H2             -0.7041587858      -36.6274757020        2.9807813663  W2        406             0.0000000000
      1219       407  TIP3      OH2           -15.1088987858      -17.8853757020        2.2783913663  W2        407             0.0000000000
      1220       407  TIP3      H1            -15.8292587858      -17.4452757020        1.8271613663  W2        407             0.0000000000
      1221       407  TIP3      H2            -15.4744987858      -18.1359057020        3.1267913663  W2        407             0.0000000000
      1222       408  TIP3      OH2           -12.6416387858      -18.2849857020        1.3081113663  W2        408             0.0000000000
      1223       408  TIP3      H1            -13.5064187858      -18.2131357020        1.7121213663  W2        408             0.0000000000
      1224       408  TIP3      H2            -12.6967387858      -17.7382557020        0.5243613663  W2        408             0.0000000000
      1225       409  TIP3      OH2            -7.9310787858      -18.3970957020        0.4837113663  W2        409             0.0000000000
      1226       409  TIP3      H1             -8.3876787858      -17.8681257020       -0.1704486337  W2        409             0.0000000000
      1227       409  TIP3      H2             -7.7682787858      -17.7939557020        1.2089413663  W2        409             0.0000000000
      1228       410  TIP3      OH2            -5.6034487858      -19.5191357020        1.4287413663  W2        410             0.0000000000
      1229       410  TIP3      H1             -6.5080787858      -19.3541157020        1.1629513663  W2        410             0.0000000000
      1230       410  TIP3      H2             -5.1745887858      -18.6659157020        1.3630813663  W2        410             0.0000000000
      1231       411  TIP3      OH2            -2.9992587858      -17.9492257020        1.7235213663  W2        411             0.0000000000
      1232       411  TIP3      H1             -3.1810587858      -17.0333357020        1.5130113663  W2        411             0.0000000000
      1233       411  TIP3      H2             -2.8224787858      -18.3595157020        0.8769813663  W2        411             0.0000000000
      1234       412  TIP3      OH2           -15.6940887858      -19.2621257020       -0.8114286337  W2        412             0.0000000000
      1235       412  TIP3      H1            -15.7124887858      -19.6876157020        0.0458013663  W2        412             0.0000000000
      1236       412  TIP3      H2            -14.8892987858      -19.5806257020       -1.2202086337  W2        412             0.0000000000
      1237       413  TIP3      OH2           -13.5527787858      -20.5522557020       -2.1564386337  W2        413             0.0000000000
      1238       413  TIP3      H1            -13.7717087858      -21.4685157020       -1.9868386337  W2        413             0.0000000000
      1239       413  TIP3      H2            -12.7285587858      -20.4122157020       -1.6902986337  W2        413             0.0000000000
      1240       414  TIP3      OH2           -11.0155287858      -20.0823257020       -1.3076386337  W2        414             0.0000000000
      1241       414  TIP3      H1            -10.8029587858      -20.9704257020       -1.5945486337  W2        414             0.0000000000
      1242       414  TIP3      H2            -10.9510187858      -20.1165557020       -0.3532386337  W2        414             0.0000000000
      1243       415  TIP3      OH2            -7.5071587858      -34.4182657020       -2.1633086337  W2        415             0.0000000000
      1244       415  TIP3      H1             -8.1814787858      -35.0477057020       -1.9077286337  W2        415             0.0000000000
      1245       415  TIP3      H2             -6.9432387858      -34.9023757020       -2.7665186337  W2        415             0.0000000000
      1246       416  TIP3      OH2            -2.3644387858      -36.3108657020       -2.0505986337  W2        416             0.0000000000
      1247       416  TIP3      H1             -1.7606787858      -35.7633257020       -2.5524986337  W2        416             0.0000000000
      1248       416  TIP3      H2             -3.2342387858      -35.9918257020       -2.2911886337  W2        416             0.0000000000
      1249       417  TIP3      OH2            -0.6373987858      -35.1719957020       -3.7175086337  W2        417             0.0000000000
      1250       417  TIP3      H1             -0.0256487858      -35.6864257020       -4.2441486337  W2        417             0.0000000000
      1251       417  TIP3      H2             -0.2550587858      -34.2947857020       -3.6940686337  W2        417             0.0000000000
      1252       418  TIP3      OH2           -15.1804087858      -35.7842357020       -4.3413186337  W2        418             0.0000000000
      1253       418  TIP3      H1            -15.9574287858      -36.0187457020       -4.8487286337  W2        418             0.0000000000
      1254       418  TIP3      H2            -14.6500487858      -36.5810257020       -4.3325186337  W2        418             0.0000000000
      1255       419  TIP3      OH2           -16.3440687858      -35.9864257020       -8.5377086337  W2        419             0.0000000000
      1256       419  TIP3      H1            -15.9049987858      -35.3753757020       -9.1293586337  W2        419             0.0000000000
      1257       419  TIP3      H2            -16.9778287858      -35.4480157020       -8.0637086337  W2        419             0.0000000000
      1258       420  TIP3      OH2           -10.6011487858      -35.8575257020       -4.5280086337  W2        420             0.0000000000
      1259       420  TIP3      H1             -9.7268087858      -35.4690957020       -4.5575786337  W2        420             0.0000000000
      1260       420  TIP3      H2            -10.7370687858      -36.0727457020       -3.6052886337  W2        420             0.0000000000
      1261       421  TIP3      OH2            -5.0443087858      -35.8275457020       -2.8788386337  W2        421             0.0000000000
      1262       421  TIP3      H1             -4.9681487858      -35.7323857020       -3.8282386337  W2        421             0.0000000000
      1263       421  TIP3      H2             -5.3193887858      -36.7352557020       -2.7499286337  W2        421             0.0000000000
      1264       422  TIP3      OH2            -3.6910487858      -35.8017657020       -7.1863386337  W2        422             0.0000000000
      1265       422  TIP3      H1             -4.3939387858      -35.1868457020       -7.3961986337  W2        422             0.0000000000
      1266       422  TIP3      H2             -4.1359087858      -36.6390957020       -7.0552486337  W2        422             0.0000000000
      1267       423  TIP3      OH2           -16.4431187858      -20.0382057020       -7.6401986337  W2        423             0.0000000000
      1268       423  TIP3      H1            -17.1281287858      -20.0763157020       -8.3076886337  W2        423             0.0000000000
      1269       423  TIP3      H2            -16.4393987858      -19.1254457020       -7.3519886337  W2        423             0.0000000000
      1270       424  TIP3      OH2           -14.4831587858      -34.0702757020      -10.0952986337  W2        424             0.0000000000
      1271       424  TIP3      H1            -13.9918187858      -34.7000357020      -10.6227486337  W2        424             0.0000000000
      1272       424  TIP3      H2            -13.8595287858      -33.7743357020       -9.4321786337  W2        424             0.0000000000
      1273       425  TIP3      OH2            -9.4571487858      -33.7771257020       -7.6382486337  W2        425             0.0000000000
      1274       425  TIP3      H1             -9.2790187858      -34.4238057020       -6.9553886337  W2        425             0.0000000000
      1275       425  TIP3      H2             -9.5105287858      -32.9433557020       -7.1711386337  W2        425             0.0000000000
      1276       426  TIP3      OH2            -7.5787687858      -18.8287157020       -9.2425786337  W2        426             0.0000000000
      1277       426  TIP3      H1             -6.7127487858      -18.4619757020       -9.4207586337  W2        426             0.0000000000
      1278       426  TIP3      H2             -7.8254887858      -19.2679157020      -10.0564986337  W2        426             0.0000000000
      1279       427  TIP3      OH2            -0.8698087858      -19.2656857020       -6.5634686337  W2        427             0.0000000000
      1280       427  TIP3      H1             -1.0640987858      -20.0134757020       -7.1285086337  W2        427             0.0000000000
      1281       427  TIP3      H2             -0.9087987858      -18.5076757020       -7.1466786337  W2        427             0.0000000000
      1282       428  TIP3      OH2           -15.2226087858      -35.2700457020        5.1763013663  W2        428             0.0000000000
      1283       428  TIP3      H1            -15.5887887858      -36.0357857020        5.6187713663  W2        428             0.0000000000
      1284       428  TIP3      H2            -14.3097587858      -35.2410257020        5.4628113663  W2        428             0.0000000000
      1285       429  TIP3      OH2           -13.2495287858      -35.9196057020        6.7120113663  W2        429             0.0000000000
      1286       429  TIP3      H1            -12.3511687858      -36.1935857020        6.5273513663  W2        429             0.0000000000
      1287       429  TIP3      H2            -13.6362187858      -36.6620057020        7.1762713663  W2        429             0.0000000000
      1288       430  TIP3      OH2           -14.6249987858      -19.1181257020      -10.6149886337  W2        430             0.0000000000
      1289       430  TIP3      H1            -14.8925387858      -18.8318357020       -9.7416786337  W2        430             0.0000000000
      1290       430  TIP3      H2            -13.8537387858      -19.6642057020      -10.4627386337  W2        430             0.0000000000
      1291       431  TIP3      OH2            -4.8282987858      -36.5870757020        6.8942913663  W2        431             0.0000000000
      1292       431  TIP3      H1             -4.7515787858      -37.0130057020        7.7480613663  W2        431             0.0000000000
      1293       431  TIP3      H2             -3.9346387858      -36.5736057020        6.5516413663  W2        431             0.0000000000
      1294       432  TIP3      OH2            -1.6521887858      -20.5144457020        5.5867113663  W2        432             0.0000000000
      1295       432  TIP3      H1             -2.4339987858      -20.7006457020        5.0667713663  W2        432             0.0000000000
      1296       432  TIP3      H2             -1.7241987858      -19.5850157020        5.8039613663  W2        432             0.0000000000
      1297       433  TIP3      OH2            12.7538512142      -26.6280057020       -4.3825686337  W2        433             0.0000000000
      1298       433  TIP3      H1             12.8429612142      -25.6841857020       -4.5148586337  W2        433             0.0000000000
      1299       433  TIP3      H2             12.1156112142      -26.9033657020       -5.0406286337  W2        433             0.0000000000
      1300       434  TIP3      OH2            11.6869812142      -27.3729357020       -0.9637486337  W2        434             0.0000000000
      1301       434  TIP3      H1             11.6487312142      -28.0193057020       -0.2587886337  W2        434             0.0000000000
      1302       434  TIP3      H2             11.3646312142      -27.8394957020       -1.7348786337  W2        434             0.0000000000
      1303       435  TIP3      OH2             4.0554812142      -27.7587257020        0.6292413663  W2        435             0.0000000000
      1304       435  TIP3      H1              4.0966912142      -28.3843957020        1.3524813663  W2        435             0.0000000000
      1305       435  TIP3      H2              4.7582512142      -27.1348657020        0.8112813663  W2        435             0.0000000000
      1306       436  TIP3      OH2            15.3930012142      -24.4338957020       -2.6622386337  W2        436             0.0000000000
      1307       436  TIP3      H1             14.9522712142      -25.1542957020       -2.2116786337  W2        436             0.0000000000
      1308       436  TIP3      H2             15.3799712142      -23.7131757020       -2.0324686337  W2        436             0.0000000000
      1309       437  TIP3      OH2             4.9787912142      -23.3088357020       -0.8358486337  W2        437             0.0000000000
      1310       437  TIP3      H1              4.6093112142      -24.1107857020       -1.2054186337  W2        437             0.0000000000
      1311       437  TIP3      H2              5.9199012142      -23.4773457020       -0.7895086337  W2        437             0.0000000000
      1312       438  TIP3      OH2             1.5888412142      -29.6485757020       -5.4429686337  W2        438             0.0000000000
      1313       438  TIP3      H1              1.1411812142      -28.8027057020       -5.4613186337  W2        438             0.0000000000
      1314       438  TIP3      H2              1.0279612142      -30.2281557020       -5.9584586337  W2        438             0.0000000000
      1315       439  TIP3      OH2             2.2994512142      -27.4866157020       -3.3171686337  W2        439             0.0000000000
      1316       439  TIP3      H1              2.5128012142      -28.2564557020       -2.7898686337  W2        439             0.0000000000
      1317       439  TIP3      H2              3.0372112142      -27.3969457020       -3.9204086337  W2        439             0.0000000000
      1318       440  TIP3      OH2            12.5045512142      -19.3297257020       -2.4501986337  W2        440             0.0000000000
      1319       440  TIP3      H1             13.1241912142      -20.0062557020       -2.7232786337  W2        440             0.0000000000
      1320       440  TIP3      H2             12.2962912142      -19.5476457020       -1.5417086337  W2        440             0.0000000000
      1321       441  TIP3      OH2            10.0764212142      -24.9407957020       -0.5576486337  W2        441             0.0000000000
      1322       441  TIP3      H1             10.3802112142      -25.6266557020       -1.1522386337  W2        441             0.0000000000
      1323       441  TIP3      H2             10.7978212142      -24.8219257020        0.0601513663  W2        441             0.0000000000
      1324       442  TIP3      OH2            18.7394012142      -33.3392657020        0.3029713663  W2        442             0.0000000000
      1325       442  TIP3      H1             18.7886212142      -32.7291457020        1.0388813663  W2        442             0.0000000000
      1326       442  TIP3      H2             19.1649112142      -32.8781757020       -0.4199186337  W2        442             0.0000000000
      1327       443  TIP3      OH2            13.2171212142      -30.5465557020       -0.2301686337  W2        443             0.0000000000
      1328       443  TIP3      H1             13.3597112142      -31.4928557020       -0.2100086337  W2        443             0.0000000000
      1329       443  TIP3      H2             13.1110212142      -30.3395757020       -1.1586786337  W2        443             0.0000000000
      1330       444  TIP3      OH2             6.3719512142      -32.4449157020       -2.9576886337  W2        444             0.0000000000
      1331       444  TIP3      H1              6.4150612142      -31.5850657020       -3.3760586337  W2        444             0.0000000000
      1332       444  TIP3      H2              5.9143612142      -32.9974457020       -3.5913686337  W2        444             0.0000000000
      1333       445  TIP3      OH2            14.0942212142      -32.3143557020       -4.5568586337  W2        445             0.0000000000
      1334       445  TIP3      H1             14.7406512142      -32.6430357020       -3.9320986337  W2        445             0.0000000000
      1335       445  TIP3      H2             14.6041612142      -31.7964557020       -5.1797186337  W2        445             0.0000000000
      1336       446  TIP3      OH2             2.9921012142      -30.0483357020       -2.1955486337  W2        446             0.0000000000
      1337       446  TIP3      H1              3.6457612142      -30.5981657020       -1.7635386337  W2        446             0.0000000000
      1338       446  TIP3      H2              3.0160312142      -30.3224357020       -3.1123486337  W2        446             0.0000000000
      1339       447  TIP3      OH2             8.1485512142      -28.4982057020       -2.9803986337  W2        447             0.0000000000
      1340       447  TIP3      H1              8.7646512142      -29.0246657020       -2.4709986337  W2        447             0.0000000000
      1341       447  TIP3      H2              7.5624312142      -29.1383357020       -3.3840386337  W2        447             0.0000000000
      1342       448  TIP3      OH2            19.1308612142      -31.8613457020        2.5389513663  W2        448             0.0000000000
      1343       448  TIP3      H1             18.4423212142      -31.2032757020        2.4436113663  W2        448             0.0000000000
      1344       448  TIP3      H2             19.1463212142      -32.0585557020        3.4754913663  W2        448             0.0000000000
      1345       449  TIP3      OH2             5.1821412142      -33.5270757020        1.1163913663  W2        449             0.0000000000
      1346       449  TIP3      H1              4.9633112142      -32.9970157020        0.3499913663  W2        449             0.0000000000
      1347       449  TIP3      H2              4.5142312142      -33.3005257020        1.7635313663  W2        449             0.0000000000
      1348       450  TIP3      OH2            12.5511212142      -24.0269657020       -5.3396986337  W2        450             0.0000000000
      1349       450  TIP3      H1             12.2556312142      -24.3497357020       -6.1910086337  W2        450             0.0000000000
      1350       450  TIP3      H2             12.2269012142      -23.1272957020       -5.2984386337  W2        450             0.0000000000
      1351       451  TIP3      OH2             7.7512812142      -25.8515057020        1.4037613663  W2        451             0.0000000000
      1352       451  TIP3      H1              7.0111912142      -25.2533557020        1.5072813663  W2        451             0.0000000000
      1353       451  TIP3      H2              8.4652312142      -25.2975457020        1.0881213663  W2        451             0.0000000000
      1354       452  TIP3      OH2            15.8580612142      -33.0234257020       -2.5762686337  W2        452             0.0000000000
      1355       452  TIP3      H1             15.6428612142      -33.7890857020       -2.0436686337  W2        452             0.0000000000
      1356       452  TIP3      H2             16.5138012142      -32.5509657020       -2.0634186337  W2        452             0.0000000000
      1357       453  TIP3      OH2             4.7758712142      -31.6348957020       -0.9313886337  W2        453             0.0000000000
      1358       453  TIP3      H1              5.3895012142      -31.0021357020       -0.5581486337  W2        453             0.0000000000
      1359       453  TIP3      H2              5.2879412142      -32.1073957020       -1.5876986337  W2        453             0.0000000000
      1360       454  TIP3      OH2             6.1587112142      -23.8872057020        2.1909113663  W2        454             0.0000000000
      1361       454  TIP3      H1              6.1534712142      -23.0078557020        1.8128413663  W2        454             0.0000000000
      1362       454  TIP3      H2              5.3051212142      -23.9707957020        2.6159013663  W2        454             0.0000000000
      1363       455  TIP3      OH2             2.2798012142      -24.2164157020       -7.0271586337  W2        455             0.0000000000
      1364       455  TIP3      H1              2.0078912142      -23.9873157020       -7.9158686337  W2        455             0.0000000000
      1365       455  TIP3      H2              2.3253712142      -23.3785357020       -6.5666286337  W2        455             0.0000000000
      1366       456  TIP3      OH2            15.9047712142      -22.5948257020       -0.3143086337  W2        456             0.0000000000
      1367       456  TIP3      H1             14.9631412142      -22.5364357020       -0.1526186337  W2        456             0.0000000000
      1368       456  TIP3      H2             16.1813812142      -21.6887757020       -0.4513386337  W2        456             0.0000000000
      1369       457  TIP3      OH2            16.2054712142      -34.3082957020        1.1030813663  W2        457             0.0000000000
      1370       457  TIP3      H1             15.4693912142      -33.6975857020        1.0652113663  W2        457             0.0000000000
      1371       457  TIP3      H2             16.8888712142      -33.8933957020        0.5767213663  W2        457             0.0000000000
      1372       458  TIP3      OH2             9.2086112142      -36.2215657020       -1.4311186337  W2        458             0.0000000000
      1373       458  TIP3      H1              9.0910312142      -37.1699657020       -1.4852886337  W2        458             0.0000000000
      1374       458  TIP3      H2              8.3536212142      -35.8889557020       -1.1580086337  W2        458             0.0000000000
      1375       459  TIP3      OH2            14.1568912142      -20.8134757020       -3.6891486337  W2        459             0.0000000000
      1376       459  TIP3      H1             14.5821212142      -21.5206857020       -4.1741886337  W2        459             0.0000000000
      1377       459  TIP3      H2             14.4738912142      -20.0122057020       -4.1059286337  W2        459             0.0000000000
      1378       460  TIP3      OH2            15.3165412142      -22.9126257020       -5.1804886337  W2        460             0.0000000000
      1379       460  TIP3      H1             15.0590212142      -23.6026157020       -5.7918986337  W2        460             0.0000000000
      1380       460  TIP3      H2             15.3876212142      -23.3555057020       -4.3348986337  W2        460             0.0000000000
      1381       461  TIP3      OH2            17.0025612142      -24.3459557020        3.2968613663  W2        461             0.0000000000
      1382       461  TIP3      H1             17.1421912142      -24.9377057020        2.5575613663  W2        461             0.0000000000
      1383       461  TIP3      H2             17.1698412142      -23.4733657020        2.9407413663  W2        461             0.0000000000
      1384       462  TIP3      OH2            11.4751012142      -27.3840057020       -6.9305386337  W2        462             0.0000000000
      1385       462  TIP3      H1             10.7636512142      -26.8490357020       -7.2824886337  W2        462             0.0000000000
      1386       462  TIP3      H2             12.1660612142      -27.3287957020       -7.5906486337  W2        462             0.0000000000
      1387       463  TIP3      OH2            11.5290212142      -28.9265757020       -9.8920386337  W2        463             0.0000000000
      1388       463  TIP3      H1             12.2300112142      -28.9038857020       -9.2406386337  W2        463             0.0000000000
      1389       463  TIP3      H2             11.8313112142      -29.5546057020      -10.5481086337  W2        463             0.0000000000
      1390       464  TIP3      OH2            18.8444912142      -28.0061557020        1.3629013663  W2        464             0.0000000000
      1391       464  TIP3      H1             18.1919012142      -27.3115957020        1.4519913663  W2        464             0.0000000000
      1392       464  TIP3      H2             19.3095212142      -27.7960657020        0.5530613663  W2        464             0.0000000000
      1393       465  TIP3      OH2            14.8808712142      -27.1746757020       -5.9789486337  W2        465             0.0000000000
      1394       465  TIP3      H1             14.1489712142      -26.9463057020       -5.4058886337  W2        465             0.0000000000
      1395       465  TIP3      H2             15.3280912142      -27.8884057020       -5.5241986337  W2        465             0.0000000000
      1396       466  TIP3      OH2            14.7782212142      -29.0004157020        3.0887513663  W2        466             0.0000000000
      1397       466  TIP3      H1             14.8581312142      -28.2369757020        3.6606013663  W2        466             0.0000000000
      1398       466  TIP3      H2             14.1769912142      -28.7211757020        2.3982613663  W2        466             0.0000000000
      1399       467  TIP3      OH2             6.5262412142      -26.5440557020       -4.0964486337  W2        467             0.0000000000
      1400       467  TIP3      H1              6.1957612142      -26.9147157020       -4.9147486337  W2        467             0.0000000000
      1401       467  TIP3      H2              7.1146512142      -27.2146557020       -3.7496186337  W2        467             0.0000000000
      1402       468  TIP3      OH2             7.8929912142      -23.1159957020       -1.4152286337  W2        468             0.0000000000
      1403       468  TIP3      H1              7.7981212142      -23.6946857020       -2.1717686337  W2        468             0.0000000000
      1404       468  TIP3      H2              8.6223512142      -23.4874257020       -0.9189486337  W2        468             0.0000000000
      1405       469  TIP3      OH2             6.8927912142      -27.7754957020       -0.4629486337  W2        469             0.0000000000
      1406       469  TIP3      H1              7.4580412142      -27.6540757020       -1.2258286337  W2        469             0.0000000000
      1407       469  TIP3      H2              7.2116812142      -27.1379957020        0.1759013663  W2        469             0.0000000000
      1408       470  TIP3      OH2            13.2020112142      -22.2723057020        0.2711013663  W2        470             0.0000000000
      1409       470  TIP3      H1             12.9616712142      -21.6099957020        0.9190213663  W2        470             0.0000000000
      1410       470  TIP3      H2             13.0038312142      -23.1067857020        0.6960613663  W2        470             0.0000000000
      1411       471  TIP3      OH2             7.7728612142      -23.3762257020        4.2542413663  W2        471             0.0000000000
      1412       471  TIP3      H1              7.4616112142      -22.5939057020        4.7095613663  W2        471             0.0000000000
      1413       471  TIP3      H2              7.1228812142      -23.5293157020        3.5684413663  W2        471             0.0000000000
      1414       472  TIP3      OH2            13.7518212142      -28.0123857020       -8.2938286337  W2        472             0.0000000000
      1415       472  TIP3      H1             14.3313712142      -27.8623557020       -7.5469386337  W2        472             0.0000000000
      1416       472  TIP3      H2             14.1658212142      -27.5416457020       -9.0171886337  W2        472             0.0000000000
      1417       473  TIP3      OH2             4.6928512142      -27.1781157020        3.4828113663  W2        473             0.0000000000
      1418       473  TIP3      H1              4.7631712142      -26.5274357020        4.1813113663  W2        473             0.0000000000
      1419       473  TIP3      H2              3.8020712142      -27.0753657020        3.1479013663  W2        473             0.0000000000
      1420       474  TIP3      OH2            11.4783112142      -21.2755357020       -4.8585186337  W2        474             0.0000000000
      1421       474  TIP3      H1             11.9520712142      -20.9799057020       -4.0810986337  W2        474             0.0000000000
      1422       474  TIP3      H2             10.9152412142      -20.5373757020       -5.0915586337  W2        474             0.0000000000
      1423       475  TIP3      OH2             6.0124512142      -21.3047257020        5.0176213663  W2        475             0.0000000000
      1424       475  TIP3      H1              6.0199812142      -21.4407557020        4.0701713663  W2        475             0.0000000000
      1425       475  TIP3      H2              5.0964912142      -21.4219157020        5.2696213663  W2        475             0.0000000000
      1426       476  TIP3      OH2            17.4506612142      -36.2623457020       -8.4808586337  W2        476             0.0000000000
      1427       476  TIP3      H1             16.5507312142      -36.1234457020       -8.1857986337  W2        476             0.0000000000
      1428       476  TIP3      H2             17.7025012142      -35.4308857020       -8.8826886337  W2        476             0.0000000000
      1429       477  TIP3      OH2             5.5165112142      -27.4746257020       -6.5071686337  W2        477             0.0000000000
      1430       477  TIP3      H1              5.2246412142      -26.7064557020       -6.9980386337  W2        477             0.0000000000
      1431       477  TIP3      H2              4.8420312142      -28.1340057020       -6.6700286337  W2        477             0.0000000000
      1432       478  TIP3      OH2            18.6398012142      -21.8961057020      -10.1044686337  W2        478             0.0000000000
      1433       478  TIP3      H1             18.7131512142      -20.9570857020       -9.9339386337  W2        478             0.0000000000
      1434       478  TIP3      H2             19.5453112142      -22.2012457020      -10.1607386337  W2        478             0.0000000000
      1435       479  TIP3      OH2             1.6095212142      -25.1117057020        2.3078113663  W2        479             0.0000000000
      1436       479  TIP3      H1              1.1083612142      -25.1397657020        1.4927813663  W2        479             0.0000000000
      1437       479  TIP3      H2              1.6148912142      -26.0173857020        2.6175413663  W2        479             0.0000000000
      1438       480  TIP3      OH2             1.3597912142      -22.3313257020       -0.8081686337  W2        480             0.0000000000
      1439       480  TIP3      H1              2.3058512142      -22.4756257020       -0.8272186337  W2        480             0.0000000000
      1440       480  TIP3      H2              1.2474212142      -21.5470457020       -0.2710486337  W2        480             0.0000000000
      1441       481  TIP3      OH2            19.5576412142      -21.6653557020        4.8742013663  W2        481             0.0000000000
      1442       481  TIP3      H1             19.5083212142      -22.6205457020        4.8369613663  W2        481             0.0000000000
      1443       481  TIP3      H2             18.7308712142      -21.3978257020        5.2755813663  W2        481             0.0000000000
      1444       482  TIP3      OH2            10.5360412142      -22.0914357020        3.7503413663  W2        482             0.0000000000
      1445       482  TIP3      H1             10.6235012142      -21.2649757020        4.2252513663  W2        482             0.0000000000
      1446       482  TIP3      H2              9.6725512142      -22.4210557020        3.9992713663  W2        482             0.0000000000
      1447       483  TIP3      OH2            10.9506212142      -18.3190657020       -6.4435986337  W2        483             0.0000000000
      1448       483  TIP3      H1             10.8752212142      -18.4403457020       -7.3900786337  W2        483             0.0000000000
      1449       483  TIP3      H2             10.9834912142      -17.3697957020       -6.3251386337  W2        483             0.0000000000
      1450       484  TIP3      OH2             4.6040012142      -19.5303657020       -4.6626986337  W2        484             0.0000000000
      1451       484  TIP3      H1              4.7560412142      -19.8783257020       -3.7840486337  W2        484             0.0000000000
      1452       484  TIP3      H2              3.7530412142      -19.8866357020       -4.9179786337  W2        484             0.0000000000
      1453       485  TIP3      OH2            14.0522212142      -19.1650457020       -9.4413586337  W2        485             0.0000000000
      1454       485  TIP3      H1             14.4270612142      -19.9094357020       -9.9120986337  W2        485             0.0000000000
      1455       485  TIP3      H2             14.0565912142      -19.4349857020       -8.5230286337  W2        485             0.0000000000
      1456       486  TIP3      OH2            13.7210312142      -19.2393357020       -6.6921386337  W2        486             0.0000000000
      1457       486  TIP3      H1             12.7860112142      -19.1391457020       -6.5134386337  W2        486             0.0000000000
      1458       486  TIP3      H2             14.0012212142      -19.9487357020       -6.1138186337  W2        486             0.0000000000
      1459       487  TIP3      OH2            16.7096212142      -30.1721057020        5.3544213663  W2        487             0.0000000000
      1460       487  TIP3      H1             16.3023012142      -29.6915457020        4.6337513663  W2        487             0.0000000000
      1461       487  TIP3      H2             16.7501912142      -31.0775057020        5.0465013663  W2        487             0.0000000000
      1462       488  TIP3      OH2             3.8585712142      -23.7881657020        3.3510913663  W2        488             0.0000000000
      1463       488  TIP3      H1              4.0747012142      -24.1496057020        4.2106713663  W2        488             0.0000000000
      1464       488  TIP3      H2              3.0030412142      -24.1627857020        3.1414413663  W2        488             0.0000000000
      1465       489  TIP3      OH2             6.4773712142      -35.3181157020       -0.6534886337  W2        489             0.0000000000
      1466       489  TIP3      H1              5.6157412142      -35.4052957020       -1.0611986337  W2        489             0.0000000000
      1467       489  TIP3      H2              6.4549412142      -34.4621057020       -0.2257286337  W2        489             0.0000000000
      1468       490  TIP3      OH2            11.1401512142      -35.5960757020        2.7212113663  W2        490             0.0000000000
      1469       490  TIP3      H1             11.5604612142      -36.0113657020        3.4742713663  W2        490             0.0000000000
      1470       490  TIP3      H2             10.2071112142      -35.7747457020        2.8384113663  W2        490             0.0000000000
      1471       491  TIP3      OH2            14.4666412142      -31.8405557020        3.5746613663  W2        491             0.0000000000
      1472       491  TIP3      H1             13.9525912142      -31.9663357020        4.3722613663  W2        491             0.0000000000
      1473       491  TIP3      H2             14.3111112142      -30.9282457020        3.3302813663  W2        491             0.0000000000
      1474       492  TIP3      OH2            15.2291312142      -26.9795557020      -10.6640386337  W2        492             0.0000000000
      1475       492  TIP3      H1             15.2712112142      -27.2021657020      -11.5940386337  W2        492             0.0000000000
      1476       492  TIP3      H2             16.0783412142      -26.5808457020      -10.4740486337  W2        492             0.0000000000
      1477       493  TIP3      OH2            10.8018812142      -33.1037357020       -9.9937086337  W2        493             0.0000000000
      1478       493  TIP3      H1             10.5483612142      -33.0845757020       -9.0708986337  W2        493             0.0000000000
      1479       493  TIP3      H2             10.5450912142      -33.9751957020      -10.2950886337  W2        493             0.0000000000
      1480       494  TIP3      OH2             6.5683812142      -30.3526657020        0.4415313663  W2        494             0.0000000000
      1481       494  TIP3      H1              5.9265912142      -30.3929357020        1.1505413663  W2        494             0.0000000000
      1482       494  TIP3      H2              6.6055812142      -29.4261957020        0.2038313663  W2        494             0.0000000000
      1483       495  TIP3      OH2             6.5652912142      -30.1316557020       -4.6464686337  W2        495             0.0000000000
      1484       495  TIP3      H1              5.6725812142      -30.4720457020       -4.7050886337  W2        495             0.0000000000
      1485       495  TIP3      H2              7.0159512142      -30.5085657020       -5.4021486337  W2        495             0.0000000000
      1486       496  TIP3      OH2            12.1008412142      -29.7156257020       -5.8293886337  W2        496             0.0000000000
      1487       496  TIP3      H1             11.6918712142      -28.9007657020       -6.1209086337  W2        496             0.0000000000
      1488       496  TIP3      H2             12.8214612142      -29.8556157020       -6.4436786337  W2        496             0.0000000000
      1489       497  TIP3      OH2            11.2030012142      -29.5399857020        5.6586813663  W2        497             0.0000000000
      1490       497  TIP3      H1             10.6403812142      -30.2448257020        5.9794613663  W2        497             0.0000000000
      1491       497  TIP3      H2             12.0293412142      -29.6607957020        6.1264413663  W2        497             0.0000000000
      1492       498  TIP3      OH2            13.1056112142      -30.2695857020       -3.0154186337  W2        498             0.0000000000
      1493       498  TIP3      H1             12.9100612142      -29.6639057020       -3.7303586337  W2        498             0.0000000000
      1494       498  TIP3      H2             13.2868712142      -31.1030657020       -3.4497886337  W2        498             0.0000000000
      1495       499  TIP3      OH2             4.3184312142      -30.0323157020        2.3087313663  W2        499             0.0000000000
      1496       499  TIP3      H1              4.2803712142      -29.6321557020        3.1774413663  W2        499             0.0000000000
      1497       499  TIP3      H2              3.8275412142      -30.8490757020        2.3990213663  W2        499             0.0000000000
      1498       500  TIP3      OH2             7.6841712142      -32.6580857020      -10.8926686337  W2        500             0.0000000000
      1499       500  TIP3      H1              7.2532412142      -33.1030757020      -10.1629286337  W2        500             0.0000000000
      1500       500  TIP3      H2              6.9660412142      -32.2864557020      -11.4049186337  W2        500             0.0000000000
      1501       501  TIP3      OH2             0.9265112142      -32.9161357020       -3.8407986337  W2        501             0.0000000000
      1502       501  TIP3      H1              1.5572812142      -32.9449257020       -3.1214086337  W2        501             0.0000000000
      1503       501  TIP3      H2              1.3759412142      -33.3412657020       -4.5712086337  W2        501             0.0000000000
      1504       502  TIP3      OH2             2.2007212142      -32.1699357020       -8.4167586337  W2        502             0.0000000000
      1505       502  TIP3      H1              2.6748912142      -31.5789457020       -9.0016686337  W2        502             0.0000000000
      1506       502  TIP3      H2              1.4833612142      -31.6396457020       -8.0697486337  W2        502             0.0000000000
      1507       503  TIP3      OH2            12.3695312142      -28.6314557020        1.6558213663  W2        503             0.0000000000
      1508       503  TIP3      H1             12.6930112142      -29.2624857020        1.0128713663  W2        503             0.0000000000
      1509       503  TIP3      H2             11.9294612142      -29.1662357020        2.3165613663  W2        503             0.0000000000
      1510       504  TIP3      OH2             9.1468212142      -32.7039057020       -3.5600586337  W2        504             0.0000000000
      1511       504  TIP3      H1              8.2359312142      -32.6472257020       -3.2714586337  W2        504             0.0000000000
      1512       504  TIP3      H2              9.6521112142      -32.7643557020       -2.7493386337  W2        504             0.0000000000
      1513       505  TIP3      OH2             3.9751612142      -31.0752757020       -4.7332986337  W2        505             0.0000000000
      1514       505  TIP3      H1              3.0859612142      -30.9757257020       -5.0733386337  W2        505             0.0000000000
      1515       505  TIP3      H2              4.2716512142      -31.9169757020       -5.0795086337  W2        505             0.0000000000
      1516       506  TIP3      OH2             7.6283412142      -31.0750157020       -7.0768386337  W2        506             0.0000000000
      1517       506  TIP3      H1              8.5598912142      -30.9460157020       -6.8985286337  W2        506             0.0000000000
      1518       506  TIP3      H2              7.4133712142      -30.4055857020       -7.7263686337  W2        506             0.0000000000
      1519       507  TIP3      OH2            13.5520112142      -33.4692757020       -0.2958786337  W2        507             0.0000000000
      1520       507  TIP3      H1             12.8751712142      -33.3379657020        0.3680913663  W2        507             0.0000000000
      1521       507  TIP3      H2             13.0665012142      -33.6243257020       -1.1061086337  W2        507             0.0000000000
      1522       508  TIP3      OH2             6.3023612142      -29.8807957020       -9.5102286337  W2        508             0.0000000000
      1523       508  TIP3      H1              5.7598712142      -30.2604157020      -10.2014686337  W2        508             0.0000000000
      1524       508  TIP3      H2              7.1358512142      -29.6863257020       -9.9388186337  W2        508             0.0000000000
      1525       509  TIP3      OH2            16.8395212142      -17.7977357020        5.9808813663  W2        509             0.0000000000
      1526       509  TIP3      H1             17.0393912142      -17.3735457020        5.1464113663  W2        509             0.0000000000
      1527       509  TIP3      H2             17.4948912142      -17.4539157020        6.5879213663  W2        509             0.0000000000
      1528       510  TIP3      OH2             4.4375012142      -25.3236057020        5.5889313663  W2        510             0.0000000000
      1529       510  TIP3      H1              5.1697412142      -25.0690157020        6.1503813663  W2        510             0.0000000000
      1530       510  TIP3      H2              3.6573712142      -25.1190657020        6.1044713663  W2        510             0.0000000000
      1531       511  TIP3      OH2            10.4667912142      -29.9166057020       -1.6730986337  W2        511             0.0000000000
      1532       511  TIP3      H1             11.0311312142      -30.4629457020       -2.2201386337  W2        511             0.0000000000
      1533       511  TIP3      H2             10.3191312142      -30.4384157020       -0.8843386337  W2        511             0.0000000000
      1534       512  TIP3      OH2             5.4687612142      -33.7799957020       -5.2546186337  W2        512             0.0000000000
      1535       512  TIP3      H1              5.1517112142      -34.6824657020       -5.2900786337  W2        512             0.0000000000
      1536       512  TIP3      H2              6.2501712142      -33.7782557020       -5.8074586337  W2        512             0.0000000000
      1537       513  TIP3      OH2             9.0933812142      -31.5279957020        0.7409413663  W2        513             0.0000000000
      1538       513  TIP3      H1              8.2579112142      -31.0740457020        0.8511813663  W2        513             0.0000000000
      1539       513  TIP3      H2              9.6174412142      -31.2521457020        1.4929313663  W2        513             0.0000000000
      1540       514  TIP3      OH2             9.6376412142      -25.3152257020       -7.5744186337  W2        514             0.0000000000
      1541       514  TIP3      H1              8.8927412142      -25.8226957020       -7.8966286337  W2        514             0.0000000000
      1542       514  TIP3      H2              9.5033612142      -25.2664257020       -6.6279386337  W2        514             0.0000000000
      1543       515  TIP3      OH2            16.7875312142      -26.1824057020        1.2123413663  W2        515             0.0000000000
      1544       515  TIP3      H1             17.4294112142      -25.7257757020        0.6685613663  W2        515             0.0000000000
      1545       515  TIP3      H2             15.9572212142      -26.0691657020        0.7497513663  W2        515             0.0000000000
      1546       516  TIP3      OH2            13.5353212142      -32.5012357020       -9.3751586337  W2        516             0.0000000000
      1547       516  TIP3      H1             12.5967412142      -32.3896757020       -9.5262786337  W2        516             0.0000000000
      1548       516  TIP3      H2             13.8325312142      -31.6445457020       -9.0685886337  W2        516             0.0000000000
      1549       517  TIP3      OH2            11.1568512142      -25.1308957020        3.6624913663  W2        517             0.0000000000
      1550       517  TIP3      H1             10.8114612142      -25.5126557020        4.4694513663  W2        517             0.0000000000
      1551       517  TIP3      H2             10.9568612142      -24.1975357020        3.7337813663  W2        517             0.0000000000
      1552       518  TIP3      OH2            14.2536712142      -30.6339657020       -7.7144186337  W2        518             0.0000000000
      1553       518  TIP3      H1             15.1455712142      -30.7714657020       -7.3952986337  W2        518             0.0000000000
      1554       518  TIP3      H2             14.3100312142      -29.8433557020       -8.2510686337  W2        518             0.0000000000
      1555       519  TIP3      OH2             4.7624712142      -26.0202257020       -1.8046286337  W2        519             0.0000000000
      1556       519  TIP3      H1              5.5071912142      -26.0226557020       -2.4059786337  W2        519             0.0000000000
      1557       519  TIP3      H2              4.8401312142      -26.8438457020       -1.3231186337  W2        519             0.0000000000
      1558       520  TIP3      OH2            11.7630512142      -23.8567957020       -8.5489586337  W2        520             0.0000000000
      1559       520  TIP3      H1             11.4678912142      -23.0300057020       -8.1674786337  W2        520             0.0000000000
      1560       520  TIP3      H2             11.0600512142      -24.4761057020       -8.3528186337  W2        520             0.0000000000
      1561       521  TIP3      OH2             1.7704412142      -27.5595357020        3.5102213663  W2        521             0.0000000000
      1562       521  TIP3      H1              1.9933012142      -27.9775757020        4.3419713663  W2        521             0.0000000000
      1563       521  TIP3      H2              1.1684512142      -28.1720357020        3.0875013663  W2        521             0.0000000000
      1564       522  TIP3      OH2             8.7869312142      -28.0425457020        5.7231913663  W2        522             0.0000000000
      1565       522  TIP3      H1              8.4910112142      -28.2082457020        4.8281013663  W2        522             0.0000000000
      1566       522  TIP3      H2              9.7184512142      -28.2625157020        5.7125813663  W2        522             0.0000000000
      1567       523  TIP3      OH2            13.4072112142      -22.6693457020        3.6129913663  W2        523             0.0000000000
      1568       523  TIP3      H1             12.5066412142      -22.4860857020        3.3453813663  W2        523             0.0000000000
      1569       523  TIP3      H2             13.4413212142      -22.4104157020        4.5338713663  W2        523             0.0000000000
      1570       524  TIP3      OH2            19.1385412142      -30.4245557020       -8.0197486337  W2        524             0.0000000000
      1571       524  TIP3      H1             18.5841712142      -30.8207557020       -8.6919986337  W2        524             0.0000000000
      1572       524  TIP3      H2             19.2389012142      -29.5140357020       -8.2974186337  W2        524             0.0000000000
      1573       525  TIP3      OH2            19.1017412142      -24.6243857020        4.8174013663  W2        525             0.0000000000
      1574       525  TIP3      H1             18.2505912142      -24.3860057020        4.4500413663  W2        525             0.0000000000
      1575       525  TIP3      H2             19.6920812142      -24.6410657020        4.0641113663  W2        525             0.0000000000
      1576       526  TIP3      OH2            17.4337112142      -21.6385157020       -7.5545386337  W2        526             0.0000000000
      1577       526  TIP3      H1             17.0608212142      -22.4641357020       -7.2454786337  W2        526             0.0000000000
      1578       526  TIP3      H2             17.7110612142      -21.8215757020       -8.4521986337  W2        526             0.0000000000
      1579       527  TIP3      OH2            14.5941012142      -26.8305657020       -0.5333486337  W2        527             0.0000000000
      1580       527  TIP3      H1             13.6657912142      -27.0623757020       -0.5604186337  W2        527             0.0000000000
      1581       527  TIP3      H2             15.0452112142      -27.6075857020       -0.8634686337  W2        527             0.0000000000
      1582       528  TIP3      OH2             7.1374112142      -22.5024057020       -4.4004786337  W2        528             0.0000000000
      1583       528  TIP3      H1              7.6646312142      -21.7289657020       -4.6005986337  W2        528             0.0000000000
      1584       528  TIP3      H2              6.2572612142      -22.2774857020       -4.7020786337  W2        528             0.0000000000
      1585       529  TIP3      OH2             2.8921812142      -27.6399957020       -9.8132386337  W2        529             0.0000000000
      1586       529  TIP3      H1              3.5081712142      -27.0132757020       -9.4337586337  W2        529             0.0000000000
      1587       529  TIP3      H2              2.0304412142      -27.3240157020       -9.5415886337  W2        529             0.0000000000
      1588       530  TIP3      OH2             8.5646412142      -24.8394157020       -4.8240486337  W2        530             0.0000000000
      1589       530  TIP3      H1              8.3236412142      -23.9139757020       -4.7825186337  W2        530             0.0000000000
      1590       530  TIP3      H2              7.8240012142      -25.2982857020       -4.4276586337  W2        530             0.0000000000
      1591       531  TIP3      OH2             9.0793012142      -20.6900557020        1.4910613663  W2        531             0.0000000000
      1592       531  TIP3      H1              9.4417712142      -19.8354957020        1.2575013663  W2        531             0.0000000000
      1593       531  TIP3      H2              9.6108212142      -20.9818957020        2.2316913663  W2        531             0.0000000000
      1594       532  TIP3      OH2             7.2477212142      -19.8176557020       -5.2788286337  W2        532             0.0000000000
      1595       532  TIP3      H1              6.2977712142      -19.7119157020       -5.2274986337  W2        532             0.0000000000
      1596       532  TIP3      H2              7.5995312142      -18.9969157020       -4.9340786337  W2        532             0.0000000000
      1597       533  TIP3      OH2            12.6233812142      -24.5909857020        1.1916213663  W2        533             0.0000000000
      1598       533  TIP3      H1             12.1975112142      -24.8188157020        2.0180213663  W2        533             0.0000000000
      1599       533  TIP3      H2             13.2039612142      -25.3298057020        1.0091513663  W2        533             0.0000000000
      1600       534  TIP3      OH2            14.8262712142      -23.6619357020       -9.7344786337  W2        534             0.0000000000
      1601       534  TIP3      H1             15.1795812142      -24.0419557020       -8.9301286337  W2        534             0.0000000000
      1602       534  TIP3      H2             13.8776212142      -23.7554557020       -9.6475486337  W2        534             0.0000000000
      1603       535  TIP3      OH2            15.2818012142      -20.0390357020        3.6611013663  W2        535             0.0000000000
      1604       535  TIP3      H1             14.6801212142      -20.5947457020        3.1657313663  W2        535             0.0000000000
      1605       535  TIP3      H2             15.5631712142      -19.3720557020        3.0348413663  W2        535             0.0000000000
      1606       536  TIP3      OH2            19.3297112142      -19.1826857020       -9.5334586337  W2        536             0.0000000000
      1607       536  TIP3      H1             20.0735012142      -18.5966357020       -9.6732986337  W2        536             0.0000000000
      1608       536  TIP3      H2             18.6355212142      -18.6141057020       -9.2002186337  W2        536             0.0000000000
      1609       537  TIP3      OH2             3.4043912142      -32.8062657020        3.0683613663  W2        537             0.0000000000
      1610       537  TIP3      H1              2.5116212142      -32.4677257020        3.0007613663  W2        537             0.0000000000
      1611       537  TIP3      H2              3.3056712142      -33.6616557020        3.4864413663  W2        537             0.0000000000
      1612       538  TIP3      OH2            15.6922012142      -24.9897357020       -7.5076886337  W2        538             0.0000000000
      1613       538  TIP3      H1             15.4149612142      -25.7178057020       -6.9515786337  W2        538             0.0000000000
      1614       538  TIP3      H2             16.6195012142      -24.8705357020       -7.3024286337  W2        538             0.0000000000
      1615       539  TIP3      OH2             3.0555912142      -21.0018257020        1.5033013663  W2        539             0.0000000000
      1616       539  TIP3      H1              3.2726212142      -21.9335857020        1.4722713663  W2        539             0.0000000000
      1617       539  TIP3      H2              3.3019412142      -20.7273257020        2.3865813663  W2        539             0.0000000000
      1618       540  TIP3      OH2             8.9170512142      -22.5503257020      -11.2874786337  W2        540             0.0000000000
      1619       540  TIP3      H1              9.1560312142      -23.2985157020      -11.8345886337  W2        540             0.0000000000
      1620       540  TIP3      H2              8.6481812142      -22.9381557020      -10.4546986337  W2        540             0.0000000000
      1621       541  TIP3      OH2             7.8541112142      -22.9799457020       -8.8312186337  W2        541             0.0000000000
      1622       541  TIP3      H1              8.0009112142      -23.4999657020       -8.0411286337  W2        541             0.0000000000
      1623       541  TIP3      H2              7.8512812142      -22.0731857020       -8.5246286337  W2        541             0.0000000000
      1624       542  TIP3      OH2             4.3072212142      -25.7276157020       -8.3206786337  W2        542             0.0000000000
      1625       542  TIP3      H1              3.6211512142      -25.3753657020       -7.7537086337  W2        542             0.0000000000
      1626       542  TIP3      H2              4.8300112142      -24.9646557020       -8.5672486337  W2        542             0.0000000000
      1627       543  TIP3      OH2            12.1387312142      -33.0652357020        1.9582213663  W2        543             0.0000000000
      1628       543  TIP3      H1             12.8375212142      -32.9913657020        2.6081913663  W2        543             0.0000000000
      1629       543  TIP3      H2             11.7578712142      -33.9297357020        2.1125113663  W2        543             0.0000000000
      1630       544  TIP3      OH2            12.9232212142      -33.4130657020       -6.9445486337  W2        544             0.0000000000
      1631       544  TIP3      H1             13.1430512142      -32.9415257020       -7.7480086337  W2        544             0.0000000000
      1632       544  TIP3      H2             13.4816212142      -33.0188057020       -6.2744886337  W2        544             0.0000000000
      1633       545  TIP3      OH2            10.5918312142      -21.2825857020       -8.0817986337  W2        545             0.0000000000
      1634       545  TIP3      H1              9.7754412142      -20.7856157020       -8.0293686337  W2        545             0.0000000000
      1635       545  TIP3      H2             11.1214612142      -20.8072357020       -8.7219186337  W2        545             0.0000000000
      1636       546  TIP3      OH2            10.1232112142      -31.6851857020       -6.1097086337  W2        546             0.0000000000
      1637       546  TIP3      H1             10.9354712142      -31.1808657020       -6.0635386337  W2        546             0.0000000000
      1638       546  TIP3      H2              9.8785112142      -31.8302157020       -5.1957486337  W2        546             0.0000000000
      1639       547  TIP3      OH2            10.6588512142      -30.6989157020        3.0749513663  W2        547             0.0000000000
      1640       547  TIP3      H1             10.7778812142      -30.1253757020        3.8319913663  W2        547             0.0000000000
      1641       547  TIP3      H2             11.3143112142      -31.3869757020        3.1897313663  W2        547             0.0000000000
      1642       548  TIP3      OH2            11.0068812142      -34.6038857020       -5.1715986337  W2        548             0.0000000000
      1643       548  TIP3      H1             10.6602312142      -33.9868257020       -4.5271686337  W2        548             0.0000000000
      1644       548  TIP3      H2             11.6655712142      -34.1033157020       -5.6530486337  W2        548             0.0000000000
      1645       549  TIP3      OH2             7.9301412142      -20.2388657020       -8.1001086337  W2        549             0.0000000000
      1646       549  TIP3      H1              8.0910112142      -19.4391157020       -8.6008486337  W2        549             0.0000000000
      1647       549  TIP3      H2              7.7329212142      -19.9322657020       -7.2150486337  W2        549             0.0000000000
      1648       550  TIP3      OH2             6.6645812142      -33.5409457020       -8.4843486337  W2        550             0.0000000000
      1649       550  TIP3      H1              6.5810612142      -32.6526357020       -8.1377086337  W2        550             0.0000000000
      1650       550  TIP3      H2              7.5546112142      -33.8062757020       -8.2526686337  W2        550             0.0000000000
      1651       551  TIP3      OH2            16.8634312142      -32.7918857020        3.9099213663  W2        551             0.0000000000
      1652       551  TIP3      H1             15.9470112142      -32.5297157020        3.8222913663  W2        551             0.0000000000
      1653       551  TIP3      H2             17.1989312142      -32.7949857020        3.0134513663  W2        551             0.0000000000
      1654       552  TIP3      OH2            15.4655312142      -29.0417857020       -1.9943486337  W2        552             0.0000000000
      1655       552  TIP3      H1             14.6679712142      -29.4567657020       -2.3228486337  W2        552             0.0000000000
      1656       552  TIP3      H2             15.9106412142      -29.7324157020       -1.5032986337  W2        552             0.0000000000
      1657       553  TIP3      OH2             4.9231112142      -23.1137257020       -9.4238986337  W2        553             0.0000000000
      1658       553  TIP3      H1              5.5152612142      -22.4142457020       -9.1476586337  W2        553             0.0000000000
      1659       553  TIP3      H2              5.3824112142      -23.5467757020      -10.1434386337  W2        553             0.0000000000
      1660       554  TIP3      OH2             3.2390312142      -30.4494257020      -10.3079586337  W2        554             0.0000000000
      1661       554  TIP3      H1              3.1942912142      -29.5101157020      -10.1292586337  W2        554             0.0000000000
      1662       554  TIP3      H2              2.3513512142      -30.6849357020      -10.5777486337  W2        554             0.0000000000
      1663       555  TIP3      OH2            16.5519912142      -19.7855357020       -0.3719986337  W2        555             0.0000000000
      1664       555  TIP3      H1             16.3964212142      -19.1070957020       -1.0290686337  W2        555             0.0000000000
      1665       555  TIP3      H2             17.4846312142      -19.7136057020       -0.1689386337  W2        555             0.0000000000
      1666       556  TIP3      OH2             4.0472312142      -35.6677657020       -1.6348586337  W2        556             0.0000000000
      1667       556  TIP3      H1              3.8182112142      -35.6085157020       -2.5623586337  W2        556             0.0000000000
      1668       556  TIP3      H2              3.6045712142      -36.4592157020       -1.3284486337  W2        556             0.0000000000
      1669       557  TIP3      OH2             2.9775612142      -21.7270557020       -5.4742786337  W2        557             0.0000000000
      1670       557  TIP3      H1              2.1454212142      -21.2547857020       -5.4471386337  W2        557             0.0000000000
      1671       557  TIP3      H2              3.5233912142      -21.2172957020       -6.0729686337  W2        557             0.0000000000
      1672       558  TIP3      OH2             2.2659312142      -19.1146857020        5.8555213663  W2        558             0.0000000000
      1673       558  TIP3      H1              2.8061512142      -19.3312857020        6.6154413663  W2        558             0.0000000000
      1674       558  TIP3      H2              1.7847312142      -19.9200857020        5.6657713663  W2        558             0.0000000000
      1675       559  TIP3      OH2             6.8632712142      -20.1952457020        7.4759413663  W2        559             0.0000000000
      1676       559  TIP3      H1              7.6309912142      -20.6541657020        7.8168613663  W2        559             0.0000000000
      1677       559  TIP3      H2              6.8418912142      -20.4212657020        6.5460613663  W2        559             0.0000000000
      1678       560  TIP3      OH2            10.9552312142      -20.6871857020      -11.1488786337  W2        560             0.0000000000
      1679       560  TIP3      H1             10.3113312142      -21.3183257020      -10.8275086337  W2        560             0.0000000000
      1680       560  TIP3      H2             11.7170612142      -21.2183857020      -11.3805286337  W2        560             0.0000000000
      1681       561  TIP3      OH2            13.4401412142      -21.8151357020        6.2050913663  W2        561             0.0000000000
      1682       561  TIP3      H1             13.0890912142      -22.6718357020        6.4481313663  W2        561             0.0000000000
      1683       561  TIP3      H2             14.1664612142      -21.6724657020        6.8119913663  W2        561             0.0000000000
      1684       562  TIP3      OH2            15.5595212142      -20.8701957020      -10.9150786337  W2        562             0.0000000000
      1685       562  TIP3      H1             15.8425612142      -21.6646757020      -10.4623886337  W2        562             0.0000000000
      1686       562  TIP3      H2             16.2993112142      -20.6370957020      -11.4759686337  W2        562             0.0000000000
      1687       563  TIP3      OH2             2.1728812142      -25.3042757020        6.8099513663  W2        563             0.0000000000
      1688       563  TIP3      H1              2.3169312142      -26.2062057020        6.5236213663  W2        563             0.0000000000
      1689       563  TIP3      H2              1.4006212142      -25.0180657020        6.3221813663  W2        563             0.0000000000
      1690       564  TIP3      OH2             6.5142512142      -24.9607057020      -11.0575886337  W2        564             0.0000000000
      1691       564  TIP3      H1              6.5786612142      -25.7547457020      -10.5269486337  W2        564             0.0000000000
      1692       564  TIP3      H2              7.1671712142      -25.0794257020      -11.7473886337  W2        564             0.0000000000
      1693       565  TIP3      OH2             8.8284912142      -25.3344657020        6.2425913663  W2        565             0.0000000000
      1694       565  TIP3      H1              8.4998712142      -25.0636557020        5.3853313663  W2        565             0.0000000000
      1695       565  TIP3      H2              8.9803112142      -26.2754857020        6.1550913663  W2        565             0.0000000000
      1696       566  TIP3      OH2            11.8665912142      -23.9135357020      -11.3217886337  W2        566             0.0000000000
      1697       566  TIP3      H1             11.5980012142      -23.7333257020      -10.4208986337  W2        566             0.0000000000
      1698       566  TIP3      H2             11.6601512142      -24.8389157020      -11.4532086337  W2        566             0.0000000000
      1699       567  TIP3      OH2            14.5630112142      -25.4187357020        3.6258213663  W2        567             0.0000000000
      1700       567  TIP3      H1             15.3084912142      -24.8303657020        3.5062213663  W2        567             0.0000000000
      1701       567  TIP3      H2             13.8056912142      -24.8367657020        3.6891313663  W2        567             0.0000000000
      1702       568  TIP3      OH2             3.0055312142      -28.1039457020        6.2298813663  W2        568             0.0000000000
      1703       568  TIP3      H1              3.4136512142      -28.9612857020        6.1089413663  W2        568             0.0000000000
      1704       568  TIP3      H2              2.7452912142      -28.0898157020        7.1509113663  W2        568             0.0000000000
      1705       569  TIP3      OH2             7.6636312142      -26.9880857020       -8.7517886337  W2        569             0.0000000000
      1706       569  TIP3      H1              7.2038312142      -27.4722557020       -8.0659386337  W2        569             0.0000000000
      1707       569  TIP3      H2              7.9185012142      -27.6565457020       -9.3877386337  W2        569             0.0000000000
      1708       570  TIP3      OH2             6.9525612142      -29.0953757020        3.6041713663  W2        570             0.0000000000
      1709       570  TIP3      H1              6.3341712142      -28.4207157020        3.8846413663  W2        570             0.0000000000
      1710       570  TIP3      H2              7.2966812142      -28.7739857020        2.7707913663  W2        570             0.0000000000
      1711       571  TIP3      OH2             8.7346712142      -28.7449057020      -10.4894686337  W2        571             0.0000000000
      1712       571  TIP3      H1              8.5541712142      -28.8997857020      -11.4166386337  W2        571             0.0000000000
      1713       571  TIP3      H2              9.6847212142      -28.6370357020      -10.4446786337  W2        571             0.0000000000
      1714       572  TIP3      OH2            11.9723812142      -26.6238457020        6.8816513663  W2        572             0.0000000000
      1715       572  TIP3      H1             12.9255012142      -26.5399357020        6.8542513663  W2        572             0.0000000000
      1716       572  TIP3      H2             11.8118412142      -27.3356657020        7.5011413663  W2        572             0.0000000000
      1717       573  TIP3      OH2            18.1245012142      -26.3904857020      -11.0436586337  W2        573             0.0000000000
      1718       573  TIP3      H1             17.8509812142      -26.8149357020      -11.8568286337  W2        573             0.0000000000
      1719       573  TIP3      H2             18.1639112142      -25.4590357020      -11.2606186337  W2        573             0.0000000000
      1720       574  TIP3      OH2             7.2919312142      -31.7402957020        4.6864813663  W2        574             0.0000000000
      1721       574  TIP3      H1              7.4420212142      -32.4691657020        4.0844513663  W2        574             0.0000000000
      1722       574  TIP3      H2              7.2941712142      -30.9631257020        4.1277013663  W2        574             0.0000000000
      1723       575  TIP3      OH2             7.7045012142      -33.3707157020        2.1792213663  W2        575             0.0000000000
      1724       575  TIP3      H1              8.2402512142      -32.9190457020        1.5271513663  W2        575             0.0000000000
      1725       575  TIP3      H2              6.8524612142      -33.4787357020        1.7566313663  W2        575             0.0000000000
      1726       576  TIP3      OH2             9.2863412142      -27.9310957020        2.4187413663  W2        576             0.0000000000
      1727       576  TIP3      H1             10.0368212142      -28.0873457020        1.8455213663  W2        576             0.0000000000
      1728       576  TIP3      H2              8.9471712142      -27.0794357020        2.1432913663  W2        576             0.0000000000
      1729       577  TIP3      OH2            13.7019612142      -30.1159157020        7.4472713663  W2        577             0.0000000000
      1730       577  TIP3      H1             13.8940912142      -31.0469757020        7.3357213663  W2        577             0.0000000000
      1731       577  TIP3      H2             14.5595912142      -29.6909657020        7.4368113663  W2        577             0.0000000000
      1732       578  TIP3      OH2            15.0186812142      -27.3273957020        5.5245413663  W2        578             0.0000000000
      1733       578  TIP3      H1             14.7371812142      -26.6179357020        4.9469213663  W2        578             0.0000000000
      1734       578  TIP3      H2             15.9611112142      -27.4000957020        5.3736613663  W2        578             0.0000000000
      1735       579  TIP3      OH2             5.7705612142      -30.5419457020        6.5980413663  W2        579             0.0000000000
      1736       579  TIP3      H1              5.0034612142      -31.0744657020        6.3878013663  W2        579             0.0000000000
      1737       579  TIP3      H2              6.4494612142      -30.8519057020        5.9986713663  W2        579             0.0000000000
      1738       580  TIP3      OH2             8.5100512142      -35.9141457020        2.6105813663  W2        580             0.0000000000
      1739       580  TIP3      H1              8.4120112142      -34.9678257020        2.5052013663  W2        580             0.0000000000
      1740       580  TIP3      H2              7.7676712142      -36.2867657020        2.1349313663  W2        580             0.0000000000
      1741       581  TIP3      OH2             9.7741012142      -31.5926057020        6.1744213663  W2        581             0.0000000000
      1742       581  TIP3      H1              9.5386412142      -31.8119357020        7.0759113663  W2        581             0.0000000000
      1743       581  TIP3      H2              8.9907912142      -31.7994857020        5.6646713663  W2        581             0.0000000000
      1744       582  TIP3      OH2            12.4897612142      -32.4652557020        5.2497713663  W2        582             0.0000000000
      1745       582  TIP3      H1             11.5423012142      -32.4332857020        5.3821013663  W2        582             0.0000000000
      1746       582  TIP3      H2             12.8024312142      -33.0905457020        5.9035913663  W2        582             0.0000000000
      1747       583  TIP3      OH2            14.1239112142      -33.8311457020        7.2549613663  W2        583             0.0000000000
      1748       583  TIP3      H1             14.0270912142      -34.7834157020        7.2491513663  W2        583             0.0000000000
      1749       583  TIP3      H2             13.8022212142      -33.5624657020        8.1155113663  W2        583             0.0000000000
      1750       584  TIP3      OH2             3.9508412142      -32.6215657020        6.3025113663  W2        584             0.0000000000
      1751       584  TIP3      H1              4.1625812142      -33.3279557020        5.6922613663  W2        584             0.0000000000
      1752       584  TIP3      H2              3.8395912142      -33.0589657020        7.1466313663  W2        584             0.0000000000
      1753       585  TIP3      OH2             8.7318612142      -36.6204057020        5.2818613663  W2        585             0.0000000000
      1754       585  TIP3      H1              9.4437012142      -37.2601857020        5.2677713663  W2        585             0.0000000000
      1755       585  TIP3      H2              8.6309012142      -36.3535757020        4.3681713663  W2        585             0.0000000000
      1756       586  TIP3      OH2             9.0856112142      -34.9375657020        7.3354913663  W2        586             0.0000000000
      1757       586  TIP3      H1              8.9538312142      -35.4131857020        6.5153413663  W2        586             0.0000000000
      1758       586  TIP3      H2              8.4863512142      -34.1932057020        7.2802013663  W2        586             0.0000000000
      1759       587  TIP3      OH2             8.6318412142      -18.0545357020       -9.4881086337  W2        587             0.0000000000
      1760       587  TIP3      H1              9.5649112142      -17.8966657020       -9.3442686337  W2        587             0.0000000000
      1761       587  TIP3      H2              8.3677212142      -17.3792357020      -10.1129586337  W2        587             0.0000000000
      1762       588  TIP3      OH2             2.2003312142      -23.4181557020      -10.0052986337  W2        588             0.0000000000
      1763       588  TIP3      H1              3.1142512142      -23.3392657020       -9.7319086337  W2        588             0.0000000000
      1764       588  TIP3      H2              2.2076412142      -24.1051957020      -10.6717386337  W2        588             0.0000000000
      1765       589  TIP3      OH2             0.8493912142      -18.0253057020       -4.9279086337  W2        589             0.0000000000
      1766       589  TIP3      H1              0.2021012142      -18.4871357020       -5.4607886337  W2        589             0.0000000000
      1767       589  TIP3      H2              1.2038512142      -18.6969757020       -4.3452886337  W2        589             0.0000000000
      1768       590  TIP3      OH2             1.7193112142      -19.9446057020       -3.1232886337  W2        590             0.0000000000
      1769       590  TIP3      H1              1.3849912142      -20.8248757020       -2.9512686337  W2        590             0.0000000000
      1770       590  TIP3      H2              1.9415512142      -19.5991057020       -2.2587286337  W2        590             0.0000000000
      1771       591  TIP3      OH2            19.2677912142      -19.1349657020       -0.1428086337  W2        591             0.0000000000
      1772       591  TIP3      H1             19.2464612142      -18.9501257020        0.7961313663  W2        591             0.0000000000
      1773       591  TIP3      H2             19.9584112142      -18.5665657020       -0.4836686337  W2        591             0.0000000000
      1774       592  TIP3      OH2            18.8310812142      -19.5678557020        2.7791013663  W2        592             0.0000000000
      1775       592  TIP3      H1             18.3439512142      -20.3034457020        2.4078413663  W2        592             0.0000000000
      1776       592  TIP3      H2             19.3803512142      -19.9614657020        3.4570413663  W2        592             0.0000000000
      1777       593  TIP3      OH2            17.2818112142      -23.7780457020        7.4171313663  W2        593             0.0000000000
      1778       593  TIP3      H1             16.4159212142      -23.8830757020        7.8113613663  W2        593             0.0000000000
      1779       593  TIP3      H2             17.6584012142      -23.0197157020        7.8636013663  W2        593             0.0000000000
      1780       594  TIP3      OH2            18.5827812142      -25.5216757020       -7.0686186337  W2        594             0.0000000000
      1781       594  TIP3      H1             19.4329212142      -25.1005857020       -6.9414586337  W2        594             0.0000000000
      1782       594  TIP3      H2             18.5882912142      -26.2616657020       -6.4614786337  W2        594             0.0000000000
      1783       595  TIP3      OH2            18.9773412142      -27.4679357020       -5.2450486337  W2        595             0.0000000000
      1784       595  TIP3      H1             18.2508012142      -27.9476757020       -4.8472886337  W2        595             0.0000000000
      1785       595  TIP3      H2             19.5586712142      -27.2624657020       -4.5128886337  W2        595             0.0000000000
      1786       596  TIP3      OH2            18.7364612142      -24.6831857020       -0.2972886337  W2        596             0.0000000000
      1787       596  TIP3      H1             19.5698812142      -25.0611857020       -0.5779286337  W2        596             0.0000000000
      1788       596  TIP3      H2             18.8484912142      -23.7400657020       -0.4163786337  W2        596             0.0000000000
      1789       597  TIP3      OH2            17.2226912142      -21.8054357020        2.0095513663  W2        597             0.0000000000
      1790       597  TIP3      H1             16.5752212142      -21.4802857020        2.6350713663  W2        597             0.0000000000
      1791       597  TIP3      H2             16.7050912142      -22.2456657020        1.3353813663  W2        597             0.0000000000
      1792       598  TIP3      OH2            19.2456512142      -27.5670857020       -8.8539186337  W2        598             0.0000000000
      1793       598  TIP3      H1             18.7237612142      -27.2106757020       -9.5728286337  W2        598             0.0000000000
      1794       598  TIP3      H2             19.2125712142      -26.8923057020       -8.1758286337  W2        598             0.0000000000
      1795       599  TIP3      OH2            17.5945512142      -30.3275257020      -10.3032086337  W2        599             0.0000000000
      1796       599  TIP3      H1             17.6909912142      -29.6608257020      -10.9832386337  W2        599             0.0000000000
      1797       599  TIP3      H2             17.4545112142      -31.1428957020      -10.7846586337  W2        599             0.0000000000
      1798       600  TIP3      OH2            16.7640212142      -28.9472857020       -4.6821786337  W2        600             0.0000000000
      1799       600  TIP3      H1             16.6139012142      -29.8924257020       -4.7023986337  W2        600             0.0000000000
      1800       600  TIP3      H2             16.4104712142      -28.6661457020       -3.8382686337  W2        600             0.0000000000
      1801       601  TIP3      OH2             1.7992612142      -26.8690657020       -0.6717986337  W2        601             0.0000000000
      1802       601  TIP3      H1              1.9835512142      -26.9508957020       -1.6075086337  W2        601             0.0000000000
      1803       601  TIP3      H2              2.6485512142      -26.9933657020       -0.2481586337  W2        601             0.0000000000
      1804       602  TIP3      OH2            17.6203112142      -26.9769557020        4.9566513663  W2        602             0.0000000000
      1805       602  TIP3      H1             18.2030412142      -27.7117257020        5.1483713663  W2        602             0.0000000000
      1806       602  TIP3      H2             18.1842412142      -26.2049257020        5.0032313663  W2        602             0.0000000000
      1807       603  TIP3      OH2            19.1170212142      -29.0743757020        5.6411913663  W2        603             0.0000000000
      1808       603  TIP3      H1             18.2536912142      -29.4531657020        5.4756613663  W2        603             0.0000000000
      1809       603  TIP3      H2             19.7213912142      -29.8128957020        5.5667713663  W2        603             0.0000000000
      1810       604  TIP3      OH2            16.8419312142      -32.9195457020      -11.1856586337  W2        604             0.0000000000
      1811       604  TIP3      H1             17.4525112142      -33.2908657020      -10.5488386337  W2        604             0.0000000000
      1812       604  TIP3      H2             16.0050812142      -33.3408557020      -10.9896586337  W2        604             0.0000000000
      1813       605  TIP3      OH2            16.4745012142      -31.3647057020       -6.2196686337  W2        605             0.0000000000
      1814       605  TIP3      H1             16.7542112142      -32.2716657020       -6.0954986337  W2        605             0.0000000000
      1815       605  TIP3      H2             17.2336712142      -30.9305557020       -6.6087486337  W2        605             0.0000000000
      1816       606  TIP3      OH2            17.0863312142      -30.7829657020       -0.7837786337  W2        606             0.0000000000
      1817       606  TIP3      H1             18.0191312142      -30.5709757020       -0.8181786337  W2        606             0.0000000000
      1818       606  TIP3      H2             16.8510812142      -30.6817557020        0.1385213663  W2        606             0.0000000000
      1819       607  TIP3      OH2            17.1155212142      -30.0464357020        1.9921613663  W2        607             0.0000000000
      1820       607  TIP3      H1             16.2726512142      -29.7783957020        2.3581413663  W2        607             0.0000000000
      1821       607  TIP3      H2             17.5579512142      -29.2242457020        1.7812713663  W2        607             0.0000000000
      1822       608  TIP3      OH2             1.3967412142      -31.5985657020        5.4690813663  W2        608             0.0000000000
      1823       608  TIP3      H1              2.3162312142      -31.7207357020        5.7053913663  W2        608             0.0000000000
      1824       608  TIP3      H2              0.9471912142      -32.3485957020        5.8584313663  W2        608             0.0000000000
      1825       609  TIP3      OH2            19.3986812142      -36.0664157020        7.3456613663  W2        609             0.0000000000
      1826       609  TIP3      H1             19.7483812142      -36.7200657020        6.7401313663  W2        609             0.0000000000
      1827       609  TIP3      H2             19.5456312142      -35.2290057020        6.9059213663  W2        609             0.0000000000
      1828       610  TIP3      OH2            17.0879812142      -34.1017757020       -6.1714686337  W2        610             0.0000000000
      1829       610  TIP3      H1             17.2704812142      -34.5506257020       -5.3459686337  W2        610             0.0000000000
      1830       610  TIP3      H2             16.4882712142      -34.6863357020       -6.6350086337  W2        610             0.0000000000
      1831       611  TIP3      OH2             2.6179912142      -33.2864057020       -1.6396286337  W2        611             0.0000000000
      1832       611  TIP3      H1              3.0631512142      -34.0781557020       -1.3376586337  W2        611             0.0000000000
      1833       611  TIP3      H2              3.0842912142      -32.5698857020       -1.2090686337  W2        611             0.0000000000
      1834       612  TIP3      OH2             0.9220212142      -30.2871057020       -0.5706086337  W2        612             0.0000000000
      1835       612  TIP3      H1              1.4140012142      -30.5080557020       -1.3614086337  W2        612             0.0000000000
      1836       612  TIP3      H2              1.2841112142      -29.4467657020       -0.2896586337  W2        612             0.0000000000
      1837       613  TIP3      OH2            18.9184012142      -33.9569557020        5.6947913663  W2        613             0.0000000000
      1838       613  TIP3      H1             18.0009712142      -33.6862457020        5.6591413663  W2        613             0.0000000000
      1839       613  TIP3      H2             19.0413412142      -34.4921157020        4.9107613663  W2        613             0.0000000000
      1840       614  TIP3      OH2            18.9546012142      -34.0339657020       -9.6434386337  W2        614             0.0000000000
      1841       614  TIP3      H1             19.3668612142      -34.7553957020      -10.1186386337  W2        614             0.0000000000
      1842       614  TIP3      H2             19.6362512142      -33.3645057020       -9.5850086337  W2        614             0.0000000000
      1843       615  TIP3      OH2             1.2356712142      -34.0291957020       -6.5163686337  W2        615             0.0000000000
      1844       615  TIP3      H1              0.3105112142      -33.8205357020       -6.6458186337  W2        615             0.0000000000
      1845       615  TIP3      H2              1.6896612142      -33.5451157020       -7.2061386337  W2        615             0.0000000000
      1846       616  TIP3      OH2            16.0063912142      -19.0450257020       -4.5706286337  W2        616             0.0000000000
      1847       616  TIP3      H1             16.6586812142      -19.3928157020       -5.1787186337  W2        616             0.0000000000
      1848       616  TIP3      H2             16.5167712142      -18.5567057020       -3.9246586337  W2        616             0.0000000000
      1849       617  TIP3      OH2             1.1992112142      -35.2912957020        1.8278813663  W2        617             0.0000000000
      1850       617  TIP3      H1              0.5342612142      -35.5372657020        2.4709713663  W2        617             0.0000000000
      1851       617  TIP3      H2              0.7563412142      -34.6692557020        1.2506813663  W2        617             0.0000000000
      1852       618  TIP3      OH2             3.3911412142      -22.1158857020        5.9724613663  W2        618             0.0000000000
      1853       618  TIP3      H1              2.5703912142      -21.9412357020        5.5119313663  W2        618             0.0000000000
      1854       618  TIP3      H2              3.1389212142      -22.1894157020        6.8929013663  W2        618             0.0000000000
      1855       619  TIP3      OH2             6.3454312142      -21.1417657020        2.2308613663  W2        619             0.0000000000
      1856       619  TIP3      H1              5.9205412142      -20.3319157020        1.9483213663  W2        619             0.0000000000
      1857       619  TIP3      H2              7.2497112142      -21.0563557020        1.9288413663  W2        619             0.0000000000
      1858       620  TIP3      OH2            10.6565712142      -19.7427657020        5.1902313663  W2        620             0.0000000000
      1859       620  TIP3      H1             10.8413212142      -20.0761557020        6.0682613663  W2        620             0.0000000000
      1860       620  TIP3      H2             11.5030212142      -19.4329057020        4.8681513663  W2        620             0.0000000000
      1861       621  TIP3      OH2            13.0016112142      -18.4568757020        4.4343713663  W2        621             0.0000000000
      1862       621  TIP3      H1             13.6785012142      -19.0896457020        4.1942913663  W2        621             0.0000000000
      1863       621  TIP3      H2             13.3234912142      -18.0558257020        5.2417013663  W2        621             0.0000000000
      1864       622  TIP3      OH2            17.9189912142      -35.8673257020        3.5138713663  W2        622             0.0000000000
      1865       622  TIP3      H1             17.1063412142      -35.5422957020        3.1263413663  W2        622             0.0000000000
      1866       622  TIP3      H2             18.1518412142      -36.6274757020        2.9807813663  W2        622             0.0000000000
      1867       623  TIP3      OH2             3.7471012142      -17.8853757020        2.2783913663  W2        623             0.0000000000
      1868       623  TIP3      H1              3.0267412142      -17.4452757020        1.8271613663  W2        623             0.0000000000
      1869       623  TIP3      H2              3.3815012142      -18.1359057020        3.1267913663  W2        623             0.0000000000
      1870       624  TIP3      OH2             6.2143612142      -18.2849857020        1.3081113663  W2        624             0.0000000000
      1871       624  TIP3      H1              5.3495812142      -18.2131357020        1.7121213663  W2        624             0.0000000000
      1872       624  TIP3      H2              6.1592612142      -17.7382557020        0.5243613663  W2        624             0.0000000000
      1873       625  TIP3      OH2            10.9249212142      -18.3970957020        0.4837113663  W2        625             0.0000000000
      1874       625  TIP3      H1             10.4683212142      -17.8681257020       -0.1704486337  W2        625             0.0000000000
      1875       625  TIP3      H2             11.0877212142      -17.7939557020        1.2089413663  W2        625             0.0000000000
      1876       626  TIP3      OH2            13.2525512142      -19.5191357020        1.4287413663  W2        626             0.0000000000
      1877       626  TIP3      H1             12.3479212142      -19.3541157020        1.1629513663  W2        626             0.0000000000
      1878       626  TIP3      H2             13.6814112142      -18.6659157020        1.3630813663  W2        626             0.0000000000
      1879       627  TIP3      OH2            15.8567412142      -17.9492257020        1.7235213663  W2        627             0.0000000000
      1880       627  TIP3      H1             15.6749412142      -17.0333357020        1.5130113663  W2        627             0.0000000000
      1881       627  TIP3      H2             16.0335212142      -18.3595157020        0.8769813663  W2        627             0.0000000000
      1882       628  TIP3      OH2             3.1619112142      -19.2621257020       -0.8114286337  W2        628             0.0000000000
      1883       628  TIP3      H1              3.1435112142      -19.6876157020        0.0458013663  W2        628             0.0000000000
      1884       628  TIP3      H2              3.9667012142      -19.5806257020       -1.2202086337  W2        628             0.0000000000
      1885       629  TIP3      OH2             5.3032212142      -20.5522557020       -2.1564386337  W2        629             0.0000000000
      1886       629  TIP3      H1              5.0842912142      -21.4685157020       -1.9868386337  W2        629             0.0000000000
      1887       629  TIP3      H2              6.1274412142      -20.4122157020       -1.6902986337  W2        629             0.0000000000
      1888       630  TIP3      OH2             7.8404712142      -20.0823257020       -1.3076386337  W2        630             0.0000000000
      1889       630  TIP3      H1              8.0530412142      -20.9704257020       -1.5945486337  W2        630             0.0000000000
      1890       630  TIP3      H2              7.9049812142      -20.1165557020       -0.3532386337  W2        630             0.0000000000
      1891       631  TIP3      OH2            11.3488412142      -34.4182657020       -2.1633086337  W2        631             0.0000000000
      1892       631  TIP3      H1             10.6745212142      -35.0477057020       -1.9077286337  W2        631             0.0000000000
      1893       631  TIP3      H2             11.9127612142      -34.9023757020       -2.7665186337  W2        631             0.0000000000
      1894       632  TIP3      OH2            16.4915612142      -36.3108657020       -2.0505986337  W2        632             0.0000000000
      1895       632  TIP3      H1             17.0953212142      -35.7633257020       -2.5524986337  W2        632             0.0000000000
      1896       632  TIP3      H2             15.6217612142      -35.9918257020       -2.2911886337  W2        632             0.0000000000
      1897       633  TIP3      OH2            18.2186012142      -35.1719957020       -3.7175086337  W2        633             0.0000000000
      1898       633  TIP3      H1             18.8303512142      -35.6864257020       -4.2441486337  W2        633             0.0000000000
      1899       633  TIP3      H2             18.6009412142      -34.2947857020       -3.6940686337  W2        633             0.0000000000
      1900       634  TIP3      OH2             3.6755912142      -35.7842357020       -4.3413186337  W2        634             0.0000000000
      1901       634  TIP3      H1              2.8985712142      -36.0187457020       -4.8487286337  W2        634             0.0000000000
      1902       634  TIP3      H2              4.2059512142      -36.5810257020       -4.3325186337  W2        634             0.0000000000
      1903       635  TIP3      OH2             2.5119312142      -35.9864257020       -8.5377086337  W2        635             0.0000000000
      1904       635  TIP3      H1              2.9510012142      -35.3753757020       -9.1293586337  W2        635             0.0000000000
      1905       635  TIP3      H2              1.8781712142      -35.4480157020       -8.0637086337  W2        635             0.0000000000
      1906       636  TIP3      OH2             8.2548512142      -35.8575257020       -4.5280086337  W2        636             0.0000000000
      1907       636  TIP3      H1              9.1291912142      -35.4690957020       -4.5575786337  W2        636             0.0000000000
      1908       636  TIP3      H2              8.1189312142      -36.0727457020       -3.6052886337  W2        636             0.0000000000
      1909       637  TIP3      OH2            13.8116912142      -35.8275457020       -2.8788386337  W2        637             0.0000000000
      1910       637  TIP3      H1             13.8878512142      -35.7323857020       -3.8282386337  W2        637             0.0000000000
      1911       637  TIP3      H2             13.5366112142      -36.7352557020       -2.7499286337  W2        637             0.0000000000
      1912       638  TIP3      OH2            15.1649512142      -35.8017657020       -7.1863386337  W2        638             0.0000000000
      1913       638  TIP3      H1             14.4620612142      -35.1868457020       -7.3961986337  W2        638             0.0000000000
      1914       638  TIP3      H2             14.7200912142      -36.6390957020       -7.0552486337  W2        638             0.0000000000
      1915       639  TIP3      OH2             2.4128812142      -20.0382057020       -7.6401986337  W2        639             0.0000000000
      1916       639  TIP3      H1              1.7278712142      -20.0763157020       -8.3076886337  W2        639             0.0000000000
      1917       639  TIP3      H2              2.4166012142      -19.1254457020       -7.3519886337  W2        639             0.0000000000
      1918       640  TIP3      OH2             4.3728412142      -34.0702757020      -10.0952986337  W2        640             0.0000000000
      1919       640  TIP3      H1              4.8641812142      -34.7000357020      -10.6227486337  W2        640             0.0000000000
      1920       640  TIP3      H2              4.9964712142      -33.7743357020       -9.4321786337  W2        640             0.0000000000
      1921       641  TIP3      OH2             9.3988512142      -33.7771257020       -7.6382486337  W2        641             0.0000000000
      1922       641  TIP3      H1              9.5769812142      -34.4238057020       -6.9553886337  W2        641             0.0000000000
      1923       641  TIP3      H2              9.3454712142      -32.9433557020       -7.1711386337  W2        641             0.0000000000
      1924       642  TIP3      OH2            11.2772312142      -18.8287157020       -9.2425786337  W2        642             0.0000000000
      1925       642  TIP3      H1             12.1432512142      -18.4619757020       -9.4207586337  W2        642             0.0000000000
      1926       642  TIP3      H2             11.0305112142      -19.2679157020      -10.0564986337  W2        642             0.0000000000
      1927       643  TIP3      OH2            17.9861912142      -19.2656857020       -6.5634686337  W2        643             0.0000000000
      1928       643  TIP3      H1             17.7919012142      -20.0134757020       -7.1285086337  W2        643             0.0000000000
      1929       643  TIP3      H2             17.9472012142      -18.5076757020       -7.1466786337  W2        643             0.0000000000
      1930       644  TIP3      OH2             3.6333912142      -35.2700457020        5.1763013663  W2        644             0.0000000000
      1931       644  TIP3      H1              3.2672112142      -36.0357857020        5.6187713663  W2        644             0.0000000000
      1932       644  TIP3      H2              4.5462412142      -35.2410257020        5.4628113663  W2        644             0.0000000000
      1933       645  TIP3      OH2             5.6064712142      -35.9196057020        6.7120113663  W2        645             0.0000000000
      1934       645  TIP3      H1              6.5048312142      -36.1935857020        6.5273513663  W2        645             0.0000000000
      1935       645  TIP3      H2              5.2197812142      -36.6620057020        7.1762713663  W2        645             0.0000000000
      1936       646  TIP3      OH2             4.2310012142      -19.1181257020      -10.6149886337  W2        646             0.0000000000
      1937       646  TIP3      H1              3.9634612142      -18.8318357020       -9.7416786337  W2        646             0.0000000000
      1938       646  TIP3      H2              5.0022612142      -19.6642057020      -10.4627386337  W2        646             0.0000000000
      1939       647  TIP3      OH2            14.0277012142      -36.5870757020        6.8942913663  W2        647             0.0000000000
      1940       647  TIP3      H1             14.1044212142      -37.0130057020        7.7480613663  W2        647             0.0000000000
      1941       647  TIP3      H2             14.9213612142      -36.5736057020        6.5516413663  W2        647             0.0000000000
      1942       648  TIP3      OH2            17.2038112142      -20.5144457020        5.5867113663  W2        648             0.0000000000
      1943       648  TIP3      H1             16.4220012142      -20.7006457020        5.0667713663  W2        648             0.0000000000
      1944       648  TIP3      H2             17.1318012142      -19.5850157020        5.8039613663  W2        648             0.0000000000
      1945       649  TIP3      OH2            31.6098512142      -26.6280057020       -4.3825686337  W2        649             0.0000000000
      1946       649  TIP3      H1             31.6989612142      -25.6841857020       -4.5148586337  W2        649             0.0000000000
      1947       649  TIP3      H2             30.9716112142      -26.9033657020       -5.0406286337  W2        649             0.0000000000
      1948       650  TIP3      OH2            30.5429812142      -27.3729357020       -0.9637486337  W2        650             0.0000000000
      1949       650  TIP3      H1             30.5047312142      -28.0193057020       -0.2587886337  W2        650             0.0000000000
      1950       650  TIP3      H2             30.2206312142      -27.8394957020       -1.7348786337  W2        650             0.0000000000
      1951       651  TIP3      OH2            22.9114812142      -27.7587257020        0.6292413663  W2        651             0.0000000000
      1952       651  TIP3      H1             22.9526912142      -28.3843957020        1.3524813663  W2        651             0.0000000000
      1953       651  TIP3      H2             23.6142512142      -27.1348657020        0.8112813663  W2        651             0.0000000000
      1954       652  TIP3      OH2            34.2490012142      -24.4338957020       -2.6622386337  W2        652             0.0000000000
      1955       652  TIP3      H1             33.8082712142      -25.1542957020       -2.2116786337  W2        652             0.0000000000
      1956       652  TIP3      H2             34.2359712142      -23.7131757020       -2.0324686337  W2        652             0.0000000000
      1957       653  TIP3      OH2            23.8347912142      -23.3088357020       -0.8358486337  W2        653             0.0000000000
      1958       653  TIP3      H1             23.4653112142      -24.1107857020       -1.2054186337  W2        653             0.0000000000
      1959       653  TIP3      H2             24.7759012142      -23.4773457020       -0.7895086337  W2        653             0.0000000000
      1960       654  TIP3      OH2            20.4448412142      -29.6485757020       -5.4429686337  W2        654             0.0000000000
      1961       654  TIP3      H1             19.9971812142      -28.8027057020       -5.4613186337  W2        654             0.0000000000
      1962       654  TIP3      H2             19.8839612142      -30.2281557020       -5.9584586337  W2        654             0.0000000000
      1963       655  TIP3      OH2            21.1554512142      -27.4866157020       -3.3171686337  W2        655             0.0000000000
      1964       655  TIP3      H1             21.3688012142      -28.2564557020       -2.7898686337  W2        655             0.0000000000
      1965       655  TIP3      H2             21.8932112142      -27.3969457020       -3.9204086337  W2        655             0.0000000000
      1966       656  TIP3      OH2            31.3605512142      -19.3297257020       -2.4501986337  W2        656             0.0000000000
      1967       656  TIP3      H1             31.9801912142      -20.0062557020       -2.7232786337  W2        656             0.0000000000
      1968       656  TIP3      H2             31.1522912142      -19.5476457020       -1.5417086337  W2        656             0.0000000000
      1969       657  TIP3      OH2            28.9324212142      -24.9407957020       -0.5576486337  W2        657             0.0000000000
      1970       657  TIP3      H1             29.2362112142      -25.6266557020       -1.1522386337  W2        657             0.0000000000
      1971       657  TIP3      H2             29.6538212142      -24.8219257020        0.0601513663  W2        657             0.0000000000
      1972       658  TIP3      OH2            32.0731212142      -30.5465557020       -0.2301686337  W2        658             0.0000000000
      1973       658  TIP3      H1             32.2157112142      -31.4928557020       -0.2100086337  W2        658             0.0000000000
      1974       658  TIP3      H2             31.9670212142      -30.3395757020       -1.1586786337  W2        658             0.0000000000
      1975       659  TIP3      OH2            25.2279512142      -32.4449157020       -2.9576886337  W2        659             0.0000000000
      1976       659  TIP3      H1             25.2710612142      -31.5850657020       -3.3760586337  W2        659             0.0000000000
      1977       659  TIP3      H2             24.7703612142      -32.9974457020       -3.5913686337  W2        659             0.0000000000
      1978       660  TIP3      OH2            32.9502212142      -32.3143557020       -4.5568586337  W2        660             0.0000000000
      1979       660  TIP3      H1             33.5966512142      -32.6430357020       -3.9320986337  W2        660             0.0000000000
      1980       660  TIP3      H2             33.4601612142      -31.7964557020       -5.1797186337  W2        660             0.0000000000
      1981       661  TIP3      OH2            21.8481012142      -30.0483357020       -2.1955486337  W2        661             0.0000000000
      1982       661  TIP3      H1             22.5017612142      -30.5981657020       -1.7635386337  W2        661             0.0000000000
      1983       661  TIP3      H2             21.8720312142      -30.3224357020       -3.1123486337  W2        661             0.0000000000
      1984       662  TIP3      OH2            27.0045512142      -28.4982057020       -2.9803986337  W2        662             0.0000000000
      1985       662  TIP3      H1             27.6206512142      -29.0246657020       -2.4709986337  W2        662             0.0000000000
      1986       662  TIP3      H2             26.4184312142      -29.1383357020       -3.3840386337  W2        662             0.0000000000
      1987       663  TIP3      OH2            24.0381412142      -33.5270757020        1.1163913663  W2        663             0.0000000000
      1988       663  TIP3      H1             23.8193112142      -32.9970157020        0.3499913663  W2        663             0.0000000000
      1989       663  TIP3      H2             23.3702312142      -33.3005257020        1.7635313663  W2        663             0.0000000000
      1990       664  TIP3      OH2            31.4071212142      -24.0269657020       -5.3396986337  W2        664             0.0000000000
      1991       664  TIP3      H1             31.1116312142      -24.3497357020       -6.1910086337  W2        664             0.0000000000
      1992       664  TIP3      H2             31.0829012142      -23.1272957020       -5.2984386337  W2        664             0.0000000000
      1993       665  TIP3      OH2            26.6072812142      -25.8515057020        1.4037613663  W2        665             0.0000000000
      1994       665  TIP3      H1             25.8671912142      -25.2533557020        1.5072813663  W2        665             0.0000000000
      1995       665  TIP3      H2             27.3212312142      -25.2975457020        1.0881213663  W2        665             0.0000000000
      1996       666  TIP3      OH2            34.7140612142      -33.0234257020       -2.5762686337  W2        666             0.0000000000
      1997       666  TIP3      H1             34.4988612142      -33.7890857020       -2.0436686337  W2        666             0.0000000000
      1998       666  TIP3      H2             35.3698012142      -32.5509657020       -2.0634186337  W2        666             0.0000000000
      1999       667  TIP3      OH2            23.6318712142      -31.6348957020       -0.9313886337  W2        667             0.0000000000
      2000       667  TIP3      H1             24.2455012142      -31.0021357020       -0.5581486337  W2        667             0.0000000000
      2001       667  TIP3      H2             24.1439412142      -32.1073957020       -1.5876986337  W2        667             0.0000000000
      2002       668  TIP3      OH2            25.0147112142      -23.8872057020        2.1909113663  W2        668             0.0000000000
      2003       668  TIP3      H1             25.0094712142      -23.0078557020        1.8128413663  W2        668             0.0000000000
      2004       668  TIP3      H2             24.1611212142      -23.9707957020        2.6159013663  W2        668             0.0000000000
      2005       669  TIP3      OH2            21.1358012142      -24.2164157020       -7.0271586337  W2        669             0.0000000000
      2006       669  TIP3      H1             20.8638912142      -23.9873157020       -7.9158686337  W2        669             0.0000000000
      2007       669  TIP3      H2             21.1813712142      -23.3785357020       -6.5666286337  W2        669             0.0000000000
      2008       670  TIP3      OH2            34.7607712142      -22.5948257020       -0.3143086337  W2        670             0.0000000000
      2009       670  TIP3      H1             33.8191412142      -22.5364357020       -0.1526186337  W2        670             0.0000000000
      2010       670  TIP3      H2             35.0373812142      -21.6887757020       -0.4513386337  W2        670             0.0000000000
      2011       671  TIP3      OH2            35.0614712142      -34.3082957020        1.1030813663  W2        671             0.0000000000
      2012       671  TIP3      H1             34.3253912142      -33.6975857020        1.0652113663  W2        671             0.0000000000
      2013       671  TIP3      H2             35.7448712142      -33.8933957020        0.5767213663  W2        671             0.0000000000
      2014       672  TIP3      OH2            28.0646112142      -36.2215657020       -1.4311186337  W2        672             0.0000000000
      2015       672  TIP3      H1             27.9470312142      -37.1699657020       -1.4852886337  W2        672             0.0000000000
      2016       672  TIP3      H2             27.2096212142      -35.8889557020       -1.1580086337  W2        672             0.0000000000
      2017       673  TIP3      OH2            33.0128912142      -20.8134757020       -3.6891486337  W2        673             0.0000000000
      2018       673  TIP3      H1             33.4381212142      -21.5206857020       -4.1741886337  W2        673             0.0000000000
      2019       673  TIP3      H2             33.3298912142      -20.0122057020       -4.1059286337  W2        673             0.0000000000
      2020       674  TIP3      OH2            34.1725412142      -22.9126257020       -5.1804886337  W2        674             0.0000000000
      2021       674  TIP3      H1             33.9150212142      -23.6026157020       -5.7918986337  W2        674             0.0000000000
      2022       674  TIP3      H2             34.2436212142      -23.3555057020       -4.3348986337  W2        674             0.0000000000
      2023       675  TIP3      OH2            35.8585612142      -24.3459557020        3.2968613663  W2        675             0.0000000000
      2024       675  TIP3      H1             35.9981912142      -24.9377057020        2.5575613663  W2        675             0.0000000000
      2025       675  TIP3      H2             36.0258412142      -23.4733657020        2.9407413663  W2        675             0.0000000000
      2026       676  TIP3      OH2            30.3311012142      -27.3840057020       -6.9305386337  W2        676             0.0000000000
      2027       676  TIP3      H1             29.6196512142      -26.8490357020       -7.2824886337  W2        676             0.0000000000
      2028       676  TIP3      H2             31.0220612142      -27.3287957020       -7.5906486337  W2        676             0.0000000000
      2029       677  TIP3      OH2            30.3850212142      -28.9265757020       -9.8920386337  W2        677             0.0000000000
      2030       677  TIP3      H1             31.0860112142      -28.9038857020       -9.2406386337  W2        677             0.0000000000
      2031       677  TIP3      H2             30.6873112142      -29.5546057020      -10.5481086337  W2        677             0.0000000000
      2032       678  TIP3      OH2            33.7368712142      -27.1746757020       -5.9789486337  W2        678             0.0000000000
      2033       678  TIP3      H1             33.0049712142      -26.9463057020       -5.4058886337  W2        678             0.0000000000
      2034       678  TIP3      H2             34.1840912142      -27.8884057020       -5.5241986337  W2        678             0.0000000000
      2035       679  TIP3      OH2            33.6342212142      -29.0004157020        3.0887513663  W2        679             0.0000000000
      2036       679  TIP3      H1             33.7141312142      -28.2369757020        3.6606013663  W2        679             0.0000000000
      2037       679  TIP3      H2             33.0329912142      -28.7211757020        2.3982613663  W2        679             0.0000000000
      2038       680  TIP3      OH2            25.3822412142      -26.5440557020       -4.0964486337  W2        680             0.0000000000
      2039       680  TIP3      H1             25.0517612142      -26.9147157020       -4.9147486337  W2        680             0.0000000000
      2040       680  TIP3      H2             25.9706512142      -27.2146557020       -3.7496186337  W2        680             0.0000000000
      2041       681  TIP3      OH2            26.7489912142      -23.1159957020       -1.4152286337  W2        681             0.0000000000
      2042       681  TIP3      H1             26.6541212142      -23.6946857020       -2.1717686337  W2        681             0.0000000000
      2043       681  TIP3      H2             27.4783512142      -23.4874257020       -0.9189486337  W2        681             0.0000000000
      2044       682  TIP3      OH2            25.7487912142      -27.7754957020       -0.4629486337  W2        682             0.0000000000
      2045       682  TIP3      H1             26.3140412142      -27.6540757020       -1.2258286337  W2        682             0.0000000000
      2046       682  TIP3      H2             26.0676812142      -27.1379957020        0.1759013663  W2        682             0.0000000000
      2047       683  TIP3      OH2            32.0580112142      -22.2723057020        0.2711013663  W2        683             0.0000000000
      2048       683  TIP3      H1             31.8176712142      -21.6099957020        0.9190213663  W2        683             0.0000000000
      2049       683  TIP3      H2             31.8598312142      -23.1067857020        0.6960613663  W2        683             0.0000000000
      2050       684  TIP3      OH2            26.6288612142      -23.3762257020        4.2542413663  W2        684             0.0000000000
      2051       684  TIP3      H1             26.3176112142      -22.5939057020        4.7095613663  W2        684             0.0000000000
      2052       684  TIP3      H2             25.9788812142      -23.5293157020        3.5684413663  W2        684             0.0000000000
      2053       685  TIP3      OH2            32.6078212142      -28.0123857020       -8.2938286337  W2        685             0.0000000000
      2054       685  TIP3      H1             33.1873712142      -27.8623557020       -7.5469386337  W2        685             0.0000000000
      2055       685  TIP3      H2             33.0218212142      -27.5416457020       -9.0171886337  W2        685             0.0000000000
      2056       686  TIP3      OH2            23.5488512142      -27.1781157020        3.4828113663  W2        686             0.0000000000
      2057       686  TIP3      H1             23.6191712142      -26.5274357020        4.1813113663  W2        686             0.0000000000
      2058       686  TIP3      H2             22.6580712142      -27.0753657020        3.1479013663  W2        686             0.0000000000
      2059       687  TIP3      OH2            30.3343112142      -21.2755357020       -4.8585186337  W2        687             0.0000000000
      2060       687  TIP3      H1             30.8080712142      -20.9799057020       -4.0810986337  W2        687             0.0000000000
      2061       687  TIP3      H2             29.7712412142      -20.5373757020       -5.0915586337  W2        687             0.0000000000
      2062       688  TIP3      OH2            24.8684512142      -21.3047257020        5.0176213663  W2        688             0.0000000000
      2063       688  TIP3      H1             24.8759812142      -21.4407557020        4.0701713663  W2        688             0.0000000000
      2064       688  TIP3      H2             23.9524912142      -21.4219157020        5.2696213663  W2        688             0.0000000000
      2065       689  TIP3      OH2            36.3066612142      -36.2623457020       -8.4808586337  W2        689             0.0000000000
      2066       689  TIP3      H1             35.4067312142      -36.1234457020       -8.1857986337  W2        689             0.0000000000
      2067       689  TIP3      H2             36.5585012142      -35.4308857020       -8.8826886337  W2        689             0.0000000000
      2068       690  TIP3      OH2            24.3725112142      -27.4746257020       -6.5071686337  W2        690             0.0000000000
      2069       690  TIP3      H1             24.0806412142      -26.7064557020       -6.9980386337  W2        690             0.0000000000
      2070       690  TIP3      H2             23.6980312142      -28.1340057020       -6.6700286337  W2        690             0.0000000000
      2071       691  TIP3      OH2            20.4655212142      -25.1117057020        2.3078113663  W2        691             0.0000000000
      2072       691  TIP3      H1             19.9643612142      -25.1397657020        1.4927813663  W2        691             0.0000000000
      2073       691  TIP3      H2             20.4708912142      -26.0173857020        2.6175413663  W2        691             0.0000000000
      2074       692  TIP3      OH2            20.2157912142      -22.3313257020       -0.8081686337  W2        692             0.0000000000
      2075       692  TIP3      H1             21.1618512142      -22.4756257020       -0.8272186337  W2        692             0.0000000000
      2076       692  TIP3      H2             20.1034212142      -21.5470457020       -0.2710486337  W2        692             0.0000000000
      2077       693  TIP3      OH2            29.3920412142      -22.0914357020        3.7503413663  W2        693             0.0000000000
      2078       693  TIP3      H1             29.4795012142      -21.2649757020        4.2252513663  W2        693             0.0000000000
      2079       693  TIP3      H2             28.5285512142      -22.4210557020        3.9992713663  W2        693             0.0000000000
      2080       694  TIP3      OH2            29.8066212142      -18.3190657020       -6.4435986337  W2        694             0.0000000000
      2081       694  TIP3      H1             29.7312212142      -18.4403457020       -7.3900786337  W2        694             0.0000000000
      2082       694  TIP3      H2             29.8394912142      -17.3697957020       -6.3251386337  W2        694             0.0000000000
      2083       695  TIP3      OH2            23.4600012142      -19.5303657020       -4.6626986337  W2        695             0.0000000000
      2084       695  TIP3      H1             23.6120412142      -19.8783257020       -3.7840486337  W2        695             0.0000000000
      2085       695  TIP3      H2             22.6090412142      -19.8866357020       -4.9179786337  W2        695             0.0000000000
      2086       696  TIP3      OH2            32.9082212142      -19.1650457020       -9.4413586337  W2        696             0.0000000000
      2087       696  TIP3      H1             33.2830612142      -19.9094357020       -9.9120986337  W2        696             0.0000000000
      2088       696  TIP3      H2             32.9125912142      -19.4349857020       -8.5230286337  W2        696             0.0000000000
      2089       697  TIP3      OH2            32.5770312142      -19.2393357020       -6.6921386337  W2        697             0.0000000000
      2090       697  TIP3      H1             31.6420112142      -19.1391457020       -6.5134386337  W2        697             0.0000000000
      2091       697  TIP3      H2             32.8572212142      -19.9487357020       -6.1138186337  W2        697             0.0000000000
      2092       698  TIP3      OH2            35.5656212142      -30.1721057020        5.3544213663  W2        698             0.0000000000
      2093       698  TIP3      H1             35.1583012142      -29.6915457020        4.6337513663  W2        698             0.0000000000
      2094       698  TIP3      H2             35.6061912142      -31.0775057020        5.0465013663  W2        698             0.0000000000
      2095       699  TIP3      OH2            22.7145712142      -23.7881657020        3.3510913663  W2        699             0.0000000000
      2096       699  TIP3      H1             22.9307012142      -24.1496057020        4.2106713663  W2        699             0.0000000000
      2097       699  TIP3      H2             21.8590412142      -24.1627857020        3.1414413663  W2        699             0.0000000000
      2098       700  TIP3      OH2            25.3333712142      -35.3181157020       -0.6534886337  W2        700             0.0000000000
      2099       700  TIP3      H1             24.4717412142      -35.4052957020       -1.0611986337  W2        700             0.0000000000
      2100       700  TIP3      H2             25.3109412142      -34.4621057020       -0.2257286337  W2        700             0.0000000000
      2101       701  TIP3      OH2            29.9961512142      -35.5960757020        2.7212113663  W2        701             0.0000000000
      2102       701  TIP3      H1             30.4164612142      -36.0113657020        3.4742713663  W2        701             0.0000000000
      2103       701  TIP3      H2             29.0631112142      -35.7747457020        2.8384113663  W2        701             0.0000000000
      2104       702  TIP3      OH2            33.3226412142      -31.8405557020        3.5746613663  W2        702             0.0000000000
      2105       702  TIP3      H1             32.8085912142      -31.9663357020        4.3722613663  W2        702             0.0000000000
      2106       702  TIP3      H2             33.1671112142      -30.9282457020        3.3302813663  W2        702             0.0000000000
      2107       703  TIP3      OH2            34.0851312142      -26.9795557020      -10.6640386337  W2        703             0.0000000000
      2108       703  TIP3      H1             34.1272112142      -27.2021657020      -11.5940386337  W2        703             0.0000000000
      2109       703  TIP3      H2             34.9343412142      -26.5808457020      -10.4740486337  W2        703             0.0000000000
      2110       704  TIP3      OH2            29.6578812142      -33.1037357020       -9.9937086337  W2        704             0.0000000000
      2111       704  TIP3      H1             29.4043612142      -33.0845757020       -9.0708986337  W2        704             0.0000000000
      2112       704  TIP3      H2             29.4010912142      -33.9751957020      -10.2950886337  W2        704             0.0000000000
      2113       705  TIP3      OH2            25.4243812142      -30.3526657020        0.4415313663  W2        705             0.0000000000
      2114       705  TIP3      H1             24.7825912142      -30.3929357020        1.1505413663  W2        705             0.0000000000
      2115       705  TIP3      H2             25.4615812142      -29.4261957020        0.2038313663  W2        705             0.0000000000
      2116       706  TIP3      OH2            25.4212912142      -30.1316557020       -4.6464686337  W2        706             0.0000000000
      2117       706  TIP3      H1             24.5285812142      -30.4720457020       -4.7050886337  W2        706             0.0000000000
      2118       706  TIP3      H2             25.8719512142      -30.5085657020       -5.4021486337  W2        706             0.0000000000
      2119       707  TIP3      OH2            30.9568412142      -29.7156257020       -5.8293886337  W2        707             0.0000000000
      2120       707  TIP3      H1             30.5478712142      -28.9007657020       -6.1209086337  W2        707             0.0000000000
      2121       707  TIP3      H2             31.6774612142      -29.8556157020       -6.4436786337  W2        707             0.0000000000
      2122       708  TIP3      OH2            30.0590012142      -29.5399857020        5.6586813663  W2        708             0.0000000000
      2123       708  TIP3      H1             29.4963812142      -30.2448257020        5.9794613663  W2        708             0.0000000000
      2124       708  TIP3      H2             30.8853412142      -29.6607957020        6.1264413663  W2        708             0.0000000000
      2125       709  TIP3      OH2            31.9616112142      -30.2695857020       -3.0154186337  W2        709             0.0000000000
      2126       709  TIP3      H1             31.7660612142      -29.6639057020       -3.7303586337  W2        709             0.0000000000
      2127       709  TIP3      H2             32.1428712142      -31.1030657020       -3.4497886337  W2        709             0.0000000000
      2128       710  TIP3      OH2            23.1744312142      -30.0323157020        2.3087313663  W2        710             0.0000000000
      2129       710  TIP3      H1             23.1363712142      -29.6321557020        3.1774413663  W2        710             0.0000000000
      2130       710  TIP3      H2             22.6835412142      -30.8490757020        2.3990213663  W2        710             0.0000000000
      2131       711  TIP3      OH2            26.5401712142      -32.6580857020      -10.8926686337  W2        711             0.0000000000
      2132       711  TIP3      H1             26.1092412142      -33.1030757020      -10.1629286337  W2        711             0.0000000000
      2133       711  TIP3      H2             25.8220412142      -32.2864557020      -11.4049186337  W2        711             0.0000000000
      2134       712  TIP3      OH2            19.7825112142      -32.9161357020       -3.8407986337  W2        712             0.0000000000
      2135       712  TIP3      H1             20.4132812142      -32.9449257020       -3.1214086337  W2        712             0.0000000000
      2136       712  TIP3      H2             20.2319412142      -33.3412657020       -4.5712086337  W2        712             0.0000000000
      2137       713  TIP3      OH2            21.0567212142      -32.1699357020       -8.4167586337  W2        713             0.0000000000
      2138       713  TIP3      H1             21.5308912142      -31.5789457020       -9.0016686337  W2        713             0.0000000000
      2139       713  TIP3      H2             20.3393612142      -31.6396457020       -8.0697486337  W2        713             0.0000000000
      2140       714  TIP3      OH2            31.2255312142      -28.6314557020        1.6558213663  W2        714             0.0000000000
      2141       714  TIP3      H1             31.5490112142      -29.2624857020        1.0128713663  W2        714             0.0000000000
      2142       714  TIP3      H2             30.7854612142      -29.1662357020        2.3165613663  W2        714             0.0000000000
      2143       715  TIP3      OH2            28.0028212142      -32.7039057020       -3.5600586337  W2        715             0.0000000000
      2144       715  TIP3      H1             27.0919312142      -32.6472257020       -3.2714586337  W2        715             0.0000000000
      2145       715  TIP3      H2             28.5081112142      -32.7643557020       -2.7493386337  W2        715             0.0000000000
      2146       716  TIP3      OH2            22.8311612142      -31.0752757020       -4.7332986337  W2        716             0.0000000000
      2147       716  TIP3      H1             21.9419612142      -30.9757257020       -5.0733386337  W2        716             0.0000000000
      2148       716  TIP3      H2             23.1276512142      -31.9169757020       -5.0795086337  W2        716             0.0000000000
      2149       717  TIP3      OH2            26.4843412142      -31.0750157020       -7.0768386337  W2        717             0.0000000000
      2150       717  TIP3      H1             27.4158912142      -30.9460157020       -6.8985286337  W2        717             0.0000000000
      2151       717  TIP3      H2             26.2693712142      -30.4055857020       -7.7263686337  W2        717             0.0000000000
      2152       718  TIP3      OH2            32.4080112142      -33.4692757020       -0.2958786337  W2        718             0.0000000000
      2153       718  TIP3      H1             31.7311712142      -33.3379657020        0.3680913663  W2        718             0.0000000000
      2154       718  TIP3      H2             31.9225012142      -33.6243257020       -1.1061086337  W2        718             0.0000000000
      2155       719  TIP3      OH2            25.1583612142      -29.8807957020       -9.5102286337  W2        719             0.0000000000
      2156       719  TIP3      H1             24.6158712142      -30.2604157020      -10.2014686337  W2        719             0.0000000000
      2157       719  TIP3      H2             25.9918512142      -29.6863257020       -9.9388186337  W2        719             0.0000000000
      2158       720  TIP3      OH2            35.6955212142      -17.7977357020        5.9808813663  W2        720             0.0000000000
      2159       720  TIP3      H1             35.8953912142      -17.3735457020        5.1464113663  W2        720             0.0000000000
      2160       720  TIP3      H2             36.3508912142      -17.4539157020        6.5879213663  W2        720             0.0000000000
      2161       721  TIP3      OH2            23.2935012142      -25.3236057020        5.5889313663  W2        721             0.0000000000
      2162       721  TIP3      H1             24.0257412142      -25.0690157020        6.1503813663  W2        721             0.0000000000
      2163       721  TIP3      H2             22.5133712142      -25.1190657020        6.1044713663  W2        721             0.0000000000
      2164       722  TIP3      OH2            29.3227912142      -29.9166057020       -1.6730986337  W2        722             0.0000000000
      2165       722  TIP3      H1             29.8871312142      -30.4629457020       -2.2201386337  W2        722             0.0000000000
      2166       722  TIP3      H2             29.1751312142      -30.4384157020       -0.8843386337  W2        722             0.0000000000
      2167       723  TIP3      OH2            24.3247612142      -33.7799957020       -5.2546186337  W2        723             0.0000000000
      2168       723  TIP3      H1             24.0077112142      -34.6824657020       -5.2900786337  W2        723             0.0000000000
      2169       723  TIP3      H2             25.1061712142      -33.7782557020       -5.8074586337  W2        723             0.0000000000
      2170       724  TIP3      OH2            27.9493812142      -31.5279957020        0.7409413663  W2        724             0.0000000000
      2171       724  TIP3      H1             27.1139112142      -31.0740457020        0.8511813663  W2        724             0.0000000000
      2172       724  TIP3      H2             28.4734412142      -31.2521457020        1.4929313663  W2        724             0.0000000000
      2173       725  TIP3      OH2            28.4936412142      -25.3152257020       -7.5744186337  W2        725             0.0000000000
      2174       725  TIP3      H1             27.7487412142      -25.8226957020       -7.8966286337  W2        725             0.0000000000
      2175       725  TIP3      H2             28.3593612142      -25.2664257020       -6.6279386337  W2        725             0.0000000000
      2176       726  TIP3      OH2            35.6435312142      -26.1824057020        1.2123413663  W2        726             0.0000000000
      2177       726  TIP3      H1             36.2854112142      -25.7257757020        0.6685613663  W2        726             0.0000000000
      2178       726  TIP3      H2             34.8132212142      -26.0691657020        0.7497513663  W2        726             0.0000000000
      2179       727  TIP3      OH2            32.3913212142      -32.5012357020       -9.3751586337  W2        727             0.0000000000
      2180       727  TIP3      H1             31.4527412142      -32.3896757020       -9.5262786337  W2        727             0.0000000000
      2181       727  TIP3      H2             32.6885312142      -31.6445457020       -9.0685886337  W2        727             0.0000000000
      2182       728  TIP3      OH2            30.0128512142      -25.1308957020        3.6624913663  W2        728             0.0000000000
      2183       728  TIP3      H1             29.6674612142      -25.5126557020        4.4694513663  W2        728             0.0000000000
      2184       728  TIP3      H2             29.8128612142      -24.1975357020        3.7337813663  W2        728             0.0000000000
      2185       729  TIP3      OH2            33.1096712142      -30.6339657020       -7.7144186337  W2        729             0.0000000000
      2186       729  TIP3      H1             34.0015712142      -30.7714657020       -7.3952986337  W2        729             0.0000000000
      2187       729  TIP3      H2             33.1660312142      -29.8433557020       -8.2510686337  W2        729             0.0000000000
      2188       730  TIP3      OH2            23.6184712142      -26.0202257020       -1.8046286337  W2        730             0.0000000000
      2189       730  TIP3      H1             24.3631912142      -26.0226557020       -2.4059786337  W2        730             0.0000000000
      2190       730  TIP3      H2             23.6961312142      -26.8438457020       -1.3231186337  W2        730             0.0000000000
      2191       731  TIP3      OH2            30.6190512142      -23.8567957020       -8.5489586337  W2        731             0.0000000000
      2192       731  TIP3      H1             30.3238912142      -23.0300057020       -8.1674786337  W2        731             0.0000000000
      2193       731  TIP3      H2             29.9160512142      -24.4761057020       -8.3528186337  W2        731             0.0000000000
      2194       732  TIP3      OH2            20.6264412142      -27.5595357020        3.5102213663  W2        732             0.0000000000
      2195       732  TIP3      H1             20.8493012142      -27.9775757020        4.3419713663  W2        732             0.0000000000
      2196       732  TIP3      H2             20.0244512142      -28.1720357020        3.0875013663  W2        732             0.0000000000
      2197       733  TIP3      OH2            27.6429312142      -28.0425457020        5.7231913663  W2        733             0.0000000000
      2198       733  TIP3      H1             27.3470112142      -28.2082457020        4.8281013663  W2        733             0.0000000000
      2199       733  TIP3      H2             28.5744512142      -28.2625157020        5.7125813663  W2        733             0.0000000000
      2200       734  TIP3      OH2            32.2632112142      -22.6693457020        3.6129913663  W2        734             0.0000000000
      2201       734  TIP3      H1             31.3626412142      -22.4860857020        3.3453813663  W2        734             0.0000000000
      2202       734  TIP3      H2             32.2973212142      -22.4104157020        4.5338713663  W2        734             0.0000000000
      2203       735  TIP3      OH2            36.2897112142      -21.6385157020       -7.5545386337  W2        735             0.0000000000
      2204       735  TIP3      H1             35.9168212142      -22.4641357020       -7.2454786337  W2        735             0.0000000000
      2205       735  TIP3      H2             36.5670612142      -21.8215757020       -8.4521986337  W2        735             0.0000000000
      2206       736  TIP3      OH2            33.4501012142      -26.8305657020       -0.5333486337  W2        736             0.0000000000
      2207       736  TIP3      H1             32.5217912142      -27.0623757020       -0.5604186337  W2        736             0.0000000000
      2208       736  TIP3      H2             33.9012112142      -27.6075857020       -0.8634686337  W2        736             0.0000000000
      2209       737  TIP3      OH2            25.9934112142      -22.5024057020       -4.4004786337  W2        737             0.0000000000
      2210       737  TIP3      H1             26.5206312142      -21.7289657020       -4.6005986337  W2        737             0.0000000000
      2211       737  TIP3      H2             25.1132612142      -22.2774857020       -4.7020786337  W2        737             0.0000000000
      2212       738  TIP3      OH2            21.7481812142      -27.6399957020       -9.8132386337  W2        738             0.0000000000
      2213       738  TIP3      H1             22.3641712142      -27.0132757020       -9.4337586337  W2        738             0.0000000000
      2214       738  TIP3      H2             20.8864412142      -27.3240157020       -9.5415886337  W2        738             0.0000000000
      2215       739  TIP3      OH2            27.4206412142      -24.8394157020       -4.8240486337  W2        739             0.0000000000
      2216       739  TIP3      H1             27.1796412142      -23.9139757020       -4.7825186337  W2        739             0.0000000000
      2217       739  TIP3      H2             26.6800012142      -25.2982857020       -4.4276586337  W2        739             0.0000000000
      2218       740  TIP3      OH2            27.9353012142      -20.6900557020        1.4910613663  W2        740             0.0000000000
      2219       740  TIP3      H1             28.2977712142      -19.8354957020        1.2575013663  W2        740             0.0000000000
      2220       740  TIP3      H2             28.4668212142      -20.9818957020        2.2316913663  W2        740             0.0000000000
      2221       741  TIP3      OH2            26.1037212142      -19.8176557020       -5.2788286337  W2        741             0.0000000000
      2222       741  TIP3      H1             25.1537712142      -19.7119157020       -5.2274986337  W2        741             0.0000000000
      2223       741  TIP3      H2             26.4555312142      -18.9969157020       -4.9340786337  W2        741             0.0000000000
      2224       742  TIP3      OH2            31.4793812142      -24.5909857020        1.1916213663  W2        742             0.0000000000
      2225       742  TIP3      H1             31.0535112142      -24.8188157020        2.0180213663  W2        742             0.0000000000
      2226       742  TIP3      H2             32.0599612142      -25.3298057020        1.0091513663  W2        742             0.0000000000
      2227       743  TIP3      OH2            33.6822712142      -23.6619357020       -9.7344786337  W2        743             0.0000000000
      2228       743  TIP3      H1             34.0355812142      -24.0419557020       -8.9301286337  W2        743             0.0000000000
      2229       743  TIP3      H2             32.7336212142      -23.7554557020       -9.6475486337  W2        743             0.0000000000
      2230       744  TIP3      OH2            34.1378012142      -20.0390357020        3.6611013663  W2        744             0.0000000000
      2231       744  TIP3      H1             33.5361212142      -20.5947457020        3.1657313663  W2        744             0.0000000000
      2232       744  TIP3      H2             34.4191712142      -19.3720557020        3.0348413663  W2        744             0.0000000000
      2233       745  TIP3      OH2            22.2603912142      -32.8062657020        3.0683613663  W2        745             0.0000000000
      2234       745  TIP3      H1             21.3676212142      -32.4677257020        3.0007613663  W2        745             0.0000000000
      2235       745  TIP3      H2             22.1616712142      -33.6616557020        3.4864413663  W2        745             0.0000000000
      2236       746  TIP3      OH2            34.5482012142      -24.9897357020       -7.5076886337  W2        746             0.0000000000
      2237       746  TIP3      H1             34.2709612142      -25.7178057020       -6.9515786337  W2        746             0.0000000000
      2238       746  TIP3      H2             35.4755012142      -24.8705357020       -7.3024286337  W2        746             0.0000000000
      2239       747  TIP3      OH2            21.9115912142      -21.0018257020        1.5033013663  W2        747             0.0000000000
      2240       747  TIP3      H1             22.1286212142      -21.9335857020        1.4722713663  W2        747             0.0000000000
      2241       747  TIP3      H2             22.1579412142      -20.7273257020        2.3865813663  W2        747             0.0000000000
      2242       748  TIP3      OH2            27.7730512142      -22.5503257020      -11.2874786337  W2        748             0.0000000000
      2243       748  TIP3      H1             28.0120312142      -23.2985157020      -11.8345886337  W2        748             0.0000000000
      2244       748  TIP3      H2             27.5041812142      -22.9381557020      -10.4546986337  W2        748             0.0000000000
      2245       749  TIP3      OH2            26.7101112142      -22.9799457020       -8.8312186337  W2        749             0.0000000000
      2246       749  TIP3      H1             26.8569112142      -23.4999657020       -8.0411286337  W2        749             0.0000000000
      2247       749  TIP3      H2             26.7072812142      -22.0731857020       -8.5246286337  W2        749             0.0000000000
      2248       750  TIP3      OH2            23.1632212142      -25.7276157020       -8.3206786337  W2        750             0.0000000000
      2249       750  TIP3      H1             22.4771512142      -25.3753657020       -7.7537086337  W2        750             0.0000000000
      2250       750  TIP3      H2             23.6860112142      -24.9646557020       -8.5672486337  W2        750             0.0000000000
      2251       751  TIP3      OH2            30.9947312142      -33.0652357020        1.9582213663  W2        751             0.0000000000
      2252       751  TIP3      H1             31.6935212142      -32.9913657020        2.6081913663  W2        751             0.0000000000
      2253       751  TIP3      H2             30.6138712142      -33.9297357020        2.1125113663  W2        751             0.0000000000
      2254       752  TIP3      OH2            31.7792212142      -33.4130657020       -6.9445486337  W2        752             0.0000000000
      2255       752  TIP3      H1             31.9990512142      -32.9415257020       -7.7480086337  W2        752             0.0000000000
      2256       752  TIP3      H2             32.3376212142      -33.0188057020       -6.2744886337  W2        752             0.0000000000
      2257       753  TIP3      OH2            29.4478312142      -21.2825857020       -8.0817986337  W2        753             0.0000000000
      2258       753  TIP3      H1             28.6314412142      -20.7856157020       -8.0293686337  W2        753             0.0000000000
      2259       753  TIP3      H2             29.9774612142      -20.8072357020       -8.7219186337  W2        753             0.0000000000
      2260       754  TIP3      OH2            28.9792112142      -31.6851857020       -6.1097086337  W2        754             0.0000000000
      2261       754  TIP3      H1             29.7914712142      -31.1808657020       -6.0635386337  W2        754             0.0000000000
      2262       754  TIP3      H2             28.7345112142      -31.8302157020       -5.1957486337  W2        754             0.0000000000
      2263       755  TIP3      OH2            29.5148512142      -30.6989157020        3.0749513663  W2        755             0.0000000000
      2264       755  TIP3      H1             29.6338812142      -30.1253757020        3.8319913663  W2        755             0.0000000000
      2265       755  TIP3      H2             30.1703112142      -31.3869757020        3.1897313663  W2        755             0.0000000000
      2266       756  TIP3      OH2            29.8628812142      -34.6038857020       -5.1715986337  W2        756             0.0000000000
      2267       756  TIP3      H1             29.5162312142      -33.9868257020       -4.5271686337  W2        756             0.0000000000
      2268       756  TIP3      H2             30.5215712142      -34.1033157020       -5.6530486337  W2        756             0.0000000000
      2269       757  TIP3      OH2            26.7861412142      -20.2388657020       -8.1001086337  W2        757             0.0000000000
      2270       757  TIP3      H1             26.9470112142      -19.4391157020       -8.6008486337  W2        757             0.0000000000
      2271       757  TIP3      H2             26.5889212142      -19.9322657020       -7.2150486337  W2        757             0.0000000000
      2272       758  TIP3      OH2            25.5205812142      -33.5409457020       -8.4843486337  W2        758             0.0000000000
      2273       758  TIP3      H1             25.4370612142      -32.6526357020       -8.1377086337  W2        758             0.0000000000
      2274       758  TIP3      H2             26.4106112142      -33.8062757020       -8.2526686337  W2        758             0.0000000000
      2275       759  TIP3      OH2            35.7194312142      -32.7918857020        3.9099213663  W2        759             0.0000000000
      2276       759  TIP3      H1             34.8030112142      -32.5297157020        3.8222913663  W2        759             0.0000000000
      2277       759  TIP3      H2             36.0549312142      -32.7949857020        3.0134513663  W2        759             0.0000000000
      2278       760  TIP3      OH2            34.3215312142      -29.0417857020       -1.9943486337  W2        760             0.0000000000
      2279       760  TIP3      H1             33.5239712142      -29.4567657020       -2.3228486337  W2        760             0.0000000000
      2280       760  TIP3      H2             34.7666412142      -29.7324157020       -1.5032986337  W2        760             0.0000000000
      2281       761  TIP3      OH2            23.7791112142      -23.1137257020       -9.4238986337  W2        761             0.0000000000
      2282       761  TIP3      H1             24.3712612142      -22.4142457020       -9.1476586337  W2        761             0.0000000000
      2283       761  TIP3      H2             24.2384112142      -23.5467757020      -10.1434386337  W2        761             0.0000000000
      2284       762  TIP3      OH2            22.0950312142      -30.4494257020      -10.3079586337  W2        762             0.0000000000
      2285       762  TIP3      H1             22.0502912142      -29.5101157020      -10.1292586337  W2        762             0.0000000000
      2286       762  TIP3      H2             21.2073512142      -30.6849357020      -10.5777486337  W2        762             0.0000000000
      2287       763  TIP3      OH2            35.4079912142      -19.7855357020       -0.3719986337  W2        763             0.0000000000
      2288       763  TIP3      H1             35.2524212142      -19.1070957020       -1.0290686337  W2        763             0.0000000000
      2289       763  TIP3      H2             36.3406312142      -19.7136057020       -0.1689386337  W2        763             0.0000000000
      2290       764  TIP3      OH2            22.9032312142      -35.6677657020       -1.6348586337  W2        764             0.0000000000
      2291       764  TIP3      H1             22.6742112142      -35.6085157020       -2.5623586337  W2        764             0.0000000000
      2292       764  TIP3      H2             22.4605712142      -36.4592157020       -1.3284486337  W2        764             0.0000000000
      2293       765  TIP3      OH2            21.8335612142      -21.7270557020       -5.4742786337  W2        765             0.0000000000
      2294       765  TIP3      H1             21.0014212142      -21.2547857020       -5.4471386337  W2        765             0.0000000000
      2295       765  TIP3      H2             22.3793912142      -21.2172957020       -6.0729686337  W2        765             0.0000000000
      2296       766  TIP3      OH2            21.1219312142      -19.1146857020        5.8555213663  W2        766             0.0000000000
      2297       766  TIP3      H1             21.6621512142      -19.3312857020        6.6154413663  W2        766             0.0000000000
      2298       766  TIP3      H2             20.6407312142      -19.9200857020        5.6657713663  W2        766             0.0000000000
      2299       767  TIP3      OH2            25.7192712142      -20.1952457020        7.4759413663  W2        767             0.0000000000
      2300       767  TIP3      H1             26.4869912142      -20.6541657020        7.8168613663  W2        767             0.0000000000
      2301       767  TIP3      H2             25.6978912142      -20.4212657020        6.5460613663  W2        767             0.0000000000
      2302       768  TIP3      OH2            29.8112312142      -20.6871857020      -11.1488786337  W2        768             0.0000000000
      2303       768  TIP3      H1             29.1673312142      -21.3183257020      -10.8275086337  W2        768             0.0000000000
      2304       768  TIP3      H2             30.5730612142      -21.2183857020      -11.3805286337  W2        768             0.0000000000
      2305       769  TIP3      OH2            32.2961412142      -21.8151357020        6.2050913663  W2        769             0.0000000000
      2306       769  TIP3      H1             31.9450912142      -22.6718357020        6.4481313663  W2        769             0.0000000000
      2307       769  TIP3      H2             33.0224612142      -21.6724657020        6.8119913663  W2        769             0.0000000000
      2308       770  TIP3      OH2            34.4155212142      -20.8701957020      -10.9150786337  W2        770             0.0000000000
      2309       770  TIP3      H1             34.6985612142      -21.6646757020      -10.4623886337  W2        770             0.0000000000
      2310       770  TIP3      H2             35.1553112142      -20.6370957020      -11.4759686337  W2        770             0.0000000000
      2311       771  TIP3      OH2            21.0288812142      -25.3042757020        6.8099513663  W2        771             0.0000000000
      2312       771  TIP3      H1             21.1729312142      -26.2062057020        6.5236213663  W2        771             0.0000000000
      2313       771  TIP3      H2             20.2566212142      -25.0180657020        6.3221813663  W2        771             0.0000000000
      2314       772  TIP3      OH2            25.3702512142      -24.9607057020      -11.0575886337  W2        772             0.0000000000
      2315       772  TIP3      H1             25.4346612142      -25.7547457020      -10.5269486337  W2        772             0.0000000000
      2316       772  TIP3      H2             26.0231712142      -25.0794257020      -11.7473886337  W2        772             0.0000000000
      2317       773  TIP3      OH2            27.6844912142      -25.3344657020        6.2425913663  W2        773             0.0000000000
      2318       773  TIP3      H1             27.3558712142      -25.0636557020        5.3853313663  W2        773             0.0000000000
      2319       773  TIP3      H2             27.8363112142      -26.2754857020        6.1550913663  W2        773             0.0000000000
      2320       774  TIP3      OH2            30.7225912142      -23.9135357020      -11.3217886337  W2        774             0.0000000000
      2321       774  TIP3      H1             30.4540012142      -23.7333257020      -10.4208986337  W2        774             0.0000000000
      2322       774  TIP3      H2             30.5161512142      -24.8389157020      -11.4532086337  W2        774             0.0000000000
      2323       775  TIP3      OH2            33.4190112142      -25.4187357020        3.6258213663  W2        775             0.0000000000
      2324       775  TIP3      H1             34.1644912142      -24.8303657020        3.5062213663  W2        775             0.0000000000
      2325       775  TIP3      H2             32.6616912142      -24.8367657020        3.6891313663  W2        775             0.0000000000
      2326       776  TIP3      OH2            21.8615312142      -28.1039457020        6.2298813663  W2        776             0.0000000000
      2327       776  TIP3      H1             22.2696512142      -28.9612857020        6.1089413663  W2        776             0.0000000000
      2328       776  TIP3      H2             21.6012912142      -28.0898157020        7.1509113663  W2        776             0.0000000000
      2329       777  TIP3      OH2            26.5196312142      -26.9880857020       -8.7517886337  W2        777             0.0000000000
      2330       777  TIP3      H1             26.0598312142      -27.4722557020       -8.0659386337  W2        777             0.0000000000
      2331       777  TIP3      H2             26.7745012142      -27.6565457020       -9.3877386337  W2        777             0.0000000000
      2332       778  TIP3      OH2            25.8085612142      -29.0953757020        3.6041713663  W2        778             0.0000000000
      2333       778  TIP3      H1             25.1901712142      -28.4207157020        3.8846413663  W2        778             0.0000000000
      2334       778  TIP3      H2             26.1526812142      -28.7739857020        2.7707913663  W2        778             0.0000000000
      2335       779  TIP3      OH2            27.5906712142      -28.7449057020      -10.4894686337  W2        779             0.0000000000
      2336       779  TIP3      H1             27.4101712142      -28.8997857020      -11.4166386337  W2        779             0.0000000000
      2337       779  TIP3      H2             28.5407212142      -28.6370357020      -10.4446786337  W2        779             0.0000000000
      2338       780  TIP3      OH2            30.8283812142      -26.6238457020        6.8816513663  W2        780             0.0000000000
      2339       780  TIP3      H1             31.7815012142      -26.5399357020        6.8542513663  W2        780             0.0000000000
      2340       780  TIP3      H2             30.6678412142      -27.3356657020        7.5011413663  W2        780             0.0000000000
      2341       781  TIP3      OH2            26.1479312142      -31.7402957020        4.6864813663  W2        781             0.0000000000
      2342       781  TIP3      H1             26.2980212142      -32.4691657020        4.0844513663  W2        781             0.0000000000
      2343       781  TIP3      H2             26.1501712142      -30.9631257020        4.1277013663  W2        781             0.0000000000
      2344       782  TIP3      OH2            26.5605012142      -33.3707157020        2.1792213663  W2        782             0.0000000000
      2345       782  TIP3      H1             27.0962512142      -32.9190457020        1.5271513663  W2        782             0.0000000000
      2346       782  TIP3      H2             25.7084612142      -33.4787357020        1.7566313663  W2        782             0.0000000000
      2347       783  TIP3      OH2            28.1423412142      -27.9310957020        2.4187413663  W2        783             0.0000000000
      2348       783  TIP3      H1             28.8928212142      -28.0873457020        1.8455213663  W2        783             0.0000000000
      2349       783  TIP3      H2             27.8031712142      -27.0794357020        2.1432913663  W2        783             0.0000000000
      2350       784  TIP3      OH2            32.5579612142      -30.1159157020        7.4472713663  W2        784             0.0000000000
      2351       784  TIP3      H1             32.7500912142      -31.0469757020        7.3357213663  W2        784             0.0000000000
      2352       784  TIP3      H2             33.4155912142      -29.6909657020        7.4368113663  W2        784             0.0000000000
      2353       785  TIP3      OH2            33.8746812142      -27.3273957020        5.5245413663  W2        785             0.0000000000
      2354       785  TIP3      H1             33.5931812142      -26.6179357020        4.9469213663  W2        785             0.0000000000
      2355       785  TIP3      H2             34.8171112142      -27.4000957020        5.3736613663  W2        785             0.0000000000
      2356       786  TIP3      OH2            24.6265612142      -30.5419457020        6.5980413663  W2        786             0.0000000000
      2357       786  TIP3      H1             23.8594612142      -31.0744657020        6.3878013663  W2        786             0.0000000000
      2358       786  TIP3      H2             25.3054612142      -30.8519057020        5.9986713663  W2        786             0.0000000000
      2359       787  TIP3      OH2            27.3660512142      -35.9141457020        2.6105813663  W2        787             0.0000000000
      2360       787  TIP3      H1             27.2680112142      -34.9678257020        2.5052013663  W2        787             0.0000000000
      2361       787  TIP3      H2             26.6236712142      -36.2867657020        2.1349313663  W2        787             0.0000000000
      2362       788  TIP3      OH2            28.6301012142      -31.5926057020        6.1744213663  W2        788             0.0000000000
      2363       788  TIP3      H1             28.3946412142      -31.8119357020        7.0759113663  W2        788             0.0000000000
      2364       788  TIP3      H2             27.8467912142      -31.7994857020        5.6646713663  W2        788             0.0000000000
      2365       789  TIP3      OH2            31.3457612142      -32.4652557020        5.2497713663  W2        789             0.0000000000
      2366       789  TIP3      H1             30.3983012142      -32.4332857020        5.3821013663  W2        789             0.0000000000
      2367       789  TIP3      H2             31.6584312142      -33.0905457020        5.9035913663  W2        789             0.0000000000
      2368       790  TIP3      OH2            32.9799112142      -33.8311457020        7.2549613663  W2        790             0.0000000000
      2369       790  TIP3      H1             32.8830912142      -34.7834157020        7.2491513663  W2        790             0.0000000000
      2370       790  TIP3      H2             32.6582212142      -33.5624657020        8.1155113663  W2        790             0.0000000000
      2371       791  TIP3      OH2            22.8068412142      -32.6215657020        6.3025113663  W2        791             0.0000000000
      2372       791  TIP3      H1             23.0185812142      -33.3279557020        5.6922613663  W2        791             0.0000000000
      2373       791  TIP3      H2             22.6955912142      -33.0589657020        7.1466313663  W2        791             0.0000000000
      2374       792  TIP3      OH2            27.5878612142      -36.6204057020        5.2818613663  W2        792             0.0000000000
      2375       792  TIP3      H1             28.2997012142      -37.2601857020        5.2677713663  W2        792             0.0000000000
      2376       792  TIP3      H2             27.4869012142      -36.3535757020        4.3681713663  W2        792             0.0000000000
      2377       793  TIP3      OH2            27.9416112142      -34.9375657020        7.3354913663  W2        793             0.0000000000
      2378       793  TIP3      H1             27.8098312142      -35.4131857020        6.5153413663  W2        793             0.0000000000
      2379       793  TIP3      H2             27.3423512142      -34.1932057020        7.2802013663  W2        793             0.0000000000
      2380       794  TIP3      OH2            27.4878412142      -18.0545357020       -9.4881086337  W2        794             0.0000000000
      2381       794  TIP3      H1             28.4209112142      -17.8966657020       -9.3442686337  W2        794             0.0000000000
      2382       794  TIP3      H2             27.2237212142      -17.3792357020      -10.1129586337  W2        794             0.0000000000
      2383       795  TIP3      OH2            21.0563312142      -23.4181557020      -10.0052986337  W2        795             0.0000000000
      2384       795  TIP3      H1             21.9702512142      -23.3392657020       -9.7319086337  W2        795             0.0000000000
      2385       795  TIP3      H2             21.0636412142      -24.1051957020      -10.6717386337  W2        795             0.0000000000
      2386       796  TIP3      OH2            19.7053912142      -18.0253057020       -4.9279086337  W2        796             0.0000000000
      2387       796  TIP3      H1             19.0581012142      -18.4871357020       -5.4607886337  W2        796             0.0000000000
      2388       796  TIP3      H2             20.0598512142      -18.6969757020       -4.3452886337  W2        796             0.0000000000
      2389       797  TIP3      OH2            20.5753112142      -19.9446057020       -3.1232886337  W2        797             0.0000000000
      2390       797  TIP3      H1             20.2409912142      -20.8248757020       -2.9512686337  W2        797             0.0000000000
      2391       797  TIP3      H2             20.7975512142      -19.5991057020       -2.2587286337  W2        797             0.0000000000
      2392       798  TIP3      OH2            36.1378112142      -23.7780457020        7.4171313663  W2        798             0.0000000000
      2393       798  TIP3      H1             35.2719212142      -23.8830757020        7.8113613663  W2        798             0.0000000000
      2394       798  TIP3      H2             36.5144012142      -23.0197157020        7.8636013663  W2        798             0.0000000000
      2395       799  TIP3      OH2            36.0786912142      -21.8054357020        2.0095513663  W2        799             0.0000000000
      2396       799  TIP3      H1             35.4312212142      -21.4802857020        2.6350713663  W2        799             0.0000000000
      2397       799  TIP3      H2             35.5610912142      -22.2456657020        1.3353813663  W2        799             0.0000000000
      2398       800  TIP3      OH2            36.4505512142      -30.3275257020      -10.3032086337  W2        800             0.0000000000
      2399       800  TIP3      H1             36.5469912142      -29.6608257020      -10.9832386337  W2        800             0.0000000000
      2400       800  TIP3      H2             36.3105112142      -31.1428957020      -10.7846586337  W2        800             0.0000000000
      2401       801  TIP3      OH2            35.6200212142      -28.9472857020       -4.6821786337  W2        801             0.0000000000
      2402       801  TIP3      H1             35.4699012142      -29.8924257020       -4.7023986337  W2        801             0.0000000000
      2403       801  TIP3      H2             35.2664712142      -28.6661457020       -3.8382686337  W2        801             0.0000000000
      2404       802  TIP3      OH2            20.6552612142      -26.8690657020       -0.6717986337  W2        802             0.0000000000
      2405       802  TIP3      H1             20.8395512142      -26.9508957020       -1.6075086337  W2        802             0.0000000000
      2406       802  TIP3      H2             21.5045512142      -26.9933657020       -0.2481586337  W2        802             0.0000000000
      2407       803  TIP3      OH2            36.4763112142      -26.9769557020        4.9566513663  W2        803             0.0000000000
      2408       803  TIP3      H1             37.0590412142      -27.7117257020        5.1483713663  W2        803             0.0000000000
      2409       803  TIP3      H2             37.0402412142      -26.2049257020        5.0032313663  W2        803             0.0000000000
      2410       804  TIP3      OH2            35.6979312142      -32.9195457020      -11.1856586337  W2        804             0.0000000000
      2411       804  TIP3      H1             36.3085112142      -33.2908657020      -10.5488386337  W2        804             0.0000000000
      2412       804  TIP3      H2             34.8610812142      -33.3408557020      -10.9896586337  W2        804             0.0000000000
      2413       805  TIP3      OH2            35.3305012142      -31.3647057020       -6.2196686337  W2        805             0.0000000000
      2414       805  TIP3      H1             35.6102112142      -32.2716657020       -6.0954986337  W2        805             0.0000000000
      2415       805  TIP3      H2             36.0896712142      -30.9305557020       -6.6087486337  W2        805             0.0000000000
      2416       806  TIP3      OH2            35.9423312142      -30.7829657020       -0.7837786337  W2        806             0.0000000000
      2417       806  TIP3      H1             36.8751312142      -30.5709757020       -0.8181786337  W2        806             0.0000000000
      2418       806  TIP3      H2             35.7070812142      -30.6817557020        0.1385213663  W2        806             0.0000000000
      2419       807  TIP3      OH2            35.9715212142      -30.0464357020        1.9921613663  W2        807             0.0000000000
      2420       807  TIP3      H1             35.1286512142      -29.7783957020        2.3581413663  W2        807             0.0000000000
      2421       807  TIP3      H2             36.4139512142      -29.2242457020        1.7812713663  W2        807             0.0000000000
      2422       808  TIP3      OH2            20.2527412142      -31.5985657020        5.4690813663  W2        808             0.0000000000
      2423       808  TIP3      H1             21.1722312142      -31.7207357020        5.7053913663  W2        808             0.0000000000
      2424       808  TIP3      H2             19.8031912142      -32.3485957020        5.8584313663  W2        808             0.0000000000
      2425       809  TIP3      OH2            35.9439812142      -34.1017757020       -6.1714686337  W2        809             0.0000000000
      2426       809  TIP3      H1             36.1264812142      -34.5506257020       -5.3459686337  W2        809             0.0000000000
      2427       809  TIP3      H2             35.3442712142      -34.6863357020       -6.6350086337  W2        809             0.0000000000
      2428       810  TIP3      OH2            21.4739912142      -33.2864057020       -1.6396286337  W2        810             0.0000000000
      2429       810  TIP3      H1             21.9191512142      -34.0781557020       -1.3376586337  W2        810             0.0000000000
      2430       810  TIP3      H2             21.9402912142      -32.5698857020       -1.2090686337  W2        810             0.0000000000
      2431       811  TIP3      OH2            19.7780212142      -30.2871057020       -0.5706086337  W2        811             0.0000000000
      2432       811  TIP3      H1             20.2700012142      -30.5080557020       -1.3614086337  W2        811             0.0000000000
      2433       811  TIP3      H2             20.1401112142      -29.4467657020       -0.2896586337  W2        811             0.0000000000
      2434       812  TIP3      OH2            20.0916712142      -34.0291957020       -6.5163686337  W2        812             0.0000000000
      2435       812  TIP3      H1             19.1665112142      -33.8205357020       -6.6458186337  W2        812             0.0000000000
      2436       812  TIP3      H2             20.5456612142      -33.5451157020       -7.2061386337  W2        812             0.0000000000
      2437       813  TIP3      OH2            34.8623912142      -19.0450257020       -4.5706286337  W2        813             0.0000000000
      2438       813  TIP3      H1             35.5146812142      -19.3928157020       -5.1787186337  W2        813             0.0000000000
      2439       813  TIP3      H2             35.3727712142      -18.5567057020       -3.9246586337  W2        813             0.0000000000
      2440       814  TIP3      OH2            20.0552112142      -35.2912957020        1.8278813663  W2        814             0.0000000000
      2441       814  TIP3      H1             19.3902612142      -35.5372657020        2.4709713663  W2        814             0.0000000000
      2442       814  TIP3      H2             19.6123412142      -34.6692557020        1.2506813663  W2        814             0.0000000000
      2443       815  TIP3      OH2            22.2471412142      -22.1158857020        5.9724613663  W2        815             0.0000000000
      2444       815  TIP3      H1             21.4263912142      -21.9412357020        5.5119313663  W2        815             0.0000000000
      2445       815  TIP3      H2             21.9949212142      -22.1894157020        6.8929013663  W2        815             0.0000000000
      2446       816  TIP3      OH2            25.2014312142      -21.1417657020        2.2308613663  W2        816             0.0000000000
      2447       816  TIP3      H1             24.7765412142      -20.3319157020        1.9483213663  W2        816             0.0000000000
      2448       816  TIP3      H2             26.1057112142      -21.0563557020        1.9288413663  W2        816             0.0000000000
      2449       817  TIP3      OH2            29.5125712142      -19.7427657020        5.1902313663  W2        817             0.0000000000
      2450       817  TIP3      H1             29.6973212142      -20.0761557020        6.0682613663  W2        817             0.0000000000
      2451       817  TIP3      H2             30.3590212142      -19.4329057020        4.8681513663  W2        817             0.0000000000
      2452       818  TIP3      OH2            31.8576112142      -18.4568757020        4.4343713663  W2        818             0.0000000000
      2453       818  TIP3      H1             32.5345012142      -19.0896457020        4.1942913663  W2        818             0.0000000000
      2454       818  TIP3      H2             32.1794912142      -18.0558257020        5.2417013663  W2        818             0.0000000000
      2455       819  TIP3      OH2            22.6031012142      -17.8853757020        2.2783913663  W2        819             0.0000000000
      2456       819  TIP3      H1             21.8827412142      -17.4452757020        1.8271613663  W2        819             0.0000000000
      2457       819  TIP3      H2             22.2375012142      -18.1359057020        3.1267913663  W2        819             0.0000000000
      2458       820  TIP3      OH2            25.0703612142      -18.2849857020        1.3081113663  W2        820             0.0000000000
      2459       820  TIP3      H1             24.2055812142      -18.2131357020        1.7121213663  W2        820             0.0000000000
      2460       820  TIP3      H2             25.0152612142      -17.7382557020        0.5243613663  W2        820             0.0000000000
      2461       821  TIP3      OH2            29.7809212142      -18.3970957020        0.4837113663  W2        821             0.0000000000
      2462       821  TIP3      H1             29.3243212142      -17.8681257020       -0.1704486337  W2        821             0.0000000000
      2463       821  TIP3      H2             29.9437212142      -17.7939557020        1.2089413663  W2        821             0.0000000000
      2464       822  TIP3      OH2            32.1085512142      -19.5191357020        1.4287413663  W2        822             0.0000000000
      2465       822  TIP3      H1             31.2039212142      -19.3541157020        1.1629513663  W2        822             0.0000000000
      2466       822  TIP3      H2             32.5374112142      -18.6659157020        1.3630813663  W2        822             0.0000000000
      2467       823  TIP3      OH2            34.7127412142      -17.9492257020        1.7235213663  W2        823             0.0000000000
      2468       823  TIP3      H1             34.5309412142      -17.0333357020        1.5130113663  W2        823             0.0000000000
      2469       823  TIP3      H2             34.8895212142      -18.3595157020        0.8769813663  W2        823             0.0000000000
      2470       824  TIP3      OH2            22.0179112142      -19.2621257020       -0.8114286337  W2        824             0.0000000000
      2471       824  TIP3      H1             21.9995112142      -19.6876157020        0.0458013663  W2        824             0.0000000000
      2472       824  TIP3      H2             22.8227012142      -19.5806257020       -1.2202086337  W2        824             0.0000000000
      2473       825  TIP3      OH2            24.1592212142      -20.5522557020       -2.1564386337  W2        825             0.0000000000
      2474       825  TIP3      H1             23.9402912142      -21.4685157020       -1.9868386337  W2        825             0.0000000000
      2475       825  TIP3      H2             24.9834412142      -20.4122157020       -1.6902986337  W2        825             0.0000000000
      2476       826  TIP3      OH2            26.6964712142      -20.0823257020       -1.3076386337  W2        826             0.0000000000
      2477       826  TIP3      H1             26.9090412142      -20.9704257020       -1.5945486337  W2        826             0.0000000000
      2478       826  TIP3      H2             26.7609812142      -20.1165557020       -0.3532386337  W2        826             0.0000000000
      2479       827  TIP3      OH2            30.2048412142      -34.4182657020       -2.1633086337  W2        827             0.0000000000
      2480       827  TIP3      H1             29.5305212142      -35.0477057020       -1.9077286337  W2        827             0.0000000000
      2481       827  TIP3      H2             30.7687612142      -34.9023757020       -2.7665186337  W2        827             0.0000000000
      2482       828  TIP3      OH2            35.3475612142      -36.3108657020       -2.0505986337  W2        828             0.0000000000
      2483       828  TIP3      H1             35.9513212142      -35.7633257020       -2.5524986337  W2        828             0.0000000000
      2484       828  TIP3      H2             34.4777612142      -35.9918257020       -2.2911886337  W2        828             0.0000000000
      2485       829  TIP3      OH2            22.5315912142      -35.7842357020       -4.3413186337  W2        829             0.0000000000
      2486       829  TIP3      H1             21.7545712142      -36.0187457020       -4.8487286337  W2        829             0.0000000000
      2487       829  TIP3      H2             23.0619512142      -36.5810257020       -4.3325186337  W2        829             0.0000000000
      2488       830  TIP3      OH2            21.3679312142      -35.9864257020       -8.5377086337  W2        830             0.0000000000
      2489       830  TIP3      H1             21.8070012142      -35.3753757020       -9.1293586337  W2        830             0.0000000000
      2490       830  TIP3      H2             20.7341712142      -35.4480157020       -8.0637086337  W2        830             0.0000000000
      2491       831  TIP3      OH2            27.1108512142      -35.8575257020       -4.5280086337  W2        831             0.0000000000
      2492       831  TIP3      H1             27.9851912142      -35.4690957020       -4.5575786337  W2        831             0.0000000000
      2493       831  TIP3      H2             26.9749312142      -36.0727457020       -3.6052886337  W2        831             0.0000000000
      2494       832  TIP3      OH2            32.6676912142      -35.8275457020       -2.8788386337  W2        832             0.0000000000
      2495       832  TIP3      H1             32.7438512142      -35.7323857020       -3.8282386337  W2        832             0.0000000000
      2496       832  TIP3      H2             32.3926112142      -36.7352557020       -2.7499286337  W2        832             0.0000000000
      2497       833  TIP3      OH2            34.0209512142      -35.8017657020       -7.1863386337  W2        833             0.0000000000
      2498       833  TIP3      H1             33.3180612142      -35.1868457020       -7.3961986337  W2        833             0.0000000000
      2499       833  TIP3      H2             33.5760912142      -36.6390957020       -7.0552486337  W2        833             0.0000000000
      2500       834  TIP3      OH2            21.2688812142      -20.0382057020       -7.6401986337  W2        834             0.0000000000
      2501       834  TIP3      H1             20.5838712142      -20.0763157020       -8.3076886337  W2        834             0.0000000000
      2502       834  TIP3      H2             21.2726012142      -19.1254457020       -7.3519886337  W2        834             0.0000000000
      2503       835  TIP3      OH2            23.2288412142      -34.0702757020      -10.0952986337  W2        835             0.0000000000
      2504       835  TIP3      H1             23.7201812142      -34.7000357020      -10.6227486337  W2        835             0.0000000000
      2505       835  TIP3      H2             23.8524712142      -33.7743357020       -9.4321786337  W2        835             0.0000000000
      2506       836  TIP3      OH2            28.2548512142      -33.7771257020       -7.6382486337  W2        836             0.0000000000
      2507       836  TIP3      H1             28.4329812142      -34.4238057020       -6.9553886337  W2        836             0.0000000000
      2508       836  TIP3      H2             28.2014712142      -32.9433557020       -7.1711386337  W2        836             0.0000000000
      2509       837  TIP3      OH2            30.1332312142      -18.8287157020       -9.2425786337  W2        837             0.0000000000
      2510       837  TIP3      H1             30.9992512142      -18.4619757020       -9.4207586337  W2        837             0.0000000000
      2511       837  TIP3      H2             29.8865112142      -19.2679157020      -10.0564986337  W2        837             0.0000000000
      2512       838  TIP3      OH2            22.4893912142      -35.2700457020        5.1763013663  W2        838             0.0000000000
      2513       838  TIP3      H1             22.1232112142      -36.0357857020        5.6187713663  W2        838             0.0000000000
      2514       838  TIP3      H2             23.4022412142      -35.2410257020        5.4628113663  W2        838             0.0000000000
      2515       839  TIP3      OH2            24.4624712142      -35.9196057020        6.7120113663  W2        839             0.0000000000
      2516       839  TIP3      H1             25.3608312142      -36.1935857020        6.5273513663  W2        839             0.0000000000
      2517       839  TIP3      H2             24.0757812142      -36.6620057020        7.1762713663  W2        839             0.0000000000
      2518       840  TIP3      OH2            23.0870012142      -19.1181257020      -10.6149886337  W2        840             0.0000000000
      2519       840  TIP3      H1             22.8194612142      -18.8318357020       -9.7416786337  W2        840             0.0000000000
      2520       840  TIP3      H2             23.8582612142      -19.6642057020      -10.4627386337  W2        840             0.0000000000
      2521       841  TIP3      OH2            32.8837012142      -36.5870757020        6.8942913663  W2        841             0.0000000000
      2522       841  TIP3      H1             32.9604212142      -37.0130057020        7.7480613663  W2        841             0.0000000000
      2523       841  TIP3      H2             33.7773612142      -36.5736057020        6.5516413663  W2        841             0.0000000000
      2524       842  TIP3      OH2            36.0598112142      -20.5144457020        5.5867113663  W2        842             0.0000000000
      2525       842  TIP3      H1             35.2780012142      -20.7006457020        5.0667713663  W2        842             0.0000000000
      2526       842  TIP3      H2             35.9878012142      -19.5850157020        5.8039613663  W2        842             0.0000000000
      2527       843  TIP3      OH2           -24.9581487858       -7.7720057020       -4.3825686337  W2        843             0.0000000000
      2528       843  TIP3      H1            -24.8690387858       -6.8281857020       -4.5148586337  W2        843             0.0000000000
      2529       843  TIP3      H2            -25.5963887858       -8.0473657020       -5.0406286337  W2        843             0.0000000000
      2530       844  TIP3      OH2           -26.0250187858       -8.5169357020       -0.9637486337  W2        844             0.0000000000
      2531       844  TIP3      H1            -26.0632687858       -9.1633057020       -0.2587886337  W2        844             0.0000000000
      2532       844  TIP3      H2            -26.3473687858       -8.9834957020       -1.7348786337  W2        844             0.0000000000
      2533       845  TIP3      OH2           -33.6565187858       -8.9027257020        0.6292413663  W2        845             0.0000000000
      2534       845  TIP3      H1            -33.6153087858       -9.5283957020        1.3524813663  W2        845             0.0000000000
      2535       845  TIP3      H2            -32.9537487858       -8.2788657020        0.8112813663  W2        845             0.0000000000
      2536       846  TIP3      OH2           -22.3189987858       -5.5778957020       -2.6622386337  W2        846             0.0000000000
      2537       846  TIP3      H1            -22.7597287858       -6.2982957020       -2.2116786337  W2        846             0.0000000000
      2538       846  TIP3      H2            -22.3320287858       -4.8571757020       -2.0324686337  W2        846             0.0000000000
      2539       847  TIP3      OH2           -32.7332087858       -4.4528357020       -0.8358486337  W2        847             0.0000000000
      2540       847  TIP3      H1            -33.1026887858       -5.2547857020       -1.2054186337  W2        847             0.0000000000
      2541       847  TIP3      H2            -31.7920987858       -4.6213457020       -0.7895086337  W2        847             0.0000000000
      2542       848  TIP3      OH2           -36.1231587858      -10.7925757020       -5.4429686337  W2        848             0.0000000000
      2543       848  TIP3      H1            -36.5708187858       -9.9467057020       -5.4613186337  W2        848             0.0000000000
      2544       848  TIP3      H2            -36.6840387858      -11.3721557020       -5.9584586337  W2        848             0.0000000000
      2545       849  TIP3      OH2           -35.4125487858       -8.6306157020       -3.3171686337  W2        849             0.0000000000
      2546       849  TIP3      H1            -35.1991987858       -9.4004557020       -2.7898686337  W2        849             0.0000000000
      2547       849  TIP3      H2            -34.6747887858       -8.5409457020       -3.9204086337  W2        849             0.0000000000
      2548       850  TIP3      OH2           -25.2074487858       -0.4737257020       -2.4501986337  W2        850             0.0000000000
      2549       850  TIP3      H1            -24.5878087858       -1.1502557020       -2.7232786337  W2        850             0.0000000000
      2550       850  TIP3      H2            -25.4157087858       -0.6916457020       -1.5417086337  W2        850             0.0000000000
      2551       851  TIP3      OH2           -27.6355787858       -6.0847957020       -0.5576486337  W2        851             0.0000000000
      2552       851  TIP3      H1            -27.3317887858       -6.7706557020       -1.1522386337  W2        851             0.0000000000
      2553       851  TIP3      H2            -26.9141787858       -5.9659257020        0.0601513663  W2        851             0.0000000000
      2554       852  TIP3      OH2           -18.9725987858      -14.4832657020        0.3029713663  W2        852             0.0000000000
      2555       852  TIP3      H1            -18.9233787858      -13.8731457020        1.0388813663  W2        852             0.0000000000
      2556       852  TIP3      H2            -18.5470887858      -14.0221757020       -0.4199186337  W2        852             0.0000000000
      2557       853  TIP3      OH2           -24.4948787858      -11.6905557020       -0.2301686337  W2        853             0.0000000000
      2558       853  TIP3      H1            -24.3522887858      -12.6368557020       -0.2100086337  W2        853             0.0000000000
      2559       853  TIP3      H2            -24.6009787858      -11.4835757020       -1.1586786337  W2        853             0.0000000000
      2560       854  TIP3      OH2           -31.3400487858      -13.5889157020       -2.9576886337  W2        854             0.0000000000
      2561       854  TIP3      H1            -31.2969387858      -12.7290657020       -3.3760586337  W2        854             0.0000000000
      2562       854  TIP3      H2            -31.7976387858      -14.1414457020       -3.5913686337  W2        854             0.0000000000
      2563       855  TIP3      OH2           -23.6177787858      -13.4583557020       -4.5568586337  W2        855             0.0000000000
      2564       855  TIP3      H1            -22.9713487858      -13.7870357020       -3.9320986337  W2        855             0.0000000000
      2565       855  TIP3      H2            -23.1078387858      -12.9404557020       -5.1797186337  W2        855             0.0000000000
      2566       856  TIP3      OH2           -34.7198987858      -11.1923357020       -2.1955486337  W2        856             0.0000000000
      2567       856  TIP3      H1            -34.0662387858      -11.7421657020       -1.7635386337  W2        856             0.0000000000
      2568       856  TIP3      H2            -34.6959687858      -11.4664357020       -3.1123486337  W2        856             0.0000000000
      2569       857  TIP3      OH2           -29.5634487858       -9.6422057020       -2.9803986337  W2        857             0.0000000000
      2570       857  TIP3      H1            -28.9473487858      -10.1686657020       -2.4709986337  W2        857             0.0000000000
      2571       857  TIP3      H2            -30.1495687858      -10.2823357020       -3.3840386337  W2        857             0.0000000000
      2572       858  TIP3      OH2           -18.5811387858      -13.0053457020        2.5389513663  W2        858             0.0000000000
      2573       858  TIP3      H1            -19.2696787858      -12.3472757020        2.4436113663  W2        858             0.0000000000
      2574       858  TIP3      H2            -18.5656787858      -13.2025557020        3.4754913663  W2        858             0.0000000000
      2575       859  TIP3      OH2           -32.5298587858      -14.6710757020        1.1163913663  W2        859             0.0000000000
      2576       859  TIP3      H1            -32.7486887858      -14.1410157020        0.3499913663  W2        859             0.0000000000
      2577       859  TIP3      H2            -33.1977687858      -14.4445257020        1.7635313663  W2        859             0.0000000000
      2578       860  TIP3      OH2           -25.1608787858       -5.1709657020       -5.3396986337  W2        860             0.0000000000
      2579       860  TIP3      H1            -25.4563687858       -5.4937357020       -6.1910086337  W2        860             0.0000000000
      2580       860  TIP3      H2            -25.4850987858       -4.2712957020       -5.2984386337  W2        860             0.0000000000
      2581       861  TIP3      OH2           -29.9607187858       -6.9955057020        1.4037613663  W2        861             0.0000000000
      2582       861  TIP3      H1            -30.7008087858       -6.3973557020        1.5072813663  W2        861             0.0000000000
      2583       861  TIP3      H2            -29.2467687858       -6.4415457020        1.0881213663  W2        861             0.0000000000
      2584       862  TIP3      OH2           -21.8539387858      -14.1674257020       -2.5762686337  W2        862             0.0000000000
      2585       862  TIP3      H1            -22.0691387858      -14.9330857020       -2.0436686337  W2        862             0.0000000000
      2586       862  TIP3      H2            -21.1981987858      -13.6949657020       -2.0634186337  W2        862             0.0000000000
      2587       863  TIP3      OH2           -32.9361287858      -12.7788957020       -0.9313886337  W2        863             0.0000000000
      2588       863  TIP3      H1            -32.3224987858      -12.1461357020       -0.5581486337  W2        863             0.0000000000
      2589       863  TIP3      H2            -32.4240587858      -13.2513957020       -1.5876986337  W2        863             0.0000000000
      2590       864  TIP3      OH2           -31.5532887858       -5.0312057020        2.1909113663  W2        864             0.0000000000
      2591       864  TIP3      H1            -31.5585287858       -4.1518557020        1.8128413663  W2        864             0.0000000000
      2592       864  TIP3      H2            -32.4068787858       -5.1147957020        2.6159013663  W2        864             0.0000000000
      2593       865  TIP3      OH2           -35.4321987858       -5.3604157020       -7.0271586337  W2        865             0.0000000000
      2594       865  TIP3      H1            -35.7041087858       -5.1313157020       -7.9158686337  W2        865             0.0000000000
      2595       865  TIP3      H2            -35.3866287858       -4.5225357020       -6.5666286337  W2        865             0.0000000000
      2596       866  TIP3      OH2           -21.8072287858       -3.7388257020       -0.3143086337  W2        866             0.0000000000
      2597       866  TIP3      H1            -22.7488587858       -3.6804357020       -0.1526186337  W2        866             0.0000000000
      2598       866  TIP3      H2            -21.5306187858       -2.8327757020       -0.4513386337  W2        866             0.0000000000
      2599       867  TIP3      OH2           -21.5065287858      -15.4522957020        1.1030813663  W2        867             0.0000000000
      2600       867  TIP3      H1            -22.2426087858      -14.8415857020        1.0652113663  W2        867             0.0000000000
      2601       867  TIP3      H2            -20.8231287858      -15.0373957020        0.5767213663  W2        867             0.0000000000
      2602       868  TIP3      OH2           -28.5033887858      -17.3655657020       -1.4311186337  W2        868             0.0000000000
      2603       868  TIP3      H1            -28.6209687858      -18.3139657020       -1.4852886337  W2        868             0.0000000000
      2604       868  TIP3      H2            -29.3583787858      -17.0329557020       -1.1580086337  W2        868             0.0000000000
      2605       869  TIP3      OH2           -23.5551087858       -1.9574757020       -3.6891486337  W2        869             0.0000000000
      2606       869  TIP3      H1            -23.1298787858       -2.6646857020       -4.1741886337  W2        869             0.0000000000
      2607       869  TIP3      H2            -23.2381087858       -1.1562057020       -4.1059286337  W2        869             0.0000000000
      2608       870  TIP3      OH2           -22.3954587858       -4.0566257020       -5.1804886337  W2        870             0.0000000000
      2609       870  TIP3      H1            -22.6529787858       -4.7466157020       -5.7918986337  W2        870             0.0000000000
      2610       870  TIP3      H2            -22.3243787858       -4.4995057020       -4.3348986337  W2        870             0.0000000000
      2611       871  TIP3      OH2           -20.7094387858       -5.4899557020        3.2968613663  W2        871             0.0000000000
      2612       871  TIP3      H1            -20.5698087858       -6.0817057020        2.5575613663  W2        871             0.0000000000
      2613       871  TIP3      H2            -20.5421587858       -4.6173657020        2.9407413663  W2        871             0.0000000000
      2614       872  TIP3      OH2           -26.2368987858       -8.5280057020       -6.9305386337  W2        872             0.0000000000
      2615       872  TIP3      H1            -26.9483487858       -7.9930357020       -7.2824886337  W2        872             0.0000000000
      2616       872  TIP3      H2            -25.5459387858       -8.4727957020       -7.5906486337  W2        872             0.0000000000
      2617       873  TIP3      OH2           -26.1829787858      -10.0705757020       -9.8920386337  W2        873             0.0000000000
      2618       873  TIP3      H1            -25.4819887858      -10.0478857020       -9.2406386337  W2        873             0.0000000000
      2619       873  TIP3      H2            -25.8806887858      -10.6986057020      -10.5481086337  W2        873             0.0000000000
      2620       874  TIP3      OH2           -18.8675087858       -9.1501557020        1.3629013663  W2        874             0.0000000000
      2621       874  TIP3      H1            -19.5200987858       -8.4555957020        1.4519913663  W2        874             0.0000000000
      2622       874  TIP3      H2            -18.4024787858       -8.9400657020        0.5530613663  W2        874             0.0000000000
      2623       875  TIP3      OH2           -22.8311287858       -8.3186757020       -5.9789486337  W2        875             0.0000000000
      2624       875  TIP3      H1            -23.5630287858       -8.0903057020       -5.4058886337  W2        875             0.0000000000
      2625       875  TIP3      H2            -22.3839087858       -9.0324057020       -5.5241986337  W2        875             0.0000000000
      2626       876  TIP3      OH2           -22.9337787858      -10.1444157020        3.0887513663  W2        876             0.0000000000
      2627       876  TIP3      H1            -22.8538687858       -9.3809757020        3.6606013663  W2        876             0.0000000000
      2628       876  TIP3      H2            -23.5350087858       -9.8651757020        2.3982613663  W2        876             0.0000000000
      2629       877  TIP3      OH2           -31.1857587858       -7.6880557020       -4.0964486337  W2        877             0.0000000000
      2630       877  TIP3      H1            -31.5162387858       -8.0587157020       -4.9147486337  W2        877             0.0000000000
      2631       877  TIP3      H2            -30.5973487858       -8.3586557020       -3.7496186337  W2        877             0.0000000000
      2632       878  TIP3      OH2           -29.8190087858       -4.2599957020       -1.4152286337  W2        878             0.0000000000
      2633       878  TIP3      H1            -29.9138787858       -4.8386857020       -2.1717686337  W2        878             0.0000000000
      2634       878  TIP3      H2            -29.0896487858       -4.6314257020       -0.9189486337  W2        878             0.0000000000
      2635       879  TIP3      OH2           -30.8192087858       -8.9194957020       -0.4629486337  W2        879             0.0000000000
      2636       879  TIP3      H1            -30.2539587858       -8.7980757020       -1.2258286337  W2        879             0.0000000000
      2637       879  TIP3      H2            -30.5003187858       -8.2819957020        0.1759013663  W2        879             0.0000000000
      2638       880  TIP3      OH2           -24.5099887858       -3.4163057020        0.2711013663  W2        880             0.0000000000
      2639       880  TIP3      H1            -24.7503287858       -2.7539957020        0.9190213663  W2        880             0.0000000000
      2640       880  TIP3      H2            -24.7081687858       -4.2507857020        0.6960613663  W2        880             0.0000000000
      2641       881  TIP3      OH2           -29.9391387858       -4.5202257020        4.2542413663  W2        881             0.0000000000
      2642       881  TIP3      H1            -30.2503887858       -3.7379057020        4.7095613663  W2        881             0.0000000000
      2643       881  TIP3      H2            -30.5891187858       -4.6733157020        3.5684413663  W2        881             0.0000000000
      2644       882  TIP3      OH2           -23.9601787858       -9.1563857020       -8.2938286337  W2        882             0.0000000000
      2645       882  TIP3      H1            -23.3806287858       -9.0063557020       -7.5469386337  W2        882             0.0000000000
      2646       882  TIP3      H2            -23.5461787858       -8.6856457020       -9.0171886337  W2        882             0.0000000000
      2647       883  TIP3      OH2           -33.0191487858       -8.3221157020        3.4828113663  W2        883             0.0000000000
      2648       883  TIP3      H1            -32.9488287858       -7.6714357020        4.1813113663  W2        883             0.0000000000
      2649       883  TIP3      H2            -33.9099287858       -8.2193657020        3.1479013663  W2        883             0.0000000000
      2650       884  TIP3      OH2           -26.2336887858       -2.4195357020       -4.8585186337  W2        884             0.0000000000
      2651       884  TIP3      H1            -25.7599287858       -2.1239057020       -4.0810986337  W2        884             0.0000000000
      2652       884  TIP3      H2            -26.7967587858       -1.6813757020       -5.0915586337  W2        884             0.0000000000
      2653       885  TIP3      OH2           -31.6995487858       -2.4487257020        5.0176213663  W2        885             0.0000000000
      2654       885  TIP3      H1            -31.6920187858       -2.5847557020        4.0701713663  W2        885             0.0000000000
      2655       885  TIP3      H2            -32.6155087858       -2.5659157020        5.2696213663  W2        885             0.0000000000
      2656       886  TIP3      OH2           -20.2613387858      -17.4063457020       -8.4808586337  W2        886             0.0000000000
      2657       886  TIP3      H1            -21.1612687858      -17.2674457020       -8.1857986337  W2        886             0.0000000000
      2658       886  TIP3      H2            -20.0094987858      -16.5748857020       -8.8826886337  W2        886             0.0000000000
      2659       887  TIP3      OH2           -32.1954887858       -8.6186257020       -6.5071686337  W2        887             0.0000000000
      2660       887  TIP3      H1            -32.4873587858       -7.8504557020       -6.9980386337  W2        887             0.0000000000
      2661       887  TIP3      H2            -32.8699687858       -9.2780057020       -6.6700286337  W2        887             0.0000000000
      2662       888  TIP3      OH2           -19.0721987858       -3.0401057020      -10.1044686337  W2        888             0.0000000000
      2663       888  TIP3      H1            -18.9988487858       -2.1010857020       -9.9339386337  W2        888             0.0000000000
      2664       888  TIP3      H2            -18.1666887858       -3.3452457020      -10.1607386337  W2        888             0.0000000000
      2665       889  TIP3      OH2           -36.1024787858       -6.2557057020        2.3078113663  W2        889             0.0000000000
      2666       889  TIP3      H1            -36.6036387858       -6.2837657020        1.4927813663  W2        889             0.0000000000
      2667       889  TIP3      H2            -36.0971087858       -7.1613857020        2.6175413663  W2        889             0.0000000000
      2668       890  TIP3      OH2           -36.3522087858       -3.4753257020       -0.8081686337  W2        890             0.0000000000
      2669       890  TIP3      H1            -35.4061487858       -3.6196257020       -0.8272186337  W2        890             0.0000000000
      2670       890  TIP3      H2            -36.4645787858       -2.6910457020       -0.2710486337  W2        890             0.0000000000
      2671       891  TIP3      OH2           -18.1543587858       -2.8093557020        4.8742013663  W2        891             0.0000000000
      2672       891  TIP3      H1            -18.2036787858       -3.7645457020        4.8369613663  W2        891             0.0000000000
      2673       891  TIP3      H2            -18.9811287858       -2.5418257020        5.2755813663  W2        891             0.0000000000
      2674       892  TIP3      OH2           -27.1759587858       -3.2354357020        3.7503413663  W2        892             0.0000000000
      2675       892  TIP3      H1            -27.0884987858       -2.4089757020        4.2252513663  W2        892             0.0000000000
      2676       892  TIP3      H2            -28.0394487858       -3.5650557020        3.9992713663  W2        892             0.0000000000
      2677       893  TIP3      OH2           -26.7613787858        0.5369342980       -6.4435986337  W2        893             0.0000000000
      2678       893  TIP3      H1            -26.8367787858        0.4156542980       -7.3900786337  W2        893             0.0000000000
      2679       893  TIP3      H2            -26.7285087858        1.4862042980       -6.3251386337  W2        893             0.0000000000
      2680       894  TIP3      OH2           -33.1079987858       -0.6743657020       -4.6626986337  W2        894             0.0000000000
      2681       894  TIP3      H1            -32.9559587858       -1.0223257020       -3.7840486337  W2        894             0.0000000000
      2682       894  TIP3      H2            -33.9589587858       -1.0306357020       -4.9179786337  W2        894             0.0000000000
      2683       895  TIP3      OH2           -23.6597787858       -0.3090457020       -9.4413586337  W2        895             0.0000000000
      2684       895  TIP3      H1            -23.2849387858       -1.0534357020       -9.9120986337  W2        895             0.0000000000
      2685       895  TIP3      H2            -23.6554087858       -0.5789857020       -8.5230286337  W2        895             0.0000000000
      2686       896  TIP3      OH2           -23.9909687858       -0.3833357020       -6.6921386337  W2        896             0.0000000000
      2687       896  TIP3      H1            -24.9259887858       -0.2831457020       -6.5134386337  W2        896             0.0000000000
      2688       896  TIP3      H2            -23.7107787858       -1.0927357020       -6.1138186337  W2        896             0.0000000000
      2689       897  TIP3      OH2           -21.0023787858      -11.3161057020        5.3544213663  W2        897             0.0000000000
      2690       897  TIP3      H1            -21.4096987858      -10.8355457020        4.6337513663  W2        897             0.0000000000
      2691       897  TIP3      H2            -20.9618087858      -12.2215057020        5.0465013663  W2        897             0.0000000000
      2692       898  TIP3      OH2           -33.8534287858       -4.9321657020        3.3510913663  W2        898             0.0000000000
      2693       898  TIP3      H1            -33.6372987858       -5.2936057020        4.2106713663  W2        898             0.0000000000
      2694       898  TIP3      H2            -34.7089587858       -5.3067857020        3.1414413663  W2        898             0.0000000000
      2695       899  TIP3      OH2           -31.2346287858      -16.4621157020       -0.6534886337  W2        899             0.0000000000
      2696       899  TIP3      H1            -32.0962587858      -16.5492957020       -1.0611986337  W2        899             0.0000000000
      2697       899  TIP3      H2            -31.2570587858      -15.6061057020       -0.2257286337  W2        899             0.0000000000
      2698       900  TIP3      OH2           -26.5718487858      -16.7400757020        2.7212113663  W2        900             0.0000000000
      2699       900  TIP3      H1            -26.1515387858      -17.1553657020        3.4742713663  W2        900             0.0000000000
      2700       900  TIP3      H2            -27.5048887858      -16.9187457020        2.8384113663  W2        900             0.0000000000
      2701       901  TIP3      OH2           -23.2453587858      -12.9845557020        3.5746613663  W2        901             0.0000000000
      2702       901  TIP3      H1            -23.7594087858      -13.1103357020        4.3722613663  W2        901             0.0000000000
      2703       901  TIP3      H2            -23.4008887858      -12.0722457020        3.3302813663  W2        901             0.0000000000
      2704       902  TIP3      OH2           -22.4828687858       -8.1235557020      -10.6640386337  W2        902             0.0000000000
      2705       902  TIP3      H1            -22.4407887858       -8.3461657020      -11.5940386337  W2        902             0.0000000000
      2706       902  TIP3      H2            -21.6336587858       -7.7248457020      -10.4740486337  W2        902             0.0000000000
      2707       903  TIP3      OH2           -26.9101187858      -14.2477357020       -9.9937086337  W2        903             0.0000000000
      2708       903  TIP3      H1            -27.1636387858      -14.2285757020       -9.0708986337  W2        903             0.0000000000
      2709       903  TIP3      H2            -27.1669087858      -15.1191957020      -10.2950886337  W2        903             0.0000000000
      2710       904  TIP3      OH2           -31.1436187858      -11.4966657020        0.4415313663  W2        904             0.0000000000
      2711       904  TIP3      H1            -31.7854087858      -11.5369357020        1.1505413663  W2        904             0.0000000000
      2712       904  TIP3      H2            -31.1064187858      -10.5701957020        0.2038313663  W2        904             0.0000000000
      2713       905  TIP3      OH2           -31.1467087858      -11.2756557020       -4.6464686337  W2        905             0.0000000000
      2714       905  TIP3      H1            -32.0394187858      -11.6160457020       -4.7050886337  W2        905             0.0000000000
      2715       905  TIP3      H2            -30.6960487858      -11.6525657020       -5.4021486337  W2        905             0.0000000000
      2716       906  TIP3      OH2           -25.6111587858      -10.8596257020       -5.8293886337  W2        906             0.0000000000
      2717       906  TIP3      H1            -26.0201287858      -10.0447657020       -6.1209086337  W2        906             0.0000000000
      2718       906  TIP3      H2            -24.8905387858      -10.9996157020       -6.4436786337  W2        906             0.0000000000
      2719       907  TIP3      OH2           -26.5089987858      -10.6839857020        5.6586813663  W2        907             0.0000000000
      2720       907  TIP3      H1            -27.0716187858      -11.3888257020        5.9794613663  W2        907             0.0000000000
      2721       907  TIP3      H2            -25.6826587858      -10.8047957020        6.1264413663  W2        907             0.0000000000
      2722       908  TIP3      OH2           -24.6063887858      -11.4135857020       -3.0154186337  W2        908             0.0000000000
      2723       908  TIP3      H1            -24.8019387858      -10.8079057020       -3.7303586337  W2        908             0.0000000000
      2724       908  TIP3      H2            -24.4251287858      -12.2470657020       -3.4497886337  W2        908             0.0000000000
      2725       909  TIP3      OH2           -33.3935687858      -11.1763157020        2.3087313663  W2        909             0.0000000000
      2726       909  TIP3      H1            -33.4316287858      -10.7761557020        3.1774413663  W2        909             0.0000000000
      2727       909  TIP3      H2            -33.8844587858      -11.9930757020        2.3990213663  W2        909             0.0000000000
      2728       910  TIP3      OH2           -30.0278287858      -13.8020857020      -10.8926686337  W2        910             0.0000000000
      2729       910  TIP3      H1            -30.4587587858      -14.2470757020      -10.1629286337  W2        910             0.0000000000
      2730       910  TIP3      H2            -30.7459587858      -13.4304557020      -11.4049186337  W2        910             0.0000000000
      2731       911  TIP3      OH2           -36.7854887858      -14.0601357020       -3.8407986337  W2        911             0.0000000000
      2732       911  TIP3      H1            -36.1547187858      -14.0889257020       -3.1214086337  W2        911             0.0000000000
      2733       911  TIP3      H2            -36.3360587858      -14.4852657020       -4.5712086337  W2        911             0.0000000000
      2734       912  TIP3      OH2           -35.5112787858      -13.3139357020       -8.4167586337  W2        912             0.0000000000
      2735       912  TIP3      H1            -35.0371087858      -12.7229457020       -9.0016686337  W2        912             0.0000000000
      2736       912  TIP3      H2            -36.2286387858      -12.7836457020       -8.0697486337  W2        912             0.0000000000
      2737       913  TIP3      OH2           -25.3424687858       -9.7754557020        1.6558213663  W2        913             0.0000000000
      2738       913  TIP3      H1            -25.0189887858      -10.4064857020        1.0128713663  W2        913             0.0000000000
      2739       913  TIP3      H2            -25.7825387858      -10.3102357020        2.3165613663  W2        913             0.0000000000
      2740       914  TIP3      OH2           -28.5651787858      -13.8479057020       -3.5600586337  W2        914             0.0000000000
      2741       914  TIP3      H1            -29.4760687858      -13.7912257020       -3.2714586337  W2        914             0.0000000000
      2742       914  TIP3      H2            -28.0598887858      -13.9083557020       -2.7493386337  W2        914             0.0000000000
      2743       915  TIP3      OH2           -33.7368387858      -12.2192757020       -4.7332986337  W2        915             0.0000000000
      2744       915  TIP3      H1            -34.6260387858      -12.1197257020       -5.0733386337  W2        915             0.0000000000
      2745       915  TIP3      H2            -33.4403487858      -13.0609757020       -5.0795086337  W2        915             0.0000000000
      2746       916  TIP3      OH2           -30.0836587858      -12.2190157020       -7.0768386337  W2        916             0.0000000000
      2747       916  TIP3      H1            -29.1521087858      -12.0900157020       -6.8985286337  W2        916             0.0000000000
      2748       916  TIP3      H2            -30.2986287858      -11.5495857020       -7.7263686337  W2        916             0.0000000000
      2749       917  TIP3      OH2           -24.1599887858      -14.6132757020       -0.2958786337  W2        917             0.0000000000
      2750       917  TIP3      H1            -24.8368287858      -14.4819657020        0.3680913663  W2        917             0.0000000000
      2751       917  TIP3      H2            -24.6454987858      -14.7683257020       -1.1061086337  W2        917             0.0000000000
      2752       918  TIP3      OH2           -31.4096387858      -11.0247957020       -9.5102286337  W2        918             0.0000000000
      2753       918  TIP3      H1            -31.9521287858      -11.4044157020      -10.2014686337  W2        918             0.0000000000
      2754       918  TIP3      H2            -30.5761487858      -10.8303257020       -9.9388186337  W2        918             0.0000000000
      2755       919  TIP3      OH2           -20.8724787858        1.0582642980        5.9808813663  W2        919             0.0000000000
      2756       919  TIP3      H1            -20.6726087858        1.4824542980        5.1464113663  W2        919             0.0000000000
      2757       919  TIP3      H2            -20.2171087858        1.4020842980        6.5879213663  W2        919             0.0000000000
      2758       920  TIP3      OH2           -33.2744987858       -6.4676057020        5.5889313663  W2        920             0.0000000000
      2759       920  TIP3      H1            -32.5422587858       -6.2130157020        6.1503813663  W2        920             0.0000000000
      2760       920  TIP3      H2            -34.0546287858       -6.2630657020        6.1044713663  W2        920             0.0000000000
      2761       921  TIP3      OH2           -27.2452087858      -11.0606057020       -1.6730986337  W2        921             0.0000000000
      2762       921  TIP3      H1            -26.6808687858      -11.6069457020       -2.2201386337  W2        921             0.0000000000
      2763       921  TIP3      H2            -27.3928687858      -11.5824157020       -0.8843386337  W2        921             0.0000000000
      2764       922  TIP3      OH2           -32.2432387858      -14.9239957020       -5.2546186337  W2        922             0.0000000000
      2765       922  TIP3      H1            -32.5602887858      -15.8264657020       -5.2900786337  W2        922             0.0000000000
      2766       922  TIP3      H2            -31.4618287858      -14.9222557020       -5.8074586337  W2        922             0.0000000000
      2767       923  TIP3      OH2           -28.6186187858      -12.6719957020        0.7409413663  W2        923             0.0000000000
      2768       923  TIP3      H1            -29.4540887858      -12.2180457020        0.8511813663  W2        923             0.0000000000
      2769       923  TIP3      H2            -28.0945587858      -12.3961457020        1.4929313663  W2        923             0.0000000000
      2770       924  TIP3      OH2           -28.0743587858       -6.4592257020       -7.5744186337  W2        924             0.0000000000
      2771       924  TIP3      H1            -28.8192587858       -6.9666957020       -7.8966286337  W2        924             0.0000000000
      2772       924  TIP3      H2            -28.2086387858       -6.4104257020       -6.6279386337  W2        924             0.0000000000
      2773       925  TIP3      OH2           -20.9244687858       -7.3264057020        1.2123413663  W2        925             0.0000000000
      2774       925  TIP3      H1            -20.2825887858       -6.8697757020        0.6685613663  W2        925             0.0000000000
      2775       925  TIP3      H2            -21.7547787858       -7.2131657020        0.7497513663  W2        925             0.0000000000
      2776       926  TIP3      OH2           -24.1766787858      -13.6452357020       -9.3751586337  W2        926             0.0000000000
      2777       926  TIP3      H1            -25.1152587858      -13.5336757020       -9.5262786337  W2        926             0.0000000000
      2778       926  TIP3      H2            -23.8794687858      -12.7885457020       -9.0685886337  W2        926             0.0000000000
      2779       927  TIP3      OH2           -26.5551487858       -6.2748957020        3.6624913663  W2        927             0.0000000000
      2780       927  TIP3      H1            -26.9005387858       -6.6566557020        4.4694513663  W2        927             0.0000000000
      2781       927  TIP3      H2            -26.7551387858       -5.3415357020        3.7337813663  W2        927             0.0000000000
      2782       928  TIP3      OH2           -23.4583287858      -11.7779657020       -7.7144186337  W2        928             0.0000000000
      2783       928  TIP3      H1            -22.5664287858      -11.9154657020       -7.3952986337  W2        928             0.0000000000
      2784       928  TIP3      H2            -23.4019687858      -10.9873557020       -8.2510686337  W2        928             0.0000000000
      2785       929  TIP3      OH2           -32.9495287858       -7.1642257020       -1.8046286337  W2        929             0.0000000000
      2786       929  TIP3      H1            -32.2048087858       -7.1666557020       -2.4059786337  W2        929             0.0000000000
      2787       929  TIP3      H2            -32.8718687858       -7.9878457020       -1.3231186337  W2        929             0.0000000000
      2788       930  TIP3      OH2           -25.9489487858       -5.0007957020       -8.5489586337  W2        930             0.0000000000
      2789       930  TIP3      H1            -26.2441087858       -4.1740057020       -8.1674786337  W2        930             0.0000000000
      2790       930  TIP3      H2            -26.6519487858       -5.6201057020       -8.3528186337  W2        930             0.0000000000
      2791       931  TIP3      OH2           -35.9415587858       -8.7035357020        3.5102213663  W2        931             0.0000000000
      2792       931  TIP3      H1            -35.7186987858       -9.1215757020        4.3419713663  W2        931             0.0000000000
      2793       931  TIP3      H2            -36.5435487858       -9.3160357020        3.0875013663  W2        931             0.0000000000
      2794       932  TIP3      OH2           -28.9250687858       -9.1865457020        5.7231913663  W2        932             0.0000000000
      2795       932  TIP3      H1            -29.2209887858       -9.3522457020        4.8281013663  W2        932             0.0000000000
      2796       932  TIP3      H2            -27.9935487858       -9.4065157020        5.7125813663  W2        932             0.0000000000
      2797       933  TIP3      OH2           -24.3047887858       -3.8133457020        3.6129913663  W2        933             0.0000000000
      2798       933  TIP3      H1            -25.2053587858       -3.6300857020        3.3453813663  W2        933             0.0000000000
      2799       933  TIP3      H2            -24.2706787858       -3.5544157020        4.5338713663  W2        933             0.0000000000
      2800       934  TIP3      OH2           -18.5734587858      -11.5685557020       -8.0197486337  W2        934             0.0000000000
      2801       934  TIP3      H1            -19.1278287858      -11.9647557020       -8.6919986337  W2        934             0.0000000000
      2802       934  TIP3      H2            -18.4730987858      -10.6580357020       -8.2974186337  W2        934             0.0000000000
      2803       935  TIP3      OH2           -18.6102587858       -5.7683857020        4.8174013663  W2        935             0.0000000000
      2804       935  TIP3      H1            -19.4614087858       -5.5300057020        4.4500413663  W2        935             0.0000000000
      2805       935  TIP3      H2            -18.0199187858       -5.7850657020        4.0641113663  W2        935             0.0000000000
      2806       936  TIP3      OH2           -20.2782887858       -2.7825157020       -7.5545386337  W2        936             0.0000000000
      2807       936  TIP3      H1            -20.6511787858       -3.6081357020       -7.2454786337  W2        936             0.0000000000
      2808       936  TIP3      H2            -20.0009387858       -2.9655757020       -8.4521986337  W2        936             0.0000000000
      2809       937  TIP3      OH2           -23.1178987858       -7.9745657020       -0.5333486337  W2        937             0.0000000000
      2810       937  TIP3      H1            -24.0462087858       -8.2063757020       -0.5604186337  W2        937             0.0000000000
      2811       937  TIP3      H2            -22.6667887858       -8.7515857020       -0.8634686337  W2        937             0.0000000000
      2812       938  TIP3      OH2           -30.5745887858       -3.6464057020       -4.4004786337  W2        938             0.0000000000
      2813       938  TIP3      H1            -30.0473687858       -2.8729657020       -4.6005986337  W2        938             0.0000000000
      2814       938  TIP3      H2            -31.4547387858       -3.4214857020       -4.7020786337  W2        938             0.0000000000
      2815       939  TIP3      OH2           -34.8198187858       -8.7839957020       -9.8132386337  W2        939             0.0000000000
      2816       939  TIP3      H1            -34.2038287858       -8.1572757020       -9.4337586337  W2        939             0.0000000000
      2817       939  TIP3      H2            -35.6815587858       -8.4680157020       -9.5415886337  W2        939             0.0000000000
      2818       940  TIP3      OH2           -29.1473587858       -5.9834157020       -4.8240486337  W2        940             0.0000000000
      2819       940  TIP3      H1            -29.3883587858       -5.0579757020       -4.7825186337  W2        940             0.0000000000
      2820       940  TIP3      H2            -29.8879987858       -6.4422857020       -4.4276586337  W2        940             0.0000000000
      2821       941  TIP3      OH2           -28.6326987858       -1.8340557020        1.4910613663  W2        941             0.0000000000
      2822       941  TIP3      H1            -28.2702287858       -0.9794957020        1.2575013663  W2        941             0.0000000000
      2823       941  TIP3      H2            -28.1011787858       -2.1258957020        2.2316913663  W2        941             0.0000000000
      2824       942  TIP3      OH2           -30.4642787858       -0.9616557020       -5.2788286337  W2        942             0.0000000000
      2825       942  TIP3      H1            -31.4142287858       -0.8559157020       -5.2274986337  W2        942             0.0000000000
      2826       942  TIP3      H2            -30.1124687858       -0.1409157020       -4.9340786337  W2        942             0.0000000000
      2827       943  TIP3      OH2           -25.0886187858       -5.7349857020        1.1916213663  W2        943             0.0000000000
      2828       943  TIP3      H1            -25.5144887858       -5.9628157020        2.0180213663  W2        943             0.0000000000
      2829       943  TIP3      H2            -24.5080387858       -6.4738057020        1.0091513663  W2        943             0.0000000000
      2830       944  TIP3      OH2           -22.8857287858       -4.8059357020       -9.7344786337  W2        944             0.0000000000
      2831       944  TIP3      H1            -22.5324187858       -5.1859557020       -8.9301286337  W2        944             0.0000000000
      2832       944  TIP3      H2            -23.8343787858       -4.8994557020       -9.6475486337  W2        944             0.0000000000
      2833       945  TIP3      OH2           -22.4301987858       -1.1830357020        3.6611013663  W2        945             0.0000000000
      2834       945  TIP3      H1            -23.0318787858       -1.7387457020        3.1657313663  W2        945             0.0000000000
      2835       945  TIP3      H2            -22.1488287858       -0.5160557020        3.0348413663  W2        945             0.0000000000
      2836       946  TIP3      OH2           -18.3822887858       -0.3266857020       -9.5334586337  W2        946             0.0000000000
      2837       946  TIP3      H1            -17.6384987858        0.2593642980       -9.6732986337  W2        946             0.0000000000
      2838       946  TIP3      H2            -19.0764787858        0.2418942980       -9.2002186337  W2        946             0.0000000000
      2839       947  TIP3      OH2           -34.3076087858      -13.9502657020        3.0683613663  W2        947             0.0000000000
      2840       947  TIP3      H1            -35.2003787858      -13.6117257020        3.0007613663  W2        947             0.0000000000
      2841       947  TIP3      H2            -34.4063287858      -14.8056557020        3.4864413663  W2        947             0.0000000000
      2842       948  TIP3      OH2           -22.0197987858       -6.1337357020       -7.5076886337  W2        948             0.0000000000
      2843       948  TIP3      H1            -22.2970387858       -6.8618057020       -6.9515786337  W2        948             0.0000000000
      2844       948  TIP3      H2            -21.0924987858       -6.0145357020       -7.3024286337  W2        948             0.0000000000
      2845       949  TIP3      OH2           -34.6564087858       -2.1458257020        1.5033013663  W2        949             0.0000000000
      2846       949  TIP3      H1            -34.4393787858       -3.0775857020        1.4722713663  W2        949             0.0000000000
      2847       949  TIP3      H2            -34.4100587858       -1.8713257020        2.3865813663  W2        949             0.0000000000
      2848       950  TIP3      OH2           -28.7949487858       -3.6943257020      -11.2874786337  W2        950             0.0000000000
      2849       950  TIP3      H1            -28.5559687858       -4.4425157020      -11.8345886337  W2        950             0.0000000000
      2850       950  TIP3      H2            -29.0638187858       -4.0821557020      -10.4546986337  W2        950             0.0000000000
      2851       951  TIP3      OH2           -29.8578887858       -4.1239457020       -8.8312186337  W2        951             0.0000000000
      2852       951  TIP3      H1            -29.7110887858       -4.6439657020       -8.0411286337  W2        951             0.0000000000
      2853       951  TIP3      H2            -29.8607187858       -3.2171857020       -8.5246286337  W2        951             0.0000000000
      2854       952  TIP3      OH2           -33.4047787858       -6.8716157020       -8.3206786337  W2        952             0.0000000000
      2855       952  TIP3      H1            -34.0908487858       -6.5193657020       -7.7537086337  W2        952             0.0000000000
      2856       952  TIP3      H2            -32.8819887858       -6.1086557020       -8.5672486337  W2        952             0.0000000000
      2857       953  TIP3      OH2           -25.5732687858      -14.2092357020        1.9582213663  W2        953             0.0000000000
      2858       953  TIP3      H1            -24.8744787858      -14.1353657020        2.6081913663  W2        953             0.0000000000
      2859       953  TIP3      H2            -25.9541287858      -15.0737357020        2.1125113663  W2        953             0.0000000000
      2860       954  TIP3      OH2           -24.7887787858      -14.5570657020       -6.9445486337  W2        954             0.0000000000
      2861       954  TIP3      H1            -24.5689487858      -14.0855257020       -7.7480086337  W2        954             0.0000000000
      2862       954  TIP3      H2            -24.2303787858      -14.1628057020       -6.2744886337  W2        954             0.0000000000
      2863       955  TIP3      OH2           -27.1201687858       -2.4265857020       -8.0817986337  W2        955             0.0000000000
      2864       955  TIP3      H1            -27.9365587858       -1.9296157020       -8.0293686337  W2        955             0.0000000000
      2865       955  TIP3      H2            -26.5905387858       -1.9512357020       -8.7219186337  W2        955             0.0000000000
      2866       956  TIP3      OH2           -27.5887887858      -12.8291857020       -6.1097086337  W2        956             0.0000000000
      2867       956  TIP3      H1            -26.7765287858      -12.3248657020       -6.0635386337  W2        956             0.0000000000
      2868       956  TIP3      H2            -27.8334887858      -12.9742157020       -5.1957486337  W2        956             0.0000000000
      2869       957  TIP3      OH2           -27.0531487858      -11.8429157020        3.0749513663  W2        957             0.0000000000
      2870       957  TIP3      H1            -26.9341187858      -11.2693757020        3.8319913663  W2        957             0.0000000000
      2871       957  TIP3      H2            -26.3976887858      -12.5309757020        3.1897313663  W2        957             0.0000000000
      2872       958  TIP3      OH2           -26.7051187858      -15.7478857020       -5.1715986337  W2        958             0.0000000000
      2873       958  TIP3      H1            -27.0517687858      -15.1308257020       -4.5271686337  W2        958             0.0000000000
      2874       958  TIP3      H2            -26.0464287858      -15.2473157020       -5.6530486337  W2        958             0.0000000000
      2875       959  TIP3      OH2           -29.7818587858       -1.3828657020       -8.1001086337  W2        959             0.0000000000
      2876       959  TIP3      H1            -29.6209887858       -0.5831157020       -8.6008486337  W2        959             0.0000000000
      2877       959  TIP3      H2            -29.9790787858       -1.0762657020       -7.2150486337  W2        959             0.0000000000
      2878       960  TIP3      OH2           -31.0474187858      -14.6849457020       -8.4843486337  W2        960             0.0000000000
      2879       960  TIP3      H1            -31.1309387858      -13.7966357020       -8.1377086337  W2        960             0.0000000000
      2880       960  TIP3      H2            -30.1573887858      -14.9502757020       -8.2526686337  W2        960             0.0000000000
      2881       961  TIP3      OH2           -20.8485687858      -13.9358857020        3.9099213663  W2        961             0.0000000000
      2882       961  TIP3      H1            -21.7649887858      -13.6737157020        3.8222913663  W2        961             0.0000000000
      2883       961  TIP3      H2            -20.5130687858      -13.9389857020        3.0134513663  W2        961             0.0000000000
      2884       962  TIP3      OH2           -22.2464687858      -10.1857857020       -1.9943486337  W2        962             0.0000000000
      2885       962  TIP3      H1            -23.0440287858      -10.6007657020       -2.3228486337  W2        962             0.0000000000
      2886       962  TIP3      H2            -21.8013587858      -10.8764157020       -1.5032986337  W2        962             0.0000000000
      2887       963  TIP3      OH2           -32.7888887858       -4.2577257020       -9.4238986337  W2        963             0.0000000000
      2888       963  TIP3      H1            -32.1967387858       -3.5582457020       -9.1476586337  W2        963             0.0000000000
      2889       963  TIP3      H2            -32.3295887858       -4.6907757020      -10.1434386337  W2        963             0.0000000000
      2890       964  TIP3      OH2           -34.4729687858      -11.5934257020      -10.3079586337  W2        964             0.0000000000
      2891       964  TIP3      H1            -34.5177087858      -10.6541157020      -10.1292586337  W2        964             0.0000000000
      2892       964  TIP3      H2            -35.3606487858      -11.8289357020      -10.5777486337  W2        964             0.0000000000
      2893       965  TIP3      OH2           -21.1600087858       -0.9295357020       -0.3719986337  W2        965             0.0000000000
      2894       965  TIP3      H1            -21.3155787858       -0.2510957020       -1.0290686337  W2        965             0.0000000000
      2895       965  TIP3      H2            -20.2273687858       -0.8576057020       -0.1689386337  W2        965             0.0000000000
      2896       966  TIP3      OH2           -33.6647687858      -16.8117657020       -1.6348586337  W2        966             0.0000000000
      2897       966  TIP3      H1            -33.8937887858      -16.7525157020       -2.5623586337  W2        966             0.0000000000
      2898       966  TIP3      H2            -34.1074287858      -17.6032157020       -1.3284486337  W2        966             0.0000000000
      2899       967  TIP3      OH2           -34.7344387858       -2.8710557020       -5.4742786337  W2        967             0.0000000000
      2900       967  TIP3      H1            -35.5665787858       -2.3987857020       -5.4471386337  W2        967             0.0000000000
      2901       967  TIP3      H2            -34.1886087858       -2.3612957020       -6.0729686337  W2        967             0.0000000000
      2902       968  TIP3      OH2           -35.4460687858       -0.2586857020        5.8555213663  W2        968             0.0000000000
      2903       968  TIP3      H1            -34.9058487858       -0.4752857020        6.6154413663  W2        968             0.0000000000
      2904       968  TIP3      H2            -35.9272687858       -1.0640857020        5.6657713663  W2        968             0.0000000000
      2905       969  TIP3      OH2           -30.8487287858       -1.3392457020        7.4759413663  W2        969             0.0000000000
      2906       969  TIP3      H1            -30.0810087858       -1.7981657020        7.8168613663  W2        969             0.0000000000
      2907       969  TIP3      H2            -30.8701087858       -1.5652657020        6.5460613663  W2        969             0.0000000000
      2908       970  TIP3      OH2           -26.7567687858       -1.8311857020      -11.1488786337  W2        970             0.0000000000
      2909       970  TIP3      H1            -27.4006687858       -2.4623257020      -10.8275086337  W2        970             0.0000000000
      2910       970  TIP3      H2            -25.9949387858       -2.3623857020      -11.3805286337  W2        970             0.0000000000
      2911       971  TIP3      OH2           -24.2718587858       -2.9591357020        6.2050913663  W2        971             0.0000000000
      2912       971  TIP3      H1            -24.6229087858       -3.8158357020        6.4481313663  W2        971             0.0000000000
      2913       971  TIP3      H2            -23.5455387858       -2.8164657020        6.8119913663  W2        971             0.0000000000
      2914       972  TIP3      OH2           -22.1524787858       -2.0141957020      -10.9150786337  W2        972             0.0000000000
      2915       972  TIP3      H1            -21.8694387858       -2.8086757020      -10.4623886337  W2        972             0.0000000000
      2916       972  TIP3      H2            -21.4126887858       -1.7810957020      -11.4759686337  W2        972             0.0000000000
      2917       973  TIP3      OH2           -35.5391187858       -6.4482757020        6.8099513663  W2        973             0.0000000000
      2918       973  TIP3      H1            -35.3950687858       -7.3502057020        6.5236213663  W2        973             0.0000000000
      2919       973  TIP3      H2            -36.3113787858       -6.1620657020        6.3221813663  W2        973             0.0000000000
      2920       974  TIP3      OH2           -31.1977487858       -6.1047057020      -11.0575886337  W2        974             0.0000000000
      2921       974  TIP3      H1            -31.1333387858       -6.8987457020      -10.5269486337  W2        974             0.0000000000
      2922       974  TIP3      H2            -30.5448287858       -6.2234257020      -11.7473886337  W2        974             0.0000000000
      2923       975  TIP3      OH2           -28.8835087858       -6.4784657020        6.2425913663  W2        975             0.0000000000
      2924       975  TIP3      H1            -29.2121287858       -6.2076557020        5.3853313663  W2        975             0.0000000000
      2925       975  TIP3      H2            -28.7316887858       -7.4194857020        6.1550913663  W2        975             0.0000000000
      2926       976  TIP3      OH2           -25.8454087858       -5.0575357020      -11.3217886337  W2        976             0.0000000000
      2927       976  TIP3      H1            -26.1139987858       -4.8773257020      -10.4208986337  W2        976             0.0000000000
      2928       976  TIP3      H2            -26.0518487858       -5.9829157020      -11.4532086337  W2        976             0.0000000000
      2929       977  TIP3      OH2           -23.1489887858       -6.5627357020        3.6258213663  W2        977             0.0000000000
      2930       977  TIP3      H1            -22.4035087858       -5.9743657020        3.5062213663  W2        977             0.0000000000
      2931       977  TIP3      H2            -23.9063087858       -5.9807657020        3.6891313663  W2        977             0.0000000000
      2932       978  TIP3      OH2           -34.7064687858       -9.2479457020        6.2298813663  W2        978             0.0000000000
      2933       978  TIP3      H1            -34.2983487858      -10.1052857020        6.1089413663  W2        978             0.0000000000
      2934       978  TIP3      H2            -34.9667087858       -9.2338157020        7.1509113663  W2        978             0.0000000000
      2935       979  TIP3      OH2           -30.0483687858       -8.1320857020       -8.7517886337  W2        979             0.0000000000
      2936       979  TIP3      H1            -30.5081687858       -8.6162557020       -8.0659386337  W2        979             0.0000000000
      2937       979  TIP3      H2            -29.7934987858       -8.8005457020       -9.3877386337  W2        979             0.0000000000
      2938       980  TIP3      OH2           -30.7594387858      -10.2393757020        3.6041713663  W2        980             0.0000000000
      2939       980  TIP3      H1            -31.3778287858       -9.5647157020        3.8846413663  W2        980             0.0000000000
      2940       980  TIP3      H2            -30.4153187858       -9.9179857020        2.7707913663  W2        980             0.0000000000
      2941       981  TIP3      OH2           -28.9773287858       -9.8889057020      -10.4894686337  W2        981             0.0000000000
      2942       981  TIP3      H1            -29.1578287858      -10.0437857020      -11.4166386337  W2        981             0.0000000000
      2943       981  TIP3      H2            -28.0272787858       -9.7810357020      -10.4446786337  W2        981             0.0000000000
      2944       982  TIP3      OH2           -25.7396187858       -7.7678457020        6.8816513663  W2        982             0.0000000000
      2945       982  TIP3      H1            -24.7864987858       -7.6839357020        6.8542513663  W2        982             0.0000000000
      2946       982  TIP3      H2            -25.9001587858       -8.4796657020        7.5011413663  W2        982             0.0000000000
      2947       983  TIP3      OH2           -19.5874987858       -7.5344857020      -11.0436586337  W2        983             0.0000000000
      2948       983  TIP3      H1            -19.8610187858       -7.9589357020      -11.8568286337  W2        983             0.0000000000
      2949       983  TIP3      H2            -19.5480887858       -6.6030357020      -11.2606186337  W2        983             0.0000000000
      2950       984  TIP3      OH2           -30.4200687858      -12.8842957020        4.6864813663  W2        984             0.0000000000
      2951       984  TIP3      H1            -30.2699787858      -13.6131657020        4.0844513663  W2        984             0.0000000000
      2952       984  TIP3      H2            -30.4178287858      -12.1071257020        4.1277013663  W2        984             0.0000000000
      2953       985  TIP3      OH2           -30.0074987858      -14.5147157020        2.1792213663  W2        985             0.0000000000
      2954       985  TIP3      H1            -29.4717487858      -14.0630457020        1.5271513663  W2        985             0.0000000000
      2955       985  TIP3      H2            -30.8595387858      -14.6227357020        1.7566313663  W2        985             0.0000000000
      2956       986  TIP3      OH2           -28.4256587858       -9.0750957020        2.4187413663  W2        986             0.0000000000
      2957       986  TIP3      H1            -27.6751787858       -9.2313457020        1.8455213663  W2        986             0.0000000000
      2958       986  TIP3      H2            -28.7648287858       -8.2234357020        2.1432913663  W2        986             0.0000000000
      2959       987  TIP3      OH2           -24.0100387858      -11.2599157020        7.4472713663  W2        987             0.0000000000
      2960       987  TIP3      H1            -23.8179087858      -12.1909757020        7.3357213663  W2        987             0.0000000000
      2961       987  TIP3      H2            -23.1524087858      -10.8349657020        7.4368113663  W2        987             0.0000000000
      2962       988  TIP3      OH2           -22.6933187858       -8.4713957020        5.5245413663  W2        988             0.0000000000
      2963       988  TIP3      H1            -22.9748187858       -7.7619357020        4.9469213663  W2        988             0.0000000000
      2964       988  TIP3      H2            -21.7508887858       -8.5440957020        5.3736613663  W2        988             0.0000000000
      2965       989  TIP3      OH2           -31.9414387858      -11.6859457020        6.5980413663  W2        989             0.0000000000
      2966       989  TIP3      H1            -32.7085387858      -12.2184657020        6.3878013663  W2        989             0.0000000000
      2967       989  TIP3      H2            -31.2625387858      -11.9959057020        5.9986713663  W2        989             0.0000000000
      2968       990  TIP3      OH2           -29.2019487858      -17.0581457020        2.6105813663  W2        990             0.0000000000
      2969       990  TIP3      H1            -29.2999887858      -16.1118257020        2.5052013663  W2        990             0.0000000000
      2970       990  TIP3      H2            -29.9443287858      -17.4307657020        2.1349313663  W2        990             0.0000000000
      2971       991  TIP3      OH2           -27.9378987858      -12.7366057020        6.1744213663  W2        991             0.0000000000
      2972       991  TIP3      H1            -28.1733587858      -12.9559357020        7.0759113663  W2        991             0.0000000000
      2973       991  TIP3      H2            -28.7212087858      -12.9434857020        5.6646713663  W2        991             0.0000000000
      2974       992  TIP3      OH2           -25.2222387858      -13.6092557020        5.2497713663  W2        992             0.0000000000
      2975       992  TIP3      H1            -26.1696987858      -13.5772857020        5.3821013663  W2        992             0.0000000000
      2976       992  TIP3      H2            -24.9095687858      -14.2345457020        5.9035913663  W2        992             0.0000000000
      2977       993  TIP3      OH2           -23.5880887858      -14.9751457020        7.2549613663  W2        993             0.0000000000
      2978       993  TIP3      H1            -23.6849087858      -15.9274157020        7.2491513663  W2        993             0.0000000000
      2979       993  TIP3      H2            -23.9097787858      -14.7064657020        8.1155113663  W2        993             0.0000000000
      2980       994  TIP3      OH2           -33.7611587858      -13.7655657020        6.3025113663  W2        994             0.0000000000
      2981       994  TIP3      H1            -33.5494187858      -14.4719557020        5.6922613663  W2        994             0.0000000000
      2982       994  TIP3      H2            -33.8724087858      -14.2029657020        7.1466313663  W2        994             0.0000000000
      2983       995  TIP3      OH2           -28.9801387858      -17.7644057020        5.2818613663  W2        995             0.0000000000
      2984       995  TIP3      H1            -28.2682987858      -18.4041857020        5.2677713663  W2        995             0.0000000000
      2985       995  TIP3      H2            -29.0810987858      -17.4975757020        4.3681713663  W2        995             0.0000000000
      2986       996  TIP3      OH2           -28.6263887858      -16.0815657020        7.3354913663  W2        996             0.0000000000
      2987       996  TIP3      H1            -28.7581687858      -16.5571857020        6.5153413663  W2        996             0.0000000000
      2988       996  TIP3      H2            -29.2256487858      -15.3372057020        7.2802013663  W2        996             0.0000000000
      2989       997  TIP3      OH2           -29.0801587858        0.8014642980       -9.4881086337  W2        997             0.0000000000
      2990       997  TIP3      H1            -28.1470887858        0.9593342980       -9.3442686337  W2        997             0.0000000000
      2991       997  TIP3      H2            -29.3442787858        1.4767642980      -10.1129586337  W2        997             0.0000000000
      2992       998  TIP3      OH2           -35.5116687858       -4.5621557020      -10.0052986337  W2        998             0.0000000000
      2993       998  TIP3      H1            -34.5977487858       -4.4832657020       -9.7319086337  W2        998             0.0000000000
      2994       998  TIP3      H2            -35.5043587858       -5.2491957020      -10.6717386337  W2        998             0.0000000000
      2995       999  TIP3      OH2           -36.8626087858        0.8306942980       -4.9279086337  W2        999             0.0000000000
      2996       999  TIP3      H1            -37.5098987858        0.3688642980       -5.4607886337  W2        999             0.0000000000
      2997       999  TIP3      H2            -36.5081487858        0.1590242980       -4.3452886337  W2        999             0.0000000000
      2998      1000  TIP3      OH2           -35.9926887858       -1.0886057020       -3.1232886337  W2        1000            0.0000000000
      2999      1000  TIP3      H1            -36.3270087858       -1.9688757020       -2.9512686337  W2        1000            0.0000000000
      3000      1000  TIP3      H2            -35.7704487858       -0.7431057020       -2.2587286337  W2        1000            0.0000000000
      3001      1001  TIP3      OH2           -18.4442087858       -0.2789657020       -0.1428086337  W2        1001            0.0000000000
      3002      1001  TIP3      H1            -18.4655387858       -0.0941257020        0.7961313663  W2        1001            0.0000000000
      3003      1001  TIP3      H2            -17.7535887858        0.2894342980       -0.4836686337  W2        1001            0.0000000000
      3004      1002  TIP3      OH2           -18.8809187858       -0.7118557020        2.7791013663  W2        1002            0.0000000000
      3005      1002  TIP3      H1            -19.3680487858       -1.4474457020        2.4078413663  W2        1002            0.0000000000
      3006      1002  TIP3      H2            -18.3316487858       -1.1054657020        3.4570413663  W2        1002            0.0000000000
      3007      1003  TIP3      OH2           -20.4301887858       -4.9220457020        7.4171313663  W2        1003            0.0000000000
      3008      1003  TIP3      H1            -21.2960787858       -5.0270757020        7.8113613663  W2        1003            0.0000000000
      3009      1003  TIP3      H2            -20.0535987858       -4.1637157020        7.8636013663  W2        1003            0.0000000000
      3010      1004  TIP3      OH2           -19.1292187858       -6.6656757020       -7.0686186337  W2        1004            0.0000000000
      3011      1004  TIP3      H1            -18.2790787858       -6.2445857020       -6.9414586337  W2        1004            0.0000000000
      3012      1004  TIP3      H2            -19.1237087858       -7.4056657020       -6.4614786337  W2        1004            0.0000000000
      3013      1005  TIP3      OH2           -18.7346587858       -8.6119357020       -5.2450486337  W2        1005            0.0000000000
      3014      1005  TIP3      H1            -19.4611987858       -9.0916757020       -4.8472886337  W2        1005            0.0000000000
      3015      1005  TIP3      H2            -18.1533287858       -8.4064657020       -4.5128886337  W2        1005            0.0000000000
      3016      1006  TIP3      OH2           -18.9755387858       -5.8271857020       -0.2972886337  W2        1006            0.0000000000
      3017      1006  TIP3      H1            -18.1421187858       -6.2051857020       -0.5779286337  W2        1006            0.0000000000
      3018      1006  TIP3      H2            -18.8635087858       -4.8840657020       -0.4163786337  W2        1006            0.0000000000
      3019      1007  TIP3      OH2           -20.4893087858       -2.9494357020        2.0095513663  W2        1007            0.0000000000
      3020      1007  TIP3      H1            -21.1367787858       -2.6242857020        2.6350713663  W2        1007            0.0000000000
      3021      1007  TIP3      H2            -21.0069087858       -3.3896657020        1.3353813663  W2        1007            0.0000000000
      3022      1008  TIP3      OH2           -18.4663487858       -8.7110857020       -8.8539186337  W2        1008            0.0000000000
      3023      1008  TIP3      H1            -18.9882387858       -8.3546757020       -9.5728286337  W2        1008            0.0000000000
      3024      1008  TIP3      H2            -18.4994287858       -8.0363057020       -8.1758286337  W2        1008            0.0000000000
      3025      1009  TIP3      OH2           -20.1174487858      -11.4715257020      -10.3032086337  W2        1009            0.0000000000
      3026      1009  TIP3      H1            -20.0210087858      -10.8048257020      -10.9832386337  W2        1009            0.0000000000
      3027      1009  TIP3      H2            -20.2574887858      -12.2868957020      -10.7846586337  W2        1009            0.0000000000
      3028      1010  TIP3      OH2           -20.9479787858      -10.0912857020       -4.6821786337  W2        1010            0.0000000000
      3029      1010  TIP3      H1            -21.0980987858      -11.0364257020       -4.7023986337  W2        1010            0.0000000000
      3030      1010  TIP3      H2            -21.3015287858       -9.8101457020       -3.8382686337  W2        1010            0.0000000000
      3031      1011  TIP3      OH2           -35.9127387858       -8.0130657020       -0.6717986337  W2        1011            0.0000000000
      3032      1011  TIP3      H1            -35.7284487858       -8.0948957020       -1.6075086337  W2        1011            0.0000000000
      3033      1011  TIP3      H2            -35.0634487858       -8.1373657020       -0.2481586337  W2        1011            0.0000000000
      3034      1012  TIP3      OH2           -20.0916887858       -8.1209557020        4.9566513663  W2        1012            0.0000000000
      3035      1012  TIP3      H1            -19.5089587858       -8.8557257020        5.1483713663  W2        1012            0.0000000000
      3036      1012  TIP3      H2            -19.5277587858       -7.3489257020        5.0032313663  W2        1012            0.0000000000
      3037      1013  TIP3      OH2           -18.5949787858      -10.2183757020        5.6411913663  W2        1013            0.0000000000
      3038      1013  TIP3      H1            -19.4583087858      -10.5971657020        5.4756613663  W2        1013            0.0000000000
      3039      1013  TIP3      H2            -17.9906087858      -10.9568957020        5.5667713663  W2        1013            0.0000000000
      3040      1014  TIP3      OH2           -20.8700687858      -14.0635457020      -11.1856586337  W2        1014            0.0000000000
      3041      1014  TIP3      H1            -20.2594887858      -14.4348657020      -10.5488386337  W2        1014            0.0000000000
      3042      1014  TIP3      H2            -21.7069187858      -14.4848557020      -10.9896586337  W2        1014            0.0000000000
      3043      1015  TIP3      OH2           -21.2374987858      -12.5087057020       -6.2196686337  W2        1015            0.0000000000
      3044      1015  TIP3      H1            -20.9577887858      -13.4156657020       -6.0954986337  W2        1015            0.0000000000
      3045      1015  TIP3      H2            -20.4783287858      -12.0745557020       -6.6087486337  W2        1015            0.0000000000
      3046      1016  TIP3      OH2           -20.6256687858      -11.9269657020       -0.7837786337  W2        1016            0.0000000000
      3047      1016  TIP3      H1            -19.6928687858      -11.7149757020       -0.8181786337  W2        1016            0.0000000000
      3048      1016  TIP3      H2            -20.8609187858      -11.8257557020        0.1385213663  W2        1016            0.0000000000
      3049      1017  TIP3      OH2           -20.5964787858      -11.1904357020        1.9921613663  W2        1017            0.0000000000
      3050      1017  TIP3      H1            -21.4393487858      -10.9223957020        2.3581413663  W2        1017            0.0000000000
      3051      1017  TIP3      H2            -20.1540487858      -10.3682457020        1.7812713663  W2        1017            0.0000000000
      3052      1018  TIP3      OH2           -36.3152587858      -12.7425657020        5.4690813663  W2        1018            0.0000000000
      3053      1018  TIP3      H1            -35.3957687858      -12.8647357020        5.7053913663  W2        1018            0.0000000000
      3054      1018  TIP3      H2            -36.7648087858      -13.4925957020        5.8584313663  W2        1018            0.0000000000
      3055      1019  TIP3      OH2           -18.3133187858      -17.2104157020        7.3456613663  W2        1019            0.0000000000
      3056      1019  TIP3      H1            -17.9636187858      -17.8640657020        6.7401313663  W2        1019            0.0000000000
      3057      1019  TIP3      H2            -18.1663687858      -16.3730057020        6.9059213663  W2        1019            0.0000000000
      3058      1020  TIP3      OH2           -20.6240187858      -15.2457757020       -6.1714686337  W2        1020            0.0000000000
      3059      1020  TIP3      H1            -20.4415187858      -15.6946257020       -5.3459686337  W2        1020            0.0000000000
      3060      1020  TIP3      H2            -21.2237287858      -15.8303357020       -6.6350086337  W2        1020            0.0000000000
      3061      1021  TIP3      OH2           -35.0940087858      -14.4304057020       -1.6396286337  W2        1021            0.0000000000
      3062      1021  TIP3      H1            -34.6488487858      -15.2221557020       -1.3376586337  W2        1021            0.0000000000
      3063      1021  TIP3      H2            -34.6277087858      -13.7138857020       -1.2090686337  W2        1021            0.0000000000
      3064      1022  TIP3      OH2           -36.7899787858      -11.4311057020       -0.5706086337  W2        1022            0.0000000000
      3065      1022  TIP3      H1            -36.2979987858      -11.6520557020       -1.3614086337  W2        1022            0.0000000000
      3066      1022  TIP3      H2            -36.4278887858      -10.5907657020       -0.2896586337  W2        1022            0.0000000000
      3067      1023  TIP3      OH2           -18.7935987858      -15.1009557020        5.6947913663  W2        1023            0.0000000000
      3068      1023  TIP3      H1            -19.7110287858      -14.8302457020        5.6591413663  W2        1023            0.0000000000
      3069      1023  TIP3      H2            -18.6706587858      -15.6361157020        4.9107613663  W2        1023            0.0000000000
      3070      1024  TIP3      OH2           -18.7573987858      -15.1779657020       -9.6434386337  W2        1024            0.0000000000
      3071      1024  TIP3      H1            -18.3451387858      -15.8993957020      -10.1186386337  W2        1024            0.0000000000
      3072      1024  TIP3      H2            -18.0757487858      -14.5085057020       -9.5850086337  W2        1024            0.0000000000
      3073      1025  TIP3      OH2           -36.4763287858      -15.1731957020       -6.5163686337  W2        1025            0.0000000000
      3074      1025  TIP3      H1            -37.4014887858      -14.9645357020       -6.6458186337  W2        1025            0.0000000000
      3075      1025  TIP3      H2            -36.0223387858      -14.6891157020       -7.2061386337  W2        1025            0.0000000000
      3076      1026  TIP3      OH2           -21.7056087858       -0.1890257020       -4.5706286337  W2        1026            0.0000000000
      3077      1026  TIP3      H1            -21.0533187858       -0.5368157020       -5.1787186337  W2        1026            0.0000000000
      3078      1026  TIP3      H2            -21.1952287858        0.2992942980       -3.9246586337  W2        1026            0.0000000000
      3079      1027  TIP3      OH2           -36.5127887858      -16.4352957020        1.8278813663  W2        1027            0.0000000000
      3080      1027  TIP3      H1            -37.1777387858      -16.6812657020        2.4709713663  W2        1027            0.0000000000
      3081      1027  TIP3      H2            -36.9556587858      -15.8132557020        1.2506813663  W2        1027            0.0000000000
      3082      1028  TIP3      OH2           -34.3208587858       -3.2598857020        5.9724613663  W2        1028            0.0000000000
      3083      1028  TIP3      H1            -35.1416087858       -3.0852357020        5.5119313663  W2        1028            0.0000000000
      3084      1028  TIP3      H2            -34.5730787858       -3.3334157020        6.8929013663  W2        1028            0.0000000000
      3085      1029  TIP3      OH2           -31.3665687858       -2.2857657020        2.2308613663  W2        1029            0.0000000000
      3086      1029  TIP3      H1            -31.7914587858       -1.4759157020        1.9483213663  W2        1029            0.0000000000
      3087      1029  TIP3      H2            -30.4622887858       -2.2003557020        1.9288413663  W2        1029            0.0000000000
      3088      1030  TIP3      OH2           -27.0554287858       -0.8867657020        5.1902313663  W2        1030            0.0000000000
      3089      1030  TIP3      H1            -26.8706787858       -1.2201557020        6.0682613663  W2        1030            0.0000000000
      3090      1030  TIP3      H2            -26.2089787858       -0.5769057020        4.8681513663  W2        1030            0.0000000000
      3091      1031  TIP3      OH2           -24.7103887858        0.3991242980        4.4343713663  W2        1031            0.0000000000
      3092      1031  TIP3      H1            -24.0334987858       -0.2336457020        4.1942913663  W2        1031            0.0000000000
      3093      1031  TIP3      H2            -24.3885087858        0.8001742980        5.2417013663  W2        1031            0.0000000000
      3094      1032  TIP3      OH2           -19.7930087858      -17.0113257020        3.5138713663  W2        1032            0.0000000000
      3095      1032  TIP3      H1            -20.6056587858      -16.6862957020        3.1263413663  W2        1032            0.0000000000
      3096      1032  TIP3      H2            -19.5601587858      -17.7714757020        2.9807813663  W2        1032            0.0000000000
      3097      1033  TIP3      OH2           -33.9648987858        0.9706242980        2.2783913663  W2        1033            0.0000000000
      3098      1033  TIP3      H1            -34.6852587858        1.4107242980        1.8271613663  W2        1033            0.0000000000
      3099      1033  TIP3      H2            -34.3304987858        0.7200942980        3.1267913663  W2        1033            0.0000000000
      3100      1034  TIP3      OH2           -31.4976387858        0.5710142980        1.3081113663  W2        1034            0.0000000000
      3101      1034  TIP3      H1            -32.3624187858        0.6428642980        1.7121213663  W2        1034            0.0000000000
      3102      1034  TIP3      H2            -31.5527387858        1.1177442980        0.5243613663  W2        1034            0.0000000000
      3103      1035  TIP3      OH2           -26.7870787858        0.4589042980        0.4837113663  W2        1035            0.0000000000
      3104      1035  TIP3      H1            -27.2436787858        0.9878742980       -0.1704486337  W2        1035            0.0000000000
      3105      1035  TIP3      H2            -26.6242787858        1.0620442980        1.2089413663  W2        1035            0.0000000000
      3106      1036  TIP3      OH2           -24.4594487858       -0.6631357020        1.4287413663  W2        1036            0.0000000000
      3107      1036  TIP3      H1            -25.3640787858       -0.4981157020        1.1629513663  W2        1036            0.0000000000
      3108      1036  TIP3      H2            -24.0305887858        0.1900842980        1.3630813663  W2        1036            0.0000000000
      3109      1037  TIP3      OH2           -21.8552587858        0.9067742980        1.7235213663  W2        1037            0.0000000000
      3110      1037  TIP3      H1            -22.0370587858        1.8226642980        1.5130113663  W2        1037            0.0000000000
      3111      1037  TIP3      H2            -21.6784787858        0.4964842980        0.8769813663  W2        1037            0.0000000000
      3112      1038  TIP3      OH2           -34.5500887858       -0.4061257020       -0.8114286337  W2        1038            0.0000000000
      3113      1038  TIP3      H1            -34.5684887858       -0.8316157020        0.0458013663  W2        1038            0.0000000000
      3114      1038  TIP3      H2            -33.7452987858       -0.7246257020       -1.2202086337  W2        1038            0.0000000000
      3115      1039  TIP3      OH2           -32.4087787858       -1.6962557020       -2.1564386337  W2        1039            0.0000000000
      3116      1039  TIP3      H1            -32.6277087858       -2.6125157020       -1.9868386337  W2        1039            0.0000000000
      3117      1039  TIP3      H2            -31.5845587858       -1.5562157020       -1.6902986337  W2        1039            0.0000000000
      3118      1040  TIP3      OH2           -29.8715287858       -1.2263257020       -1.3076386337  W2        1040            0.0000000000
      3119      1040  TIP3      H1            -29.6589587858       -2.1144257020       -1.5945486337  W2        1040            0.0000000000
      3120      1040  TIP3      H2            -29.8070187858       -1.2605557020       -0.3532386337  W2        1040            0.0000000000
      3121      1041  TIP3      OH2           -26.3631587858      -15.5622657020       -2.1633086337  W2        1041            0.0000000000
      3122      1041  TIP3      H1            -27.0374787858      -16.1917057020       -1.9077286337  W2        1041            0.0000000000
      3123      1041  TIP3      H2            -25.7992387858      -16.0463757020       -2.7665186337  W2        1041            0.0000000000
      3124      1042  TIP3      OH2           -21.2204387858      -17.4548657020       -2.0505986337  W2        1042            0.0000000000
      3125      1042  TIP3      H1            -20.6166787858      -16.9073257020       -2.5524986337  W2        1042            0.0000000000
      3126      1042  TIP3      H2            -22.0902387858      -17.1358257020       -2.2911886337  W2        1042            0.0000000000
      3127      1043  TIP3      OH2           -19.4933987858      -16.3159957020       -3.7175086337  W2        1043            0.0000000000
      3128      1043  TIP3      H1            -18.8816487858      -16.8304257020       -4.2441486337  W2        1043            0.0000000000
      3129      1043  TIP3      H2            -19.1110587858      -15.4387857020       -3.6940686337  W2        1043            0.0000000000
      3130      1044  TIP3      OH2           -34.0364087858      -16.9282357020       -4.3413186337  W2        1044            0.0000000000
      3131      1044  TIP3      H1            -34.8134287858      -17.1627457020       -4.8487286337  W2        1044            0.0000000000
      3132      1044  TIP3      H2            -33.5060487858      -17.7250257020       -4.3325186337  W2        1044            0.0000000000
      3133      1045  TIP3      OH2           -35.2000687858      -17.1304257020       -8.5377086337  W2        1045            0.0000000000
      3134      1045  TIP3      H1            -34.7609987858      -16.5193757020       -9.1293586337  W2        1045            0.0000000000
      3135      1045  TIP3      H2            -35.8338287858      -16.5920157020       -8.0637086337  W2        1045            0.0000000000
      3136      1046  TIP3      OH2           -29.4571487858      -17.0015257020       -4.5280086337  W2        1046            0.0000000000
      3137      1046  TIP3      H1            -28.5828087858      -16.6130957020       -4.5575786337  W2        1046            0.0000000000
      3138      1046  TIP3      H2            -29.5930687858      -17.2167457020       -3.6052886337  W2        1046            0.0000000000
      3139      1047  TIP3      OH2           -23.9003087858      -16.9715457020       -2.8788386337  W2        1047            0.0000000000
      3140      1047  TIP3      H1            -23.8241487858      -16.8763857020       -3.8282386337  W2        1047            0.0000000000
      3141      1047  TIP3      H2            -24.1753887858      -17.8792557020       -2.7499286337  W2        1047            0.0000000000
      3142      1048  TIP3      OH2           -22.5470487858      -16.9457657020       -7.1863386337  W2        1048            0.0000000000
      3143      1048  TIP3      H1            -23.2499387858      -16.3308457020       -7.3961986337  W2        1048            0.0000000000
      3144      1048  TIP3      H2            -22.9919087858      -17.7830957020       -7.0552486337  W2        1048            0.0000000000
      3145      1049  TIP3      OH2           -35.2991187858       -1.1822057020       -7.6401986337  W2        1049            0.0000000000
      3146      1049  TIP3      H1            -35.9841287858       -1.2203157020       -8.3076886337  W2        1049            0.0000000000
      3147      1049  TIP3      H2            -35.2953987858       -0.2694457020       -7.3519886337  W2        1049            0.0000000000
      3148      1050  TIP3      OH2           -33.3391587858      -15.2142757020      -10.0952986337  W2        1050            0.0000000000
      3149      1050  TIP3      H1            -32.8478187858      -15.8440357020      -10.6227486337  W2        1050            0.0000000000
      3150      1050  TIP3      H2            -32.7155287858      -14.9183357020       -9.4321786337  W2        1050            0.0000000000
      3151      1051  TIP3      OH2           -28.3131487858      -14.9211257020       -7.6382486337  W2        1051            0.0000000000
      3152      1051  TIP3      H1            -28.1350187858      -15.5678057020       -6.9553886337  W2        1051            0.0000000000
      3153      1051  TIP3      H2            -28.3665287858      -14.0873557020       -7.1711386337  W2        1051            0.0000000000
      3154      1052  TIP3      OH2           -26.4347687858        0.0272842980       -9.2425786337  W2        1052            0.0000000000
      3155      1052  TIP3      H1            -25.5687487858        0.3940242980       -9.4207586337  W2        1052            0.0000000000
      3156      1052  TIP3      H2            -26.6814887858       -0.4119157020      -10.0564986337  W2        1052            0.0000000000
      3157      1053  TIP3      OH2           -19.7258087858       -0.4096857020       -6.5634686337  W2        1053            0.0000000000
      3158      1053  TIP3      H1            -19.9200987858       -1.1574757020       -7.1285086337  W2        1053            0.0000000000
      3159      1053  TIP3      H2            -19.7647987858        0.3483242980       -7.1466786337  W2        1053            0.0000000000
      3160      1054  TIP3      OH2           -34.0786087858      -16.4140457020        5.1763013663  W2        1054            0.0000000000
      3161      1054  TIP3      H1            -34.4447887858      -17.1797857020        5.6187713663  W2        1054            0.0000000000
      3162      1054  TIP3      H2            -33.1657587858      -16.3850257020        5.4628113663  W2        1054            0.0000000000
      3163      1055  TIP3      OH2           -32.1055287858      -17.0636057020        6.7120113663  W2        1055            0.0000000000
      3164      1055  TIP3      H1            -31.2071687858      -17.3375857020        6.5273513663  W2        1055            0.0000000000
      3165      1055  TIP3      H2            -32.4922187858      -17.8060057020        7.1762713663  W2        1055            0.0000000000
      3166      1056  TIP3      OH2           -33.4809987858       -0.2621257020      -10.6149886337  W2        1056            0.0000000000
      3167      1056  TIP3      H1            -33.7485387858        0.0241642980       -9.7416786337  W2        1056            0.0000000000
      3168      1056  TIP3      H2            -32.7097387858       -0.8082057020      -10.4627386337  W2        1056            0.0000000000
      3169      1057  TIP3      OH2           -23.6842987858      -17.7310757020        6.8942913663  W2        1057            0.0000000000
      3170      1057  TIP3      H1            -23.6075787858      -18.1570057020        7.7480613663  W2        1057            0.0000000000
      3171      1057  TIP3      H2            -22.7906387858      -17.7176057020        6.5516413663  W2        1057            0.0000000000
      3172      1058  TIP3      OH2           -20.5081887858       -1.6584457020        5.5867113663  W2        1058            0.0000000000
      3173      1058  TIP3      H1            -21.2899987858       -1.8446457020        5.0667713663  W2        1058            0.0000000000
      3174      1058  TIP3      H2            -20.5801987858       -0.7290157020        5.8039613663  W2        1058            0.0000000000
      3175      1059  TIP3      OH2            -6.1021487858       -7.7720057020       -4.3825686337  W2        1059            0.0000000000
      3176      1059  TIP3      H1             -6.0130387858       -6.8281857020       -4.5148586337  W2        1059            0.0000000000
      3177      1059  TIP3      H2             -6.7403887858       -8.0473657020       -5.0406286337  W2        1059            0.0000000000
      3178      1060  TIP3      OH2            -7.1690187858       -8.5169357020       -0.9637486337  W2        1060            0.0000000000
      3179      1060  TIP3      H1             -7.2072687858       -9.1633057020       -0.2587886337  W2        1060            0.0000000000
      3180      1060  TIP3      H2             -7.4913687858       -8.9834957020       -1.7348786337  W2        1060            0.0000000000
      3181      1061  TIP3      OH2           -14.8005187858       -8.9027257020        0.6292413663  W2        1061            0.0000000000
      3182      1061  TIP3      H1            -14.7593087858       -9.5283957020        1.3524813663  W2        1061            0.0000000000
      3183      1061  TIP3      H2            -14.0977487858       -8.2788657020        0.8112813663  W2        1061            0.0000000000
      3184      1062  TIP3      OH2            -3.4629987858       -5.5778957020       -2.6622386337  W2        1062            0.0000000000
      3185      1062  TIP3      H1             -3.9037287858       -6.2982957020       -2.2116786337  W2        1062            0.0000000000
      3186      1062  TIP3      H2             -3.4760287858       -4.8571757020       -2.0324686337  W2        1062            0.0000000000
      3187      1063  TIP3      OH2           -13.8772087858       -4.4528357020       -0.8358486337  W2        1063            0.0000000000
      3188      1063  TIP3      H1            -14.2466887858       -5.2547857020       -1.2054186337  W2        1063            0.0000000000
      3189      1063  TIP3      H2            -12.9360987858       -4.6213457020       -0.7895086337  W2        1063            0.0000000000
      3190      1064  TIP3      OH2           -17.2671587858      -10.7925757020       -5.4429686337  W2        1064            0.0000000000
      3191      1064  TIP3      H1            -17.7148187858       -9.9467057020       -5.4613186337  W2        1064            0.0000000000
      3192      1064  TIP3      H2            -17.8280387858      -11.3721557020       -5.9584586337  W2        1064            0.0000000000
      3193      1065  TIP3      OH2           -16.5565487858       -8.6306157020       -3.3171686337  W2        1065            0.0000000000
      3194      1065  TIP3      H1            -16.3431987858       -9.4004557020       -2.7898686337  W2        1065            0.0000000000
      3195      1065  TIP3      H2            -15.8187887858       -8.5409457020       -3.9204086337  W2        1065            0.0000000000
      3196      1066  TIP3      OH2            -6.3514487858       -0.4737257020       -2.4501986337  W2        1066            0.0000000000
      3197      1066  TIP3      H1             -5.7318087858       -1.1502557020       -2.7232786337  W2        1066            0.0000000000
      3198      1066  TIP3      H2             -6.5597087858       -0.6916457020       -1.5417086337  W2        1066            0.0000000000
      3199      1067  TIP3      OH2            -8.7795787858       -6.0847957020       -0.5576486337  W2        1067            0.0000000000
      3200      1067  TIP3      H1             -8.4757887858       -6.7706557020       -1.1522386337  W2        1067            0.0000000000
      3201      1067  TIP3      H2             -8.0581787858       -5.9659257020        0.0601513663  W2        1067            0.0000000000
      3202      1068  TIP3      OH2            -0.1165987858      -14.4832657020        0.3029713663  W2        1068            0.0000000000
      3203      1068  TIP3      H1             -0.0673787858      -13.8731457020        1.0388813663  W2        1068            0.0000000000
      3204      1068  TIP3      H2              0.3089112142      -14.0221757020       -0.4199186337  W2        1068            0.0000000000
      3205      1069  TIP3      OH2            -5.6388787858      -11.6905557020       -0.2301686337  W2        1069            0.0000000000
      3206      1069  TIP3      H1             -5.4962887858      -12.6368557020       -0.2100086337  W2        1069            0.0000000000
      3207      1069  TIP3      H2             -5.7449787858      -11.4835757020       -1.1586786337  W2        1069            0.0000000000
      3208      1070  TIP3      OH2           -12.4840487858      -13.5889157020       -2.9576886337  W2        1070            0.0000000000
      3209      1070  TIP3      H1            -12.4409387858      -12.7290657020       -3.3760586337  W2        1070            0.0000000000
      3210      1070  TIP3      H2            -12.9416387858      -14.1414457020       -3.5913686337  W2        1070            0.0000000000
      3211      1071  TIP3      OH2            -4.7617787858      -13.4583557020       -4.5568586337  W2        1071            0.0000000000
      3212      1071  TIP3      H1             -4.1153487858      -13.7870357020       -3.9320986337  W2        1071            0.0000000000
      3213      1071  TIP3      H2             -4.2518387858      -12.9404557020       -5.1797186337  W2        1071            0.0000000000
      3214      1072  TIP3      OH2           -15.8638987858      -11.1923357020       -2.1955486337  W2        1072            0.0000000000
      3215      1072  TIP3      H1            -15.2102387858      -11.7421657020       -1.7635386337  W2        1072            0.0000000000
      3216      1072  TIP3      H2            -15.8399687858      -11.4664357020       -3.1123486337  W2        1072            0.0000000000
      3217      1073  TIP3      OH2           -10.7074487858       -9.6422057020       -2.9803986337  W2        1073            0.0000000000
      3218      1073  TIP3      H1            -10.0913487858      -10.1686657020       -2.4709986337  W2        1073            0.0000000000
      3219      1073  TIP3      H2            -11.2935687858      -10.2823357020       -3.3840386337  W2        1073            0.0000000000
      3220      1074  TIP3      OH2             0.2748612142      -13.0053457020        2.5389513663  W2        1074            0.0000000000
      3221      1074  TIP3      H1             -0.4136787858      -12.3472757020        2.4436113663  W2        1074            0.0000000000
      3222      1074  TIP3      H2              0.2903212142      -13.2025557020        3.4754913663  W2        1074            0.0000000000
      3223      1075  TIP3      OH2           -13.6738587858      -14.6710757020        1.1163913663  W2        1075            0.0000000000
      3224      1075  TIP3      H1            -13.8926887858      -14.1410157020        0.3499913663  W2        1075            0.0000000000
      3225      1075  TIP3      H2            -14.3417687858      -14.4445257020        1.7635313663  W2        1075            0.0000000000
      3226      1076  TIP3      OH2            -6.3048787858       -5.1709657020       -5.3396986337  W2        1076            0.0000000000
      3227      1076  TIP3      H1             -6.6003687858       -5.4937357020       -6.1910086337  W2        1076            0.0000000000
      3228      1076  TIP3      H2             -6.6290987858       -4.2712957020       -5.2984386337  W2        1076            0.0000000000
      3229      1077  TIP3      OH2           -11.1047187858       -6.9955057020        1.4037613663  W2        1077            0.0000000000
      3230      1077  TIP3      H1            -11.8448087858       -6.3973557020        1.5072813663  W2        1077            0.0000000000
      3231      1077  TIP3      H2            -10.3907687858       -6.4415457020        1.0881213663  W2        1077            0.0000000000
      3232      1078  TIP3      OH2            -2.9979387858      -14.1674257020       -2.5762686337  W2        1078            0.0000000000
      3233      1078  TIP3      H1             -3.2131387858      -14.9330857020       -2.0436686337  W2        1078            0.0000000000
      3234      1078  TIP3      H2             -2.3421987858      -13.6949657020       -2.0634186337  W2        1078            0.0000000000
      3235      1079  TIP3      OH2           -14.0801287858      -12.7788957020       -0.9313886337  W2        1079            0.0000000000
      3236      1079  TIP3      H1            -13.4664987858      -12.1461357020       -0.5581486337  W2        1079            0.0000000000
      3237      1079  TIP3      H2            -13.5680587858      -13.2513957020       -1.5876986337  W2        1079            0.0000000000
      3238      1080  TIP3      OH2           -12.6972887858       -5.0312057020        2.1909113663  W2        1080            0.0000000000
      3239      1080  TIP3      H1            -12.7025287858       -4.1518557020        1.8128413663  W2        1080            0.0000000000
      3240      1080  TIP3      H2            -13.5508787858       -5.1147957020        2.6159013663  W2        1080            0.0000000000
      3241      1081  TIP3      OH2           -16.5761987858       -5.3604157020       -7.0271586337  W2        1081            0.0000000000
      3242      1081  TIP3      H1            -16.8481087858       -5.1313157020       -7.9158686337  W2        1081            0.0000000000
      3243      1081  TIP3      H2            -16.5306287858       -4.5225357020       -6.5666286337  W2        1081            0.0000000000
      3244      1082  TIP3      OH2            -2.9512287858       -3.7388257020       -0.3143086337  W2        1082            0.0000000000
      3245      1082  TIP3      H1             -3.8928587858       -3.6804357020       -0.1526186337  W2        1082            0.0000000000
      3246      1082  TIP3      H2             -2.6746187858       -2.8327757020       -0.4513386337  W2        1082            0.0000000000
      3247      1083  TIP3      OH2            -2.6505287858      -15.4522957020        1.1030813663  W2        1083            0.0000000000
      3248      1083  TIP3      H1             -3.3866087858      -14.8415857020        1.0652113663  W2        1083            0.0000000000
      3249      1083  TIP3      H2             -1.9671287858      -15.0373957020        0.5767213663  W2        1083            0.0000000000
      3250      1084  TIP3      OH2            -9.6473887858      -17.3655657020       -1.4311186337  W2        1084            0.0000000000
      3251      1084  TIP3      H1             -9.7649687858      -18.3139657020       -1.4852886337  W2        1084            0.0000000000
      3252      1084  TIP3      H2            -10.5023787858      -17.0329557020       -1.1580086337  W2        1084            0.0000000000
      3253      1085  TIP3      OH2            -4.6991087858       -1.9574757020       -3.6891486337  W2        1085            0.0000000000
      3254      1085  TIP3      H1             -4.2738787858       -2.6646857020       -4.1741886337  W2        1085            0.0000000000
      3255      1085  TIP3      H2             -4.3821087858       -1.1562057020       -4.1059286337  W2        1085            0.0000000000
      3256      1086  TIP3      OH2            -3.5394587858       -4.0566257020       -5.1804886337  W2        1086            0.0000000000
      3257      1086  TIP3      H1             -3.7969787858       -4.7466157020       -5.7918986337  W2        1086            0.0000000000
      3258      1086  TIP3      H2             -3.4683787858       -4.4995057020       -4.3348986337  W2        1086            0.0000000000
      3259      1087  TIP3      OH2            -1.8534387858       -5.4899557020        3.2968613663  W2        1087            0.0000000000
      3260      1087  TIP3      H1             -1.7138087858       -6.0817057020        2.5575613663  W2        1087            0.0000000000
      3261      1087  TIP3      H2             -1.6861587858       -4.6173657020        2.9407413663  W2        1087            0.0000000000
      3262      1088  TIP3      OH2            -7.3808987858       -8.5280057020       -6.9305386337  W2        1088            0.0000000000
      3263      1088  TIP3      H1             -8.0923487858       -7.9930357020       -7.2824886337  W2        1088            0.0000000000
      3264      1088  TIP3      H2             -6.6899387858       -8.4727957020       -7.5906486337  W2        1088            0.0000000000
      3265      1089  TIP3      OH2            -7.3269787858      -10.0705757020       -9.8920386337  W2        1089            0.0000000000
      3266      1089  TIP3      H1             -6.6259887858      -10.0478857020       -9.2406386337  W2        1089            0.0000000000
      3267      1089  TIP3      H2             -7.0246887858      -10.6986057020      -10.5481086337  W2        1089            0.0000000000
      3268      1090  TIP3      OH2            -0.0115087858       -9.1501557020        1.3629013663  W2        1090            0.0000000000
      3269      1090  TIP3      H1             -0.6640987858       -8.4555957020        1.4519913663  W2        1090            0.0000000000
      3270      1090  TIP3      H2              0.4535212142       -8.9400657020        0.5530613663  W2        1090            0.0000000000
      3271      1091  TIP3      OH2            -3.9751287858       -8.3186757020       -5.9789486337  W2        1091            0.0000000000
      3272      1091  TIP3      H1             -4.7070287858       -8.0903057020       -5.4058886337  W2        1091            0.0000000000
      3273      1091  TIP3      H2             -3.5279087858       -9.0324057020       -5.5241986337  W2        1091            0.0000000000
      3274      1092  TIP3      OH2            -4.0777787858      -10.1444157020        3.0887513663  W2        1092            0.0000000000
      3275      1092  TIP3      H1             -3.9978687858       -9.3809757020        3.6606013663  W2        1092            0.0000000000
      3276      1092  TIP3      H2             -4.6790087858       -9.8651757020        2.3982613663  W2        1092            0.0000000000
      3277      1093  TIP3      OH2           -12.3297587858       -7.6880557020       -4.0964486337  W2        1093            0.0000000000
      3278      1093  TIP3      H1            -12.6602387858       -8.0587157020       -4.9147486337  W2        1093            0.0000000000
      3279      1093  TIP3      H2            -11.7413487858       -8.3586557020       -3.7496186337  W2        1093            0.0000000000
      3280      1094  TIP3      OH2           -10.9630087858       -4.2599957020       -1.4152286337  W2        1094            0.0000000000
      3281      1094  TIP3      H1            -11.0578787858       -4.8386857020       -2.1717686337  W2        1094            0.0000000000
      3282      1094  TIP3      H2            -10.2336487858       -4.6314257020       -0.9189486337  W2        1094            0.0000000000
      3283      1095  TIP3      OH2           -11.9632087858       -8.9194957020       -0.4629486337  W2        1095            0.0000000000
      3284      1095  TIP3      H1            -11.3979587858       -8.7980757020       -1.2258286337  W2        1095            0.0000000000
      3285      1095  TIP3      H2            -11.6443187858       -8.2819957020        0.1759013663  W2        1095            0.0000000000
      3286      1096  TIP3      OH2            -5.6539887858       -3.4163057020        0.2711013663  W2        1096            0.0000000000
      3287      1096  TIP3      H1             -5.8943287858       -2.7539957020        0.9190213663  W2        1096            0.0000000000
      3288      1096  TIP3      H2             -5.8521687858       -4.2507857020        0.6960613663  W2        1096            0.0000000000
      3289      1097  TIP3      OH2           -11.0831387858       -4.5202257020        4.2542413663  W2        1097            0.0000000000
      3290      1097  TIP3      H1            -11.3943887858       -3.7379057020        4.7095613663  W2        1097            0.0000000000
      3291      1097  TIP3      H2            -11.7331187858       -4.6733157020        3.5684413663  W2        1097            0.0000000000
      3292      1098  TIP3      OH2            -5.1041787858       -9.1563857020       -8.2938286337  W2        1098            0.0000000000
      3293      1098  TIP3      H1             -4.5246287858       -9.0063557020       -7.5469386337  W2        1098            0.0000000000
      3294      1098  TIP3      H2             -4.6901787858       -8.6856457020       -9.0171886337  W2        1098            0.0000000000
      3295      1099  TIP3      OH2           -14.1631487858       -8.3221157020        3.4828113663  W2        1099            0.0000000000
      3296      1099  TIP3      H1            -14.0928287858       -7.6714357020        4.1813113663  W2        1099            0.0000000000
      3297      1099  TIP3      H2            -15.0539287858       -8.2193657020        3.1479013663  W2        1099            0.0000000000
      3298      1100  TIP3      OH2            -7.3776887858       -2.4195357020       -4.8585186337  W2        1100            0.0000000000
      3299      1100  TIP3      H1             -6.9039287858       -2.1239057020       -4.0810986337  W2        1100            0.0000000000
      3300      1100  TIP3      H2             -7.9407587858       -1.6813757020       -5.0915586337  W2        1100            0.0000000000
      3301      1101  TIP3      OH2           -12.8435487858       -2.4487257020        5.0176213663  W2        1101            0.0000000000
      3302      1101  TIP3      H1            -12.8360187858       -2.5847557020        4.0701713663  W2        1101            0.0000000000
      3303      1101  TIP3      H2            -13.7595087858       -2.5659157020        5.2696213663  W2        1101            0.0000000000
      3304      1102  TIP3      OH2            -1.4053387858      -17.4063457020       -8.4808586337  W2        1102            0.0000000000
      3305      1102  TIP3      H1             -2.3052687858      -17.2674457020       -8.1857986337  W2        1102            0.0000000000
      3306      1102  TIP3      H2             -1.1534987858      -16.5748857020       -8.8826886337  W2        1102            0.0000000000
      3307      1103  TIP3      OH2           -13.3394887858       -8.6186257020       -6.5071686337  W2        1103            0.0000000000
      3308      1103  TIP3      H1            -13.6313587858       -7.8504557020       -6.9980386337  W2        1103            0.0000000000
      3309      1103  TIP3      H2            -14.0139687858       -9.2780057020       -6.6700286337  W2        1103            0.0000000000
      3310      1104  TIP3      OH2            -0.2161987858       -3.0401057020      -10.1044686337  W2        1104            0.0000000000
      3311      1104  TIP3      H1             -0.1428487858       -2.1010857020       -9.9339386337  W2        1104            0.0000000000
      3312      1104  TIP3      H2              0.6893112142       -3.3452457020      -10.1607386337  W2        1104            0.0000000000
      3313      1105  TIP3      OH2           -17.2464787858       -6.2557057020        2.3078113663  W2        1105            0.0000000000
      3314      1105  TIP3      H1            -17.7476387858       -6.2837657020        1.4927813663  W2        1105            0.0000000000
      3315      1105  TIP3      H2            -17.2411087858       -7.1613857020        2.6175413663  W2        1105            0.0000000000
      3316      1106  TIP3      OH2           -17.4962087858       -3.4753257020       -0.8081686337  W2        1106            0.0000000000
      3317      1106  TIP3      H1            -16.5501487858       -3.6196257020       -0.8272186337  W2        1106            0.0000000000
      3318      1106  TIP3      H2            -17.6085787858       -2.6910457020       -0.2710486337  W2        1106            0.0000000000
      3319      1107  TIP3      OH2             0.7016412142       -2.8093557020        4.8742013663  W2        1107            0.0000000000
      3320      1107  TIP3      H1              0.6523212142       -3.7645457020        4.8369613663  W2        1107            0.0000000000
      3321      1107  TIP3      H2             -0.1251287858       -2.5418257020        5.2755813663  W2        1107            0.0000000000
      3322      1108  TIP3      OH2            -8.3199587858       -3.2354357020        3.7503413663  W2        1108            0.0000000000
      3323      1108  TIP3      H1             -8.2324987858       -2.4089757020        4.2252513663  W2        1108            0.0000000000
      3324      1108  TIP3      H2             -9.1834487858       -3.5650557020        3.9992713663  W2        1108            0.0000000000
      3325      1109  TIP3      OH2            -7.9053787858        0.5369342980       -6.4435986337  W2        1109            0.0000000000
      3326      1109  TIP3      H1             -7.9807787858        0.4156542980       -7.3900786337  W2        1109            0.0000000000
      3327      1109  TIP3      H2             -7.8725087858        1.4862042980       -6.3251386337  W2        1109            0.0000000000
      3328      1110  TIP3      OH2           -14.2519987858       -0.6743657020       -4.6626986337  W2        1110            0.0000000000
      3329      1110  TIP3      H1            -14.0999587858       -1.0223257020       -3.7840486337  W2        1110            0.0000000000
      3330      1110  TIP3      H2            -15.1029587858       -1.0306357020       -4.9179786337  W2        1110            0.0000000000
      3331      1111  TIP3      OH2            -4.8037787858       -0.3090457020       -9.4413586337  W2        1111            0.0000000000
      3332      1111  TIP3      H1             -4.4289387858       -1.0534357020       -9.9120986337  W2        1111            0.0000000000
      3333      1111  TIP3      H2             -4.7994087858       -0.5789857020       -8.5230286337  W2        1111            0.0000000000
      3334      1112  TIP3      OH2            -5.1349687858       -0.3833357020       -6.6921386337  W2        1112            0.0000000000
      3335      1112  TIP3      H1             -6.0699887858       -0.2831457020       -6.5134386337  W2        1112            0.0000000000
      3336      1112  TIP3      H2             -4.8547787858       -1.0927357020       -6.1138186337  W2        1112            0.0000000000
      3337      1113  TIP3      OH2            -2.1463787858      -11.3161057020        5.3544213663  W2        1113            0.0000000000
      3338      1113  TIP3      H1             -2.5536987858      -10.8355457020        4.6337513663  W2        1113            0.0000000000
      3339      1113  TIP3      H2             -2.1058087858      -12.2215057020        5.0465013663  W2        1113            0.0000000000
      3340      1114  TIP3      OH2           -14.9974287858       -4.9321657020        3.3510913663  W2        1114            0.0000000000
      3341      1114  TIP3      H1            -14.7812987858       -5.2936057020        4.2106713663  W2        1114            0.0000000000
      3342      1114  TIP3      H2            -15.8529587858       -5.3067857020        3.1414413663  W2        1114            0.0000000000
      3343      1115  TIP3      OH2           -12.3786287858      -16.4621157020       -0.6534886337  W2        1115            0.0000000000
      3344      1115  TIP3      H1            -13.2402587858      -16.5492957020       -1.0611986337  W2        1115            0.0000000000
      3345      1115  TIP3      H2            -12.4010587858      -15.6061057020       -0.2257286337  W2        1115            0.0000000000
      3346      1116  TIP3      OH2            -7.7158487858      -16.7400757020        2.7212113663  W2        1116            0.0000000000
      3347      1116  TIP3      H1             -7.2955387858      -17.1553657020        3.4742713663  W2        1116            0.0000000000
      3348      1116  TIP3      H2             -8.6488887858      -16.9187457020        2.8384113663  W2        1116            0.0000000000
      3349      1117  TIP3      OH2            -4.3893587858      -12.9845557020        3.5746613663  W2        1117            0.0000000000
      3350      1117  TIP3      H1             -4.9034087858      -13.1103357020        4.3722613663  W2        1117            0.0000000000
      3351      1117  TIP3      H2             -4.5448887858      -12.0722457020        3.3302813663  W2        1117            0.0000000000
      3352      1118  TIP3      OH2            -3.6268687858       -8.1235557020      -10.6640386337  W2        1118            0.0000000000
      3353      1118  TIP3      H1             -3.5847887858       -8.3461657020      -11.5940386337  W2        1118            0.0000000000
      3354      1118  TIP3      H2             -2.7776587858       -7.7248457020      -10.4740486337  W2        1118            0.0000000000
      3355      1119  TIP3      OH2            -8.0541187858      -14.2477357020       -9.9937086337  W2        1119            0.0000000000
      3356      1119  TIP3      H1             -8.3076387858      -14.2285757020       -9.0708986337  W2        1119            0.0000000000
      3357      1119  TIP3      H2             -8.3109087858      -15.1191957020      -10.2950886337  W2        1119            0.0000000000
      3358      1120  TIP3      OH2           -12.2876187858      -11.4966657020        0.4415313663  W2        1120            0.0000000000
      3359      1120  TIP3      H1            -12.9294087858      -11.5369357020        1.1505413663  W2        1120            0.0000000000
      3360      1120  TIP3      H2            -12.2504187858      -10.5701957020        0.2038313663  W2        1120            0.0000000000
      3361      1121  TIP3      OH2           -12.2907087858      -11.2756557020       -4.6464686337  W2        1121            0.0000000000
      3362      1121  TIP3      H1            -13.1834187858      -11.6160457020       -4.7050886337  W2        1121            0.0000000000
      3363      1121  TIP3      H2            -11.8400487858      -11.6525657020       -5.4021486337  W2        1121            0.0000000000
      3364      1122  TIP3      OH2            -6.7551587858      -10.8596257020       -5.8293886337  W2        1122            0.0000000000
      3365      1122  TIP3      H1             -7.1641287858      -10.0447657020       -6.1209086337  W2        1122            0.0000000000
      3366      1122  TIP3      H2             -6.0345387858      -10.9996157020       -6.4436786337  W2        1122            0.0000000000
      3367      1123  TIP3      OH2            -7.6529987858      -10.6839857020        5.6586813663  W2        1123            0.0000000000
      3368      1123  TIP3      H1             -8.2156187858      -11.3888257020        5.9794613663  W2        1123            0.0000000000
      3369      1123  TIP3      H2             -6.8266587858      -10.8047957020        6.1264413663  W2        1123            0.0000000000
      3370      1124  TIP3      OH2            -5.7503887858      -11.4135857020       -3.0154186337  W2        1124            0.0000000000
      3371      1124  TIP3      H1             -5.9459387858      -10.8079057020       -3.7303586337  W2        1124            0.0000000000
      3372      1124  TIP3      H2             -5.5691287858      -12.2470657020       -3.4497886337  W2        1124            0.0000000000
      3373      1125  TIP3      OH2           -14.5375687858      -11.1763157020        2.3087313663  W2        1125            0.0000000000
      3374      1125  TIP3      H1            -14.5756287858      -10.7761557020        3.1774413663  W2        1125            0.0000000000
      3375      1125  TIP3      H2            -15.0284587858      -11.9930757020        2.3990213663  W2        1125            0.0000000000
      3376      1126  TIP3      OH2           -11.1718287858      -13.8020857020      -10.8926686337  W2        1126            0.0000000000
      3377      1126  TIP3      H1            -11.6027587858      -14.2470757020      -10.1629286337  W2        1126            0.0000000000
      3378      1126  TIP3      H2            -11.8899587858      -13.4304557020      -11.4049186337  W2        1126            0.0000000000
      3379      1127  TIP3      OH2           -17.9294887858      -14.0601357020       -3.8407986337  W2        1127            0.0000000000
      3380      1127  TIP3      H1            -17.2987187858      -14.0889257020       -3.1214086337  W2        1127            0.0000000000
      3381      1127  TIP3      H2            -17.4800587858      -14.4852657020       -4.5712086337  W2        1127            0.0000000000
      3382      1128  TIP3      OH2           -16.6552787858      -13.3139357020       -8.4167586337  W2        1128            0.0000000000
      3383      1128  TIP3      H1            -16.1811087858      -12.7229457020       -9.0016686337  W2        1128            0.0000000000
      3384      1128  TIP3      H2            -17.3726387858      -12.7836457020       -8.0697486337  W2        1128            0.0000000000
      3385      1129  TIP3      OH2            -6.4864687858       -9.7754557020        1.6558213663  W2        1129            0.0000000000
      3386      1129  TIP3      H1             -6.1629887858      -10.4064857020        1.0128713663  W2        1129            0.0000000000
      3387      1129  TIP3      H2             -6.9265387858      -10.3102357020        2.3165613663  W2        1129            0.0000000000
      3388      1130  TIP3      OH2            -9.7091787858      -13.8479057020       -3.5600586337  W2        1130            0.0000000000
      3389      1130  TIP3      H1            -10.6200687858      -13.7912257020       -3.2714586337  W2        1130            0.0000000000
      3390      1130  TIP3      H2             -9.2038887858      -13.9083557020       -2.7493386337  W2        1130            0.0000000000
      3391      1131  TIP3      OH2           -14.8808387858      -12.2192757020       -4.7332986337  W2        1131            0.0000000000
      3392      1131  TIP3      H1            -15.7700387858      -12.1197257020       -5.0733386337  W2        1131            0.0000000000
      3393      1131  TIP3      H2            -14.5843487858      -13.0609757020       -5.0795086337  W2        1131            0.0000000000
      3394      1132  TIP3      OH2           -11.2276587858      -12.2190157020       -7.0768386337  W2        1132            0.0000000000
      3395      1132  TIP3      H1            -10.2961087858      -12.0900157020       -6.8985286337  W2        1132            0.0000000000
      3396      1132  TIP3      H2            -11.4426287858      -11.5495857020       -7.7263686337  W2        1132            0.0000000000
      3397      1133  TIP3      OH2            -5.3039887858      -14.6132757020       -0.2958786337  W2        1133            0.0000000000
      3398      1133  TIP3      H1             -5.9808287858      -14.4819657020        0.3680913663  W2        1133            0.0000000000
      3399      1133  TIP3      H2             -5.7894987858      -14.7683257020       -1.1061086337  W2        1133            0.0000000000
      3400      1134  TIP3      OH2           -12.5536387858      -11.0247957020       -9.5102286337  W2        1134            0.0000000000
      3401      1134  TIP3      H1            -13.0961287858      -11.4044157020      -10.2014686337  W2        1134            0.0000000000
      3402      1134  TIP3      H2            -11.7201487858      -10.8303257020       -9.9388186337  W2        1134            0.0000000000
      3403      1135  TIP3      OH2            -2.0164787858        1.0582642980        5.9808813663  W2        1135            0.0000000000
      3404      1135  TIP3      H1             -1.8166087858        1.4824542980        5.1464113663  W2        1135            0.0000000000
      3405      1135  TIP3      H2             -1.3611087858        1.4020842980        6.5879213663  W2        1135            0.0000000000
      3406      1136  TIP3      OH2           -14.4184987858       -6.4676057020        5.5889313663  W2        1136            0.0000000000
      3407      1136  TIP3      H1            -13.6862587858       -6.2130157020        6.1503813663  W2        1136            0.0000000000
      3408      1136  TIP3      H2            -15.1986287858       -6.2630657020        6.1044713663  W2        1136            0.0000000000
      3409      1137  TIP3      OH2            -8.3892087858      -11.0606057020       -1.6730986337  W2        1137            0.0000000000
      3410      1137  TIP3      H1             -7.8248687858      -11.6069457020       -2.2201386337  W2        1137            0.0000000000
      3411      1137  TIP3      H2             -8.5368687858      -11.5824157020       -0.8843386337  W2        1137            0.0000000000
      3412      1138  TIP3      OH2           -13.3872387858      -14.9239957020       -5.2546186337  W2        1138            0.0000000000
      3413      1138  TIP3      H1            -13.7042887858      -15.8264657020       -5.2900786337  W2        1138            0.0000000000
      3414      1138  TIP3      H2            -12.6058287858      -14.9222557020       -5.8074586337  W2        1138            0.0000000000
      3415      1139  TIP3      OH2            -9.7626187858      -12.6719957020        0.7409413663  W2        1139            0.0000000000
      3416      1139  TIP3      H1            -10.5980887858      -12.2180457020        0.8511813663  W2        1139            0.0000000000
      3417      1139  TIP3      H2             -9.2385587858      -12.3961457020        1.4929313663  W2        1139            0.0000000000
      3418      1140  TIP3      OH2            -9.2183587858       -6.4592257020       -7.5744186337  W2        1140            0.0000000000
      3419      1140  TIP3      H1             -9.9632587858       -6.9666957020       -7.8966286337  W2        1140            0.0000000000
      3420      1140  TIP3      H2             -9.3526387858       -6.4104257020       -6.6279386337  W2        1140            0.0000000000
      3421      1141  TIP3      OH2            -2.0684687858       -7.3264057020        1.2123413663  W2        1141            0.0000000000
      3422      1141  TIP3      H1             -1.4265887858       -6.8697757020        0.6685613663  W2        1141            0.0000000000
      3423      1141  TIP3      H2             -2.8987787858       -7.2131657020        0.7497513663  W2        1141            0.0000000000
      3424      1142  TIP3      OH2            -5.3206787858      -13.6452357020       -9.3751586337  W2        1142            0.0000000000
      3425      1142  TIP3      H1             -6.2592587858      -13.5336757020       -9.5262786337  W2        1142            0.0000000000
      3426      1142  TIP3      H2             -5.0234687858      -12.7885457020       -9.0685886337  W2        1142            0.0000000000
      3427      1143  TIP3      OH2            -7.6991487858       -6.2748957020        3.6624913663  W2        1143            0.0000000000
      3428      1143  TIP3      H1             -8.0445387858       -6.6566557020        4.4694513663  W2        1143            0.0000000000
      3429      1143  TIP3      H2             -7.8991387858       -5.3415357020        3.7337813663  W2        1143            0.0000000000
      3430      1144  TIP3      OH2            -4.6023287858      -11.7779657020       -7.7144186337  W2        1144            0.0000000000
      3431      1144  TIP3      H1             -3.7104287858      -11.9154657020       -7.3952986337  W2        1144            0.0000000000
      3432      1144  TIP3      H2             -4.5459687858      -10.9873557020       -8.2510686337  W2        1144            0.0000000000
      3433      1145  TIP3      OH2           -14.0935287858       -7.1642257020       -1.8046286337  W2        1145            0.0000000000
      3434      1145  TIP3      H1            -13.3488087858       -7.1666557020       -2.4059786337  W2        1145            0.0000000000
      3435      1145  TIP3      H2            -14.0158687858       -7.9878457020       -1.3231186337  W2        1145            0.0000000000
      3436      1146  TIP3      OH2            -7.0929487858       -5.0007957020       -8.5489586337  W2        1146            0.0000000000
      3437      1146  TIP3      H1             -7.3881087858       -4.1740057020       -8.1674786337  W2        1146            0.0000000000
      3438      1146  TIP3      H2             -7.7959487858       -5.6201057020       -8.3528186337  W2        1146            0.0000000000
      3439      1147  TIP3      OH2           -17.0855587858       -8.7035357020        3.5102213663  W2        1147            0.0000000000
      3440      1147  TIP3      H1            -16.8626987858       -9.1215757020        4.3419713663  W2        1147            0.0000000000
      3441      1147  TIP3      H2            -17.6875487858       -9.3160357020        3.0875013663  W2        1147            0.0000000000
      3442      1148  TIP3      OH2           -10.0690687858       -9.1865457020        5.7231913663  W2        1148            0.0000000000
      3443      1148  TIP3      H1            -10.3649887858       -9.3522457020        4.8281013663  W2        1148            0.0000000000
      3444      1148  TIP3      H2             -9.1375487858       -9.4065157020        5.7125813663  W2        1148            0.0000000000
      3445      1149  TIP3      OH2            -5.4487887858       -3.8133457020        3.6129913663  W2        1149            0.0000000000
      3446      1149  TIP3      H1             -6.3493587858       -3.6300857020        3.3453813663  W2        1149            0.0000000000
      3447      1149  TIP3      H2             -5.4146787858       -3.5544157020        4.5338713663  W2        1149            0.0000000000
      3448      1150  TIP3      OH2             0.2825412142      -11.5685557020       -8.0197486337  W2        1150            0.0000000000
      3449      1150  TIP3      H1             -0.2718287858      -11.9647557020       -8.6919986337  W2        1150            0.0000000000
      3450      1150  TIP3      H2              0.3829012142      -10.6580357020       -8.2974186337  W2        1150            0.0000000000
      3451      1151  TIP3      OH2             0.2457412142       -5.7683857020        4.8174013663  W2        1151            0.0000000000
      3452      1151  TIP3      H1             -0.6054087858       -5.5300057020        4.4500413663  W2        1151            0.0000000000
      3453      1151  TIP3      H2              0.8360812142       -5.7850657020        4.0641113663  W2        1151            0.0000000000
      3454      1152  TIP3      OH2            -1.4222887858       -2.7825157020       -7.5545386337  W2        1152            0.0000000000
      3455      1152  TIP3      H1             -1.7951787858       -3.6081357020       -7.2454786337  W2        1152            0.0000000000
      3456      1152  TIP3      H2             -1.1449387858       -2.9655757020       -8.4521986337  W2        1152            0.0000000000
      3457      1153  TIP3      OH2            -4.2618987858       -7.9745657020       -0.5333486337  W2        1153            0.0000000000
      3458      1153  TIP3      H1             -5.1902087858       -8.2063757020       -0.5604186337  W2        1153            0.0000000000
      3459      1153  TIP3      H2             -3.8107887858       -8.7515857020       -0.8634686337  W2        1153            0.0000000000
      3460      1154  TIP3      OH2           -11.7185887858       -3.6464057020       -4.4004786337  W2        1154            0.0000000000
      3461      1154  TIP3      H1            -11.1913687858       -2.8729657020       -4.6005986337  W2        1154            0.0000000000
      3462      1154  TIP3      H2            -12.5987387858       -3.4214857020       -4.7020786337  W2        1154            0.0000000000
      3463      1155  TIP3      OH2           -15.9638187858       -8.7839957020       -9.8132386337  W2        1155            0.0000000000
      3464      1155  TIP3      H1            -15.3478287858       -8.1572757020       -9.4337586337  W2        1155            0.0000000000
      3465      1155  TIP3      H2            -16.8255587858       -8.4680157020       -9.5415886337  W2        1155            0.0000000000
      3466      1156  TIP3      OH2           -10.2913587858       -5.9834157020       -4.8240486337  W2        1156            0.0000000000
      3467      1156  TIP3      H1            -10.5323587858       -5.0579757020       -4.7825186337  W2        1156            0.0000000000
      3468      1156  TIP3      H2            -11.0319987858       -6.4422857020       -4.4276586337  W2        1156            0.0000000000
      3469      1157  TIP3      OH2            -9.7766987858       -1.8340557020        1.4910613663  W2        1157            0.0000000000
      3470      1157  TIP3      H1             -9.4142287858       -0.9794957020        1.2575013663  W2        1157            0.0000000000
      3471      1157  TIP3      H2             -9.2451787858       -2.1258957020        2.2316913663  W2        1157            0.0000000000
      3472      1158  TIP3      OH2           -11.6082787858       -0.9616557020       -5.2788286337  W2        1158            0.0000000000
      3473      1158  TIP3      H1            -12.5582287858       -0.8559157020       -5.2274986337  W2        1158            0.0000000000
      3474      1158  TIP3      H2            -11.2564687858       -0.1409157020       -4.9340786337  W2        1158            0.0000000000
      3475      1159  TIP3      OH2            -6.2326187858       -5.7349857020        1.1916213663  W2        1159            0.0000000000
      3476      1159  TIP3      H1             -6.6584887858       -5.9628157020        2.0180213663  W2        1159            0.0000000000
      3477      1159  TIP3      H2             -5.6520387858       -6.4738057020        1.0091513663  W2        1159            0.0000000000
      3478      1160  TIP3      OH2            -4.0297287858       -4.8059357020       -9.7344786337  W2        1160            0.0000000000
      3479      1160  TIP3      H1             -3.6764187858       -5.1859557020       -8.9301286337  W2        1160            0.0000000000
      3480      1160  TIP3      H2             -4.9783787858       -4.8994557020       -9.6475486337  W2        1160            0.0000000000
      3481      1161  TIP3      OH2            -3.5741987858       -1.1830357020        3.6611013663  W2        1161            0.0000000000
      3482      1161  TIP3      H1             -4.1758787858       -1.7387457020        3.1657313663  W2        1161            0.0000000000
      3483      1161  TIP3      H2             -3.2928287858       -0.5160557020        3.0348413663  W2        1161            0.0000000000
      3484      1162  TIP3      OH2             0.4737112142       -0.3266857020       -9.5334586337  W2        1162            0.0000000000
      3485      1162  TIP3      H1              1.2175012142        0.2593642980       -9.6732986337  W2        1162            0.0000000000
      3486      1162  TIP3      H2             -0.2204787858        0.2418942980       -9.2002186337  W2        1162            0.0000000000
      3487      1163  TIP3      OH2           -15.4516087858      -13.9502657020        3.0683613663  W2        1163            0.0000000000
      3488      1163  TIP3      H1            -16.3443787858      -13.6117257020        3.0007613663  W2        1163            0.0000000000
      3489      1163  TIP3      H2            -15.5503287858      -14.8056557020        3.4864413663  W2        1163            0.0000000000
      3490      1164  TIP3      OH2            -3.1637987858       -6.1337357020       -7.5076886337  W2        1164            0.0000000000
      3491      1164  TIP3      H1             -3.4410387858       -6.8618057020       -6.9515786337  W2        1164            0.0000000000
      3492      1164  TIP3      H2             -2.2364987858       -6.0145357020       -7.3024286337  W2        1164            0.0000000000
      3493      1165  TIP3      OH2           -15.8004087858       -2.1458257020        1.5033013663  W2        1165            0.0000000000
      3494      1165  TIP3      H1            -15.5833787858       -3.0775857020        1.4722713663  W2        1165            0.0000000000
      3495      1165  TIP3      H2            -15.5540587858       -1.8713257020        2.3865813663  W2        1165            0.0000000000
      3496      1166  TIP3      OH2            -9.9389487858       -3.6943257020      -11.2874786337  W2        1166            0.0000000000
      3497      1166  TIP3      H1             -9.6999687858       -4.4425157020      -11.8345886337  W2        1166            0.0000000000
      3498      1166  TIP3      H2            -10.2078187858       -4.0821557020      -10.4546986337  W2        1166            0.0000000000
      3499      1167  TIP3      OH2           -11.0018887858       -4.1239457020       -8.8312186337  W2        1167            0.0000000000
      3500      1167  TIP3      H1            -10.8550887858       -4.6439657020       -8.0411286337  W2        1167            0.0000000000
      3501      1167  TIP3      H2            -11.0047187858       -3.2171857020       -8.5246286337  W2        1167            0.0000000000
      3502      1168  TIP3      OH2           -14.5487787858       -6.8716157020       -8.3206786337  W2        1168            0.0000000000
      3503      1168  TIP3      H1            -15.2348487858       -6.5193657020       -7.7537086337  W2        1168            0.0000000000
      3504      1168  TIP3      H2            -14.0259887858       -6.1086557020       -8.5672486337  W2        1168            0.0000000000
      3505      1169  TIP3      OH2            -6.7172687858      -14.2092357020        1.9582213663  W2        1169            0.0000000000
      3506      1169  TIP3      H1             -6.0184787858      -14.1353657020        2.6081913663  W2        1169            0.0000000000
      3507      1169  TIP3      H2             -7.0981287858      -15.0737357020        2.1125113663  W2        1169            0.0000000000
      3508      1170  TIP3      OH2            -5.9327787858      -14.5570657020       -6.9445486337  W2        1170            0.0000000000
      3509      1170  TIP3      H1             -5.7129487858      -14.0855257020       -7.7480086337  W2        1170            0.0000000000
      3510      1170  TIP3      H2             -5.3743787858      -14.1628057020       -6.2744886337  W2        1170            0.0000000000
      3511      1171  TIP3      OH2            -8.2641687858       -2.4265857020       -8.0817986337  W2        1171            0.0000000000
      3512      1171  TIP3      H1             -9.0805587858       -1.9296157020       -8.0293686337  W2        1171            0.0000000000
      3513      1171  TIP3      H2             -7.7345387858       -1.9512357020       -8.7219186337  W2        1171            0.0000000000
      3514      1172  TIP3      OH2            -8.7327887858      -12.8291857020       -6.1097086337  W2        1172            0.0000000000
      3515      1172  TIP3      H1             -7.9205287858      -12.3248657020       -6.0635386337  W2        1172            0.0000000000
      3516      1172  TIP3      H2             -8.9774887858      -12.9742157020       -5.1957486337  W2        1172            0.0000000000
      3517      1173  TIP3      OH2            -8.1971487858      -11.8429157020        3.0749513663  W2        1173            0.0000000000
      3518      1173  TIP3      H1             -8.0781187858      -11.2693757020        3.8319913663  W2        1173            0.0000000000
      3519      1173  TIP3      H2             -7.5416887858      -12.5309757020        3.1897313663  W2        1173            0.0000000000
      3520      1174  TIP3      OH2            -7.8491187858      -15.7478857020       -5.1715986337  W2        1174            0.0000000000
      3521      1174  TIP3      H1             -8.1957687858      -15.1308257020       -4.5271686337  W2        1174            0.0000000000
      3522      1174  TIP3      H2             -7.1904287858      -15.2473157020       -5.6530486337  W2        1174            0.0000000000
      3523      1175  TIP3      OH2           -10.9258587858       -1.3828657020       -8.1001086337  W2        1175            0.0000000000
      3524      1175  TIP3      H1            -10.7649887858       -0.5831157020       -8.6008486337  W2        1175            0.0000000000
      3525      1175  TIP3      H2            -11.1230787858       -1.0762657020       -7.2150486337  W2        1175            0.0000000000
      3526      1176  TIP3      OH2           -12.1914187858      -14.6849457020       -8.4843486337  W2        1176            0.0000000000
      3527      1176  TIP3      H1            -12.2749387858      -13.7966357020       -8.1377086337  W2        1176            0.0000000000
      3528      1176  TIP3      H2            -11.3013887858      -14.9502757020       -8.2526686337  W2        1176            0.0000000000
      3529      1177  TIP3      OH2            -1.9925687858      -13.9358857020        3.9099213663  W2        1177            0.0000000000
      3530      1177  TIP3      H1             -2.9089887858      -13.6737157020        3.8222913663  W2        1177            0.0000000000
      3531      1177  TIP3      H2             -1.6570687858      -13.9389857020        3.0134513663  W2        1177            0.0000000000
      3532      1178  TIP3      OH2            -3.3904687858      -10.1857857020       -1.9943486337  W2        1178            0.0000000000
      3533      1178  TIP3      H1             -4.1880287858      -10.6007657020       -2.3228486337  W2        1178            0.0000000000
      3534      1178  TIP3      H2             -2.9453587858      -10.8764157020       -1.5032986337  W2        1178            0.0000000000
      3535      1179  TIP3      OH2           -13.9328887858       -4.2577257020       -9.4238986337  W2        1179            0.0000000000
      3536      1179  TIP3      H1            -13.3407387858       -3.5582457020       -9.1476586337  W2        1179            0.0000000000
      3537      1179  TIP3      H2            -13.4735887858       -4.6907757020      -10.1434386337  W2        1179            0.0000000000
      3538      1180  TIP3      OH2           -15.6169687858      -11.5934257020      -10.3079586337  W2        1180            0.0000000000
      3539      1180  TIP3      H1            -15.6617087858      -10.6541157020      -10.1292586337  W2        1180            0.0000000000
      3540      1180  TIP3      H2            -16.5046487858      -11.8289357020      -10.5777486337  W2        1180            0.0000000000
      3541      1181  TIP3      OH2            -2.3040087858       -0.9295357020       -0.3719986337  W2        1181            0.0000000000
      3542      1181  TIP3      H1             -2.4595787858       -0.2510957020       -1.0290686337  W2        1181            0.0000000000
      3543      1181  TIP3      H2             -1.3713687858       -0.8576057020       -0.1689386337  W2        1181            0.0000000000
      3544      1182  TIP3      OH2           -14.8087687858      -16.8117657020       -1.6348586337  W2        1182            0.0000000000
      3545      1182  TIP3      H1            -15.0377887858      -16.7525157020       -2.5623586337  W2        1182            0.0000000000
      3546      1182  TIP3      H2            -15.2514287858      -17.6032157020       -1.3284486337  W2        1182            0.0000000000
      3547      1183  TIP3      OH2           -15.8784387858       -2.8710557020       -5.4742786337  W2        1183            0.0000000000
      3548      1183  TIP3      H1            -16.7105787858       -2.3987857020       -5.4471386337  W2        1183            0.0000000000
      3549      1183  TIP3      H2            -15.3326087858       -2.3612957020       -6.0729686337  W2        1183            0.0000000000
      3550      1184  TIP3      OH2           -16.5900687858       -0.2586857020        5.8555213663  W2        1184            0.0000000000
      3551      1184  TIP3      H1            -16.0498487858       -0.4752857020        6.6154413663  W2        1184            0.0000000000
      3552      1184  TIP3      H2            -17.0712687858       -1.0640857020        5.6657713663  W2        1184            0.0000000000
      3553      1185  TIP3      OH2           -11.9927287858       -1.3392457020        7.4759413663  W2        1185            0.0000000000
      3554      1185  TIP3      H1            -11.2250087858       -1.7981657020        7.8168613663  W2        1185            0.0000000000
      3555      1185  TIP3      H2            -12.0141087858       -1.5652657020        6.5460613663  W2        1185            0.0000000000
      3556      1186  TIP3      OH2            -7.9007687858       -1.8311857020      -11.1488786337  W2        1186            0.0000000000
      3557      1186  TIP3      H1             -8.5446687858       -2.4623257020      -10.8275086337  W2        1186            0.0000000000
      3558      1186  TIP3      H2             -7.1389387858       -2.3623857020      -11.3805286337  W2        1186            0.0000000000
      3559      1187  TIP3      OH2            -5.4158587858       -2.9591357020        6.2050913663  W2        1187            0.0000000000
      3560      1187  TIP3      H1             -5.7669087858       -3.8158357020        6.4481313663  W2        1187            0.0000000000
      3561      1187  TIP3      H2             -4.6895387858       -2.8164657020        6.8119913663  W2        1187            0.0000000000
      3562      1188  TIP3      OH2            -3.2964787858       -2.0141957020      -10.9150786337  W2        1188            0.0000000000
      3563      1188  TIP3      H1             -3.0134387858       -2.8086757020      -10.4623886337  W2        1188            0.0000000000
      3564      1188  TIP3      H2             -2.5566887858       -1.7810957020      -11.4759686337  W2        1188            0.0000000000
      3565      1189  TIP3      OH2           -16.6831187858       -6.4482757020        6.8099513663  W2        1189            0.0000000000
      3566      1189  TIP3      H1            -16.5390687858       -7.3502057020        6.5236213663  W2        1189            0.0000000000
      3567      1189  TIP3      H2            -17.4553787858       -6.1620657020        6.3221813663  W2        1189            0.0000000000
      3568      1190  TIP3      OH2           -12.3417487858       -6.1047057020      -11.0575886337  W2        1190            0.0000000000
      3569      1190  TIP3      H1            -12.2773387858       -6.8987457020      -10.5269486337  W2        1190            0.0000000000
      3570      1190  TIP3      H2            -11.6888287858       -6.2234257020      -11.7473886337  W2        1190            0.0000000000
      3571      1191  TIP3      OH2           -10.0275087858       -6.4784657020        6.2425913663  W2        1191            0.0000000000
      3572      1191  TIP3      H1            -10.3561287858       -6.2076557020        5.3853313663  W2        1191            0.0000000000
      3573      1191  TIP3      H2             -9.8756887858       -7.4194857020        6.1550913663  W2        1191            0.0000000000
      3574      1192  TIP3      OH2            -6.9894087858       -5.0575357020      -11.3217886337  W2        1192            0.0000000000
      3575      1192  TIP3      H1             -7.2579987858       -4.8773257020      -10.4208986337  W2        1192            0.0000000000
      3576      1192  TIP3      H2             -7.1958487858       -5.9829157020      -11.4532086337  W2        1192            0.0000000000
      3577      1193  TIP3      OH2            -4.2929887858       -6.5627357020        3.6258213663  W2        1193            0.0000000000
      3578      1193  TIP3      H1             -3.5475087858       -5.9743657020        3.5062213663  W2        1193            0.0000000000
      3579      1193  TIP3      H2             -5.0503087858       -5.9807657020        3.6891313663  W2        1193            0.0000000000
      3580      1194  TIP3      OH2           -15.8504687858       -9.2479457020        6.2298813663  W2        1194            0.0000000000
      3581      1194  TIP3      H1            -15.4423487858      -10.1052857020        6.1089413663  W2        1194            0.0000000000
      3582      1194  TIP3      H2            -16.1107087858       -9.2338157020        7.1509113663  W2        1194            0.0000000000
      3583      1195  TIP3      OH2           -11.1923687858       -8.1320857020       -8.7517886337  W2        1195            0.0000000000
      3584      1195  TIP3      H1            -11.6521687858       -8.6162557020       -8.0659386337  W2        1195            0.0000000000
      3585      1195  TIP3      H2            -10.9374987858       -8.8005457020       -9.3877386337  W2        1195            0.0000000000
      3586      1196  TIP3      OH2           -11.9034387858      -10.2393757020        3.6041713663  W2        1196            0.0000000000
      3587      1196  TIP3      H1            -12.5218287858       -9.5647157020        3.8846413663  W2        1196            0.0000000000
      3588      1196  TIP3      H2            -11.5593187858       -9.9179857020        2.7707913663  W2        1196            0.0000000000
      3589      1197  TIP3      OH2           -10.1213287858       -9.8889057020      -10.4894686337  W2        1197            0.0000000000
      3590      1197  TIP3      H1            -10.3018287858      -10.0437857020      -11.4166386337  W2        1197            0.0000000000
      3591      1197  TIP3      H2             -9.1712787858       -9.7810357020      -10.4446786337  W2        1197            0.0000000000
      3592      1198  TIP3      OH2            -6.8836187858       -7.7678457020        6.8816513663  W2        1198            0.0000000000
      3593      1198  TIP3      H1             -5.9304987858       -7.6839357020        6.8542513663  W2        1198            0.0000000000
      3594      1198  TIP3      H2             -7.0441587858       -8.4796657020        7.5011413663  W2        1198            0.0000000000
      3595      1199  TIP3      OH2            -0.7314987858       -7.5344857020      -11.0436586337  W2        1199            0.0000000000
      3596      1199  TIP3      H1             -1.0050187858       -7.9589357020      -11.8568286337  W2        1199            0.0000000000
      3597      1199  TIP3      H2             -0.6920887858       -6.6030357020      -11.2606186337  W2        1199            0.0000000000
      3598      1200  TIP3      OH2           -11.5640687858      -12.8842957020        4.6864813663  W2        1200            0.0000000000
      3599      1200  TIP3      H1            -11.4139787858      -13.6131657020        4.0844513663  W2        1200            0.0000000000
      3600      1200  TIP3      H2            -11.5618287858      -12.1071257020        4.1277013663  W2        1200            0.0000000000
      3601      1201  TIP3      OH2           -11.1514987858      -14.5147157020        2.1792213663  W2        1201            0.0000000000
      3602      1201  TIP3      H1            -10.6157487858      -14.0630457020        1.5271513663  W2        1201            0.0000000000
      3603      1201  TIP3      H2            -12.0035387858      -14.6227357020        1.7566313663  W2        1201            0.0000000000
      3604      1202  TIP3      OH2            -9.5696587858       -9.0750957020        2.4187413663  W2        1202            0.0000000000
      3605      1202  TIP3      H1             -8.8191787858       -9.2313457020        1.8455213663  W2        1202            0.0000000000
      3606      1202  TIP3      H2             -9.9088287858       -8.2234357020        2.1432913663  W2        1202            0.0000000000
      3607      1203  TIP3      OH2            -5.1540387858      -11.2599157020        7.4472713663  W2        1203            0.0000000000
      3608      1203  TIP3      H1             -4.9619087858      -12.1909757020        7.3357213663  W2        1203            0.0000000000
      3609      1203  TIP3      H2             -4.2964087858      -10.8349657020        7.4368113663  W2        1203            0.0000000000
      3610      1204  TIP3      OH2            -3.8373187858       -8.4713957020        5.5245413663  W2        1204            0.0000000000
      3611      1204  TIP3      H1             -4.1188187858       -7.7619357020        4.9469213663  W2        1204            0.0000000000
      3612      1204  TIP3      H2             -2.8948887858       -8.5440957020        5.3736613663  W2        1204            0.0000000000
      3613      1205  TIP3      OH2           -13.0854387858      -11.6859457020        6.5980413663  W2        1205            0.0000000000
      3614      1205  TIP3      H1            -13.8525387858      -12.2184657020        6.3878013663  W2        1205            0.0000000000
      3615      1205  TIP3      H2            -12.4065387858      -11.9959057020        5.9986713663  W2        1205            0.0000000000
      3616      1206  TIP3      OH2           -10.3459487858      -17.0581457020        2.6105813663  W2        1206            0.0000000000
      3617      1206  TIP3      H1            -10.4439887858      -16.1118257020        2.5052013663  W2        1206            0.0000000000
      3618      1206  TIP3      H2            -11.0883287858      -17.4307657020        2.1349313663  W2        1206            0.0000000000
      3619      1207  TIP3      OH2            -9.0818987858      -12.7366057020        6.1744213663  W2        1207            0.0000000000
      3620      1207  TIP3      H1             -9.3173587858      -12.9559357020        7.0759113663  W2        1207            0.0000000000
      3621      1207  TIP3      H2             -9.8652087858      -12.9434857020        5.6646713663  W2        1207            0.0000000000
      3622      1208  TIP3      OH2            -6.3662387858      -13.6092557020        5.2497713663  W2        1208            0.0000000000
      3623      1208  TIP3      H1             -7.3136987858      -13.5772857020        5.3821013663  W2        1208            0.0000000000
      3624      1208  TIP3      H2             -6.0535687858      -14.2345457020        5.9035913663  W2        1208            0.0000000000
      3625      1209  TIP3      OH2            -4.7320887858      -14.9751457020        7.2549613663  W2        1209            0.0000000000
      3626      1209  TIP3      H1             -4.8289087858      -15.9274157020        7.2491513663  W2        1209            0.0000000000
      3627      1209  TIP3      H2             -5.0537787858      -14.7064657020        8.1155113663  W2        1209            0.0000000000
      3628      1210  TIP3      OH2           -14.9051587858      -13.7655657020        6.3025113663  W2        1210            0.0000000000
      3629      1210  TIP3      H1            -14.6934187858      -14.4719557020        5.6922613663  W2        1210            0.0000000000
      3630      1210  TIP3      H2            -15.0164087858      -14.2029657020        7.1466313663  W2        1210            0.0000000000
      3631      1211  TIP3      OH2           -10.1241387858      -17.7644057020        5.2818613663  W2        1211            0.0000000000
      3632      1211  TIP3      H1             -9.4122987858      -18.4041857020        5.2677713663  W2        1211            0.0000000000
      3633      1211  TIP3      H2            -10.2250987858      -17.4975757020        4.3681713663  W2        1211            0.0000000000
      3634      1212  TIP3      OH2            -9.7703887858      -16.0815657020        7.3354913663  W2        1212            0.0000000000
      3635      1212  TIP3      H1             -9.9021687858      -16.5571857020        6.5153413663  W2        1212            0.0000000000
      3636      1212  TIP3      H2            -10.3696487858      -15.3372057020        7.2802013663  W2        1212            0.0000000000
      3637      1213  TIP3      OH2           -10.2241587858        0.8014642980       -9.4881086337  W2        1213            0.0000000000
      3638      1213  TIP3      H1             -9.2910887858        0.9593342980       -9.3442686337  W2        1213            0.0000000000
      3639      1213  TIP3      H2            -10.4882787858        1.4767642980      -10.1129586337  W2        1213            0.0000000000
      3640      1214  TIP3      OH2           -16.6556687858       -4.5621557020      -10.0052986337  W2        1214            0.0000000000
      3641      1214  TIP3      H1            -15.7417487858       -4.4832657020       -9.7319086337  W2        1214            0.0000000000
      3642      1214  TIP3      H2            -16.6483587858       -5.2491957020      -10.6717386337  W2        1214            0.0000000000
      3643      1215  TIP3      OH2           -18.0066087858        0.8306942980       -4.9279086337  W2        1215            0.0000000000
      3644      1215  TIP3      H1            -18.6538987858        0.3688642980       -5.4607886337  W2        1215            0.0000000000
      3645      1215  TIP3      H2            -17.6521487858        0.1590242980       -4.3452886337  W2        1215            0.0000000000
      3646      1216  TIP3      OH2           -17.1366887858       -1.0886057020       -3.1232886337  W2        1216            0.0000000000
      3647      1216  TIP3      H1            -17.4710087858       -1.9688757020       -2.9512686337  W2        1216            0.0000000000
      3648      1216  TIP3      H2            -16.9144487858       -0.7431057020       -2.2587286337  W2        1216            0.0000000000
      3649      1217  TIP3      OH2             0.4117912142       -0.2789657020       -0.1428086337  W2        1217            0.0000000000
      3650      1217  TIP3      H1              0.3904612142       -0.0941257020        0.7961313663  W2        1217            0.0000000000
      3651      1217  TIP3      H2              1.1024112142        0.2894342980       -0.4836686337  W2        1217            0.0000000000
      3652      1218  TIP3      OH2            -0.0249187858       -0.7118557020        2.7791013663  W2        1218            0.0000000000
      3653      1218  TIP3      H1             -0.5120487858       -1.4474457020        2.4078413663  W2        1218            0.0000000000
      3654      1218  TIP3      H2              0.5243512142       -1.1054657020        3.4570413663  W2        1218            0.0000000000
      3655      1219  TIP3      OH2            -1.5741887858       -4.9220457020        7.4171313663  W2        1219            0.0000000000
      3656      1219  TIP3      H1             -2.4400787858       -5.0270757020        7.8113613663  W2        1219            0.0000000000
      3657      1219  TIP3      H2             -1.1975987858       -4.1637157020        7.8636013663  W2        1219            0.0000000000
      3658      1220  TIP3      OH2            -0.2732187858       -6.6656757020       -7.0686186337  W2        1220            0.0000000000
      3659      1220  TIP3      H1              0.5769212142       -6.2445857020       -6.9414586337  W2        1220            0.0000000000
      3660      1220  TIP3      H2             -0.2677087858       -7.4056657020       -6.4614786337  W2        1220            0.0000000000
      3661      1221  TIP3      OH2             0.1213412142       -8.6119357020       -5.2450486337  W2        1221            0.0000000000
      3662      1221  TIP3      H1             -0.6051987858       -9.0916757020       -4.8472886337  W2        1221            0.0000000000
      3663      1221  TIP3      H2              0.7026712142       -8.4064657020       -4.5128886337  W2        1221            0.0000000000
      3664      1222  TIP3      OH2            -0.1195387858       -5.8271857020       -0.2972886337  W2        1222            0.0000000000
      3665      1222  TIP3      H1              0.7138812142       -6.2051857020       -0.5779286337  W2        1222            0.0000000000
      3666      1222  TIP3      H2             -0.0075087858       -4.8840657020       -0.4163786337  W2        1222            0.0000000000
      3667      1223  TIP3      OH2            -1.6333087858       -2.9494357020        2.0095513663  W2        1223            0.0000000000
      3668      1223  TIP3      H1             -2.2807787858       -2.6242857020        2.6350713663  W2        1223            0.0000000000
      3669      1223  TIP3      H2             -2.1509087858       -3.3896657020        1.3353813663  W2        1223            0.0000000000
      3670      1224  TIP3      OH2             0.3896512142       -8.7110857020       -8.8539186337  W2        1224            0.0000000000
      3671      1224  TIP3      H1             -0.1322387858       -8.3546757020       -9.5728286337  W2        1224            0.0000000000
      3672      1224  TIP3      H2              0.3565712142       -8.0363057020       -8.1758286337  W2        1224            0.0000000000
      3673      1225  TIP3      OH2            -1.2614487858      -11.4715257020      -10.3032086337  W2        1225            0.0000000000
      3674      1225  TIP3      H1             -1.1650087858      -10.8048257020      -10.9832386337  W2        1225            0.0000000000
      3675      1225  TIP3      H2             -1.4014887858      -12.2868957020      -10.7846586337  W2        1225            0.0000000000
      3676      1226  TIP3      OH2            -2.0919787858      -10.0912857020       -4.6821786337  W2        1226            0.0000000000
      3677      1226  TIP3      H1             -2.2420987858      -11.0364257020       -4.7023986337  W2        1226            0.0000000000
      3678      1226  TIP3      H2             -2.4455287858       -9.8101457020       -3.8382686337  W2        1226            0.0000000000
      3679      1227  TIP3      OH2           -17.0567387858       -8.0130657020       -0.6717986337  W2        1227            0.0000000000
      3680      1227  TIP3      H1            -16.8724487858       -8.0948957020       -1.6075086337  W2        1227            0.0000000000
      3681      1227  TIP3      H2            -16.2074487858       -8.1373657020       -0.2481586337  W2        1227            0.0000000000
      3682      1228  TIP3      OH2            -1.2356887858       -8.1209557020        4.9566513663  W2        1228            0.0000000000
      3683      1228  TIP3      H1             -0.6529587858       -8.8557257020        5.1483713663  W2        1228            0.0000000000
      3684      1228  TIP3      H2             -0.6717587858       -7.3489257020        5.0032313663  W2        1228            0.0000000000
      3685      1229  TIP3      OH2             0.2610212142      -10.2183757020        5.6411913663  W2        1229            0.0000000000
      3686      1229  TIP3      H1             -0.6023087858      -10.5971657020        5.4756613663  W2        1229            0.0000000000
      3687      1229  TIP3      H2              0.8653912142      -10.9568957020        5.5667713663  W2        1229            0.0000000000
      3688      1230  TIP3      OH2            -2.0140687858      -14.0635457020      -11.1856586337  W2        1230            0.0000000000
      3689      1230  TIP3      H1             -1.4034887858      -14.4348657020      -10.5488386337  W2        1230            0.0000000000
      3690      1230  TIP3      H2             -2.8509187858      -14.4848557020      -10.9896586337  W2        1230            0.0000000000
      3691      1231  TIP3      OH2            -2.3814987858      -12.5087057020       -6.2196686337  W2        1231            0.0000000000
      3692      1231  TIP3      H1             -2.1017887858      -13.4156657020       -6.0954986337  W2        1231            0.0000000000
      3693      1231  TIP3      H2             -1.6223287858      -12.0745557020       -6.6087486337  W2        1231            0.0000000000
      3694      1232  TIP3      OH2            -1.7696687858      -11.9269657020       -0.7837786337  W2        1232            0.0000000000
      3695      1232  TIP3      H1             -0.8368687858      -11.7149757020       -0.8181786337  W2        1232            0.0000000000
      3696      1232  TIP3      H2             -2.0049187858      -11.8257557020        0.1385213663  W2        1232            0.0000000000
      3697      1233  TIP3      OH2            -1.7404787858      -11.1904357020        1.9921613663  W2        1233            0.0000000000
      3698      1233  TIP3      H1             -2.5833487858      -10.9223957020        2.3581413663  W2        1233            0.0000000000
      3699      1233  TIP3      H2             -1.2980487858      -10.3682457020        1.7812713663  W2        1233            0.0000000000
      3700      1234  TIP3      OH2           -17.4592587858      -12.7425657020        5.4690813663  W2        1234            0.0000000000
      3701      1234  TIP3      H1            -16.5397687858      -12.8647357020        5.7053913663  W2        1234            0.0000000000
      3702      1234  TIP3      H2            -17.9088087858      -13.4925957020        5.8584313663  W2        1234            0.0000000000
      3703      1235  TIP3      OH2             0.5426812142      -17.2104157020        7.3456613663  W2        1235            0.0000000000
      3704      1235  TIP3      H1              0.8923812142      -17.8640657020        6.7401313663  W2        1235            0.0000000000
      3705      1235  TIP3      H2              0.6896312142      -16.3730057020        6.9059213663  W2        1235            0.0000000000
      3706      1236  TIP3      OH2            -1.7680187858      -15.2457757020       -6.1714686337  W2        1236            0.0000000000
      3707      1236  TIP3      H1             -1.5855187858      -15.6946257020       -5.3459686337  W2        1236            0.0000000000
      3708      1236  TIP3      H2             -2.3677287858      -15.8303357020       -6.6350086337  W2        1236            0.0000000000
      3709      1237  TIP3      OH2           -16.2380087858      -14.4304057020       -1.6396286337  W2        1237            0.0000000000
      3710      1237  TIP3      H1            -15.7928487858      -15.2221557020       -1.3376586337  W2        1237            0.0000000000
      3711      1237  TIP3      H2            -15.7717087858      -13.7138857020       -1.2090686337  W2        1237            0.0000000000
      3712      1238  TIP3      OH2           -17.9339787858      -11.4311057020       -0.5706086337  W2        1238            0.0000000000
      3713      1238  TIP3      H1            -17.4419987858      -11.6520557020       -1.3614086337  W2        1238            0.0000000000
      3714      1238  TIP3      H2            -17.5718887858      -10.5907657020       -0.2896586337  W2        1238            0.0000000000
      3715      1239  TIP3      OH2             0.0624012142      -15.1009557020        5.6947913663  W2        1239            0.0000000000
      3716      1239  TIP3      H1             -0.8550287858      -14.8302457020        5.6591413663  W2        1239            0.0000000000
      3717      1239  TIP3      H2              0.1853412142      -15.6361157020        4.9107613663  W2        1239            0.0000000000
      3718      1240  TIP3      OH2             0.0986012142      -15.1779657020       -9.6434386337  W2        1240            0.0000000000
      3719      1240  TIP3      H1              0.5108612142      -15.8993957020      -10.1186386337  W2        1240            0.0000000000
      3720      1240  TIP3      H2              0.7802512142      -14.5085057020       -9.5850086337  W2        1240            0.0000000000
      3721      1241  TIP3      OH2           -17.6203287858      -15.1731957020       -6.5163686337  W2        1241            0.0000000000
      3722      1241  TIP3      H1            -18.5454887858      -14.9645357020       -6.6458186337  W2        1241            0.0000000000
      3723      1241  TIP3      H2            -17.1663387858      -14.6891157020       -7.2061386337  W2        1241            0.0000000000
      3724      1242  TIP3      OH2            -2.8496087858       -0.1890257020       -4.5706286337  W2        1242            0.0000000000
      3725      1242  TIP3      H1             -2.1973187858       -0.5368157020       -5.1787186337  W2        1242            0.0000000000
      3726      1242  TIP3      H2             -2.3392287858        0.2992942980       -3.9246586337  W2        1242            0.0000000000
      3727      1243  TIP3      OH2           -17.6567887858      -16.4352957020        1.8278813663  W2        1243            0.0000000000
      3728      1243  TIP3      H1            -18.3217387858      -16.6812657020        2.4709713663  W2        1243            0.0000000000
      3729      1243  TIP3      H2            -18.0996587858      -15.8132557020        1.2506813663  W2        1243            0.0000000000
      3730      1244  TIP3      OH2           -15.4648587858       -3.2598857020        5.9724613663  W2        1244            0.0000000000
      3731      1244  TIP3      H1            -16.2856087858       -3.0852357020        5.5119313663  W2        1244            0.0000000000
      3732      1244  TIP3      H2            -15.7170787858       -3.3334157020        6.8929013663  W2        1244            0.0000000000
      3733      1245  TIP3      OH2           -12.5105687858       -2.2857657020        2.2308613663  W2        1245            0.0000000000
      3734      1245  TIP3      H1            -12.9354587858       -1.4759157020        1.9483213663  W2        1245            0.0000000000
      3735      1245  TIP3      H2            -11.6062887858       -2.2003557020        1.9288413663  W2        1245            0.0000000000
      3736      1246  TIP3      OH2            -8.1994287858       -0.8867657020        5.1902313663  W2        1246            0.0000000000
      3737      1246  TIP3      H1             -8.0146787858       -1.2201557020        6.0682613663  W2        1246            0.0000000000
      3738      1246  TIP3      H2             -7.3529787858       -0.5769057020        4.8681513663  W2        1246            0.0000000000
      3739      1247  TIP3      OH2            -5.8543887858        0.3991242980        4.4343713663  W2        1247            0.0000000000
      3740      1247  TIP3      H1             -5.1774987858       -0.2336457020        4.1942913663  W2        1247            0.0000000000
      3741      1247  TIP3      H2             -5.5325087858        0.8001742980        5.2417013663  W2        1247            0.0000000000
      3742      1248  TIP3      OH2            -0.9370087858      -17.0113257020        3.5138713663  W2        1248            0.0000000000
      3743      1248  TIP3      H1             -1.7496587858      -16.6862957020        3.1263413663  W2        1248            0.0000000000
      3744      1248  TIP3      H2             -0.7041587858      -17.7714757020        2.9807813663  W2        1248            0.0000000000
      3745      1249  TIP3      OH2           -15.1088987858        0.9706242980        2.2783913663  W2        1249            0.0000000000
      3746      1249  TIP3      H1            -15.8292587858        1.4107242980        1.8271613663  W2        1249            0.0000000000
      3747      1249  TIP3      H2            -15.4744987858        0.7200942980        3.1267913663  W2        1249            0.0000000000
      3748      1250  TIP3      OH2           -12.6416387858        0.5710142980        1.3081113663  W2        1250            0.0000000000
      3749      1250  TIP3      H1            -13.5064187858        0.6428642980        1.7121213663  W2        1250            0.0000000000
      3750      1250  TIP3      H2            -12.6967387858        1.1177442980        0.5243613663  W2        1250            0.0000000000
      3751      1251  TIP3      OH2            -7.9310787858        0.4589042980        0.4837113663  W2        1251            0.0000000000
      3752      1251  TIP3      H1             -8.3876787858        0.9878742980       -0.1704486337  W2        1251            0.0000000000
      3753      1251  TIP3      H2             -7.7682787858        1.0620442980        1.2089413663  W2        1251            0.0000000000
      3754      1252  TIP3      OH2            -5.6034487858       -0.6631357020        1.4287413663  W2        1252            0.0000000000
      3755      1252  TIP3      H1             -6.5080787858       -0.4981157020        1.1629513663  W2        1252            0.0000000000
      3756      1252  TIP3      H2             -5.1745887858        0.1900842980        1.3630813663  W2        1252            0.0000000000
      3757      1253  TIP3      OH2            -2.9992587858        0.9067742980        1.7235213663  W2        1253            0.0000000000
      3758      1253  TIP3      H1             -3.1810587858        1.8226642980        1.5130113663  W2        1253            0.0000000000
      3759      1253  TIP3      H2             -2.8224787858        0.4964842980        0.8769813663  W2        1253            0.0000000000
      3760      1254  TIP3      OH2           -15.6940887858       -0.4061257020       -0.8114286337  W2        1254            0.0000000000
      3761      1254  TIP3      H1            -15.7124887858       -0.8316157020        0.0458013663  W2        1254            0.0000000000
      3762      1254  TIP3      H2            -14.8892987858       -0.7246257020       -1.2202086337  W2        1254            0.0000000000
      3763      1255  TIP3      OH2           -13.5527787858       -1.6962557020       -2.1564386337  W2        1255            0.0000000000
      3764      1255  TIP3      H1            -13.7717087858       -2.6125157020       -1.9868386337  W2        1255            0.0000000000
      3765      1255  TIP3      H2            -12.7285587858       -1.5562157020       -1.6902986337  W2        1255            0.0000000000
      3766      1256  TIP3      OH2           -11.0155287858       -1.2263257020       -1.3076386337  W2        1256            0.0000000000
      3767      1256  TIP3      H1            -10.8029587858       -2.1144257020       -1.5945486337  W2        1256            0.0000000000
      3768      1256  TIP3      H2            -10.9510187858       -1.2605557020       -0.3532386337  W2        1256            0.0000000000
      3769      1257  TIP3      OH2            -7.5071587858      -15.5622657020       -2.1633086337  W2        1257            0.0000000000
      3770      1257  TIP3      H1             -8.1814787858      -16.1917057020       -1.9077286337  W2        1257            0.0000000000
      3771      1257  TIP3      H2             -6.9432387858      -16.0463757020       -2.7665186337  W2        1257            0.0000000000
      3772      1258  TIP3      OH2            -2.3644387858      -17.4548657020       -2.0505986337  W2        1258            0.0000000000
      3773      1258  TIP3      H1             -1.7606787858      -16.9073257020       -2.5524986337  W2        1258            0.0000000000
      3774      1258  TIP3      H2             -3.2342387858      -17.1358257020       -2.2911886337  W2        1258            0.0000000000
      3775      1259  TIP3      OH2            -0.6373987858      -16.3159957020       -3.7175086337  W2        1259            0.0000000000
      3776      1259  TIP3      H1             -0.0256487858      -16.8304257020       -4.2441486337  W2        1259            0.0000000000
      3777      1259  TIP3      H2             -0.2550587858      -15.4387857020       -3.6940686337  W2        1259            0.0000000000
      3778      1260  TIP3      OH2           -15.1804087858      -16.9282357020       -4.3413186337  W2        1260            0.0000000000
      3779      1260  TIP3      H1            -15.9574287858      -17.1627457020       -4.8487286337  W2        1260            0.0000000000
      3780      1260  TIP3      H2            -14.6500487858      -17.7250257020       -4.3325186337  W2        1260            0.0000000000
      3781      1261  TIP3      OH2           -16.3440687858      -17.1304257020       -8.5377086337  W2        1261            0.0000000000
      3782      1261  TIP3      H1            -15.9049987858      -16.5193757020       -9.1293586337  W2        1261            0.0000000000
      3783      1261  TIP3      H2            -16.9778287858      -16.5920157020       -8.0637086337  W2        1261            0.0000000000
      3784      1262  TIP3      OH2           -10.6011487858      -17.0015257020       -4.5280086337  W2        1262            0.0000000000
      3785      1262  TIP3      H1             -9.7268087858      -16.6130957020       -4.5575786337  W2        1262            0.0000000000
      3786      1262  TIP3      H2            -10.7370687858      -17.2167457020       -3.6052886337  W2        1262            0.0000000000
      3787      1263  TIP3      OH2            -5.0443087858      -16.9715457020       -2.8788386337  W2        1263            0.0000000000
      3788      1263  TIP3      H1             -4.9681487858      -16.8763857020       -3.8282386337  W2        1263            0.0000000000
      3789      1263  TIP3      H2             -5.3193887858      -17.8792557020       -2.7499286337  W2        1263            0.0000000000
      3790      1264  TIP3      OH2            -3.6910487858      -16.9457657020       -7.1863386337  W2        1264            0.0000000000
      3791      1264  TIP3      H1             -4.3939387858      -16.3308457020       -7.3961986337  W2        1264            0.0000000000
      3792      1264  TIP3      H2             -4.1359087858      -17.7830957020       -7.0552486337  W2        1264            0.0000000000
      3793      1265  TIP3      OH2           -16.4431187858       -1.1822057020       -7.6401986337  W2        1265            0.0000000000
      3794      1265  TIP3      H1            -17.1281287858       -1.2203157020       -8.3076886337  W2        1265            0.0000000000
      3795      1265  TIP3      H2            -16.4393987858       -0.2694457020       -7.3519886337  W2        1265            0.0000000000
      3796      1266  TIP3      OH2           -14.4831587858      -15.2142757020      -10.0952986337  W2        1266            0.0000000000
      3797      1266  TIP3      H1            -13.9918187858      -15.8440357020      -10.6227486337  W2        1266            0.0000000000
      3798      1266  TIP3      H2            -13.8595287858      -14.9183357020       -9.4321786337  W2        1266            0.0000000000
      3799      1267  TIP3      OH2            -9.4571487858      -14.9211257020       -7.6382486337  W2        1267            0.0000000000
      3800      1267  TIP3      H1             -9.2790187858      -15.5678057020       -6.9553886337  W2        1267            0.0000000000
      3801      1267  TIP3      H2             -9.5105287858      -14.0873557020       -7.1711386337  W2        1267            0.0000000000
      3802      1268  TIP3      OH2            -7.5787687858        0.0272842980       -9.2425786337  W2        1268            0.0000000000
      3803      1268  TIP3      H1             -6.7127487858        0.3940242980       -9.4207586337  W2        1268            0.0000000000
      3804      1268  TIP3      H2             -7.8254887858       -0.4119157020      -10.0564986337  W2        1268            0.0000000000
      3805      1269  TIP3      OH2            -0.8698087858       -0.4096857020       -6.5634686337  W2        1269            0.0000000000
      3806      1269  TIP3      H1             -1.0640987858       -1.1574757020       -7.1285086337  W2        1269            0.0000000000
      3807      1269  TIP3      H2             -0.9087987858        0.3483242980       -7.1466786337  W2        1269            0.0000000000
      3808      1270  TIP3      OH2           -15.2226087858      -16.4140457020        5.1763013663  W2        1270            0.0000000000
      3809      1270  TIP3      H1            -15.5887887858      -17.1797857020        5.6187713663  W2        1270            0.0000000000
      3810      1270  TIP3      H2            -14.3097587858      -16.3850257020        5.4628113663  W2        1270            0.0000000000
      3811      1271  TIP3      OH2           -13.2495287858      -17.0636057020        6.7120113663  W2        1271            0.0000000000
      3812      1271  TIP3      H1            -12.3511687858      -17.3375857020        6.5273513663  W2        1271            0.0000000000
      3813      1271  TIP3      H2            -13.6362187858      -17.8060057020        7.1762713663  W2        1271            0.0000000000
      3814      1272  TIP3      OH2           -14.6249987858       -0.2621257020      -10.6149886337  W2        1272            0.0000000000
      3815      1272  TIP3      H1            -14.8925387858        0.0241642980       -9.7416786337  W2        1272            0.0000000000
      3816      1272  TIP3      H2            -13.8537387858       -0.8082057020      -10.4627386337  W2        1272            0.0000000000
      3817      1273  TIP3      OH2            -4.8282987858      -17.7310757020        6.8942913663  W2        1273            0.0000000000
      3818      1273  TIP3      H1             -4.7515787858      -18.1570057020        7.7480613663  W2        1273            0.0000000000
      3819      1273  TIP3      H2             -3.9346387858      -17.7176057020        6.5516413663  W2        1273            0.0000000000
      3820      1274  TIP3      OH2            -1.6521887858       -1.6584457020        5.5867113663  W2        1274            0.0000000000
      3821      1274  TIP3      H1             -2.4339987858       -1.8446457020        5.0667713663  W2        1274            0.0000000000
      3822      1274  TIP3      H2             -1.7241987858       -0.7290157020        5.8039613663  W2        1274            0.0000000000
      3823      1275  TIP3      OH2            12.7538512142       -7.7720057020       -4.3825686337  W2        1275            0.0000000000
      3824      1275  TIP3      H1             12.8429612142       -6.8281857020       -4.5148586337  W2        1275            0.0000000000
      3825      1275  TIP3      H2             12.1156112142       -8.0473657020       -5.0406286337  W2        1275            0.0000000000
      3826      1276  TIP3      OH2            11.6869812142       -8.5169357020       -0.9637486337  W2        1276            0.0000000000
      3827      1276  TIP3      H1             11.6487312142       -9.1633057020       -0.2587886337  W2        1276            0.0000000000
      3828      1276  TIP3      H2             11.3646312142       -8.9834957020       -1.7348786337  W2        1276            0.0000000000
      3829      1277  TIP3      OH2             4.0554812142       -8.9027257020        0.6292413663  W2        1277            0.0000000000
      3830      1277  TIP3      H1              4.0966912142       -9.5283957020        1.3524813663  W2        1277            0.0000000000
      3831      1277  TIP3      H2              4.7582512142       -8.2788657020        0.8112813663  W2        1277            0.0000000000
      3832      1278  TIP3      OH2            15.3930012142       -5.5778957020       -2.6622386337  W2        1278            0.0000000000
      3833      1278  TIP3      H1             14.9522712142       -6.2982957020       -2.2116786337  W2        1278            0.0000000000
      3834      1278  TIP3      H2             15.3799712142       -4.8571757020       -2.0324686337  W2        1278            0.0000000000
      3835      1279  TIP3      OH2             4.9787912142       -4.4528357020       -0.8358486337  W2        1279            0.0000000000
      3836      1279  TIP3      H1              4.6093112142       -5.2547857020       -1.2054186337  W2        1279            0.0000000000
      3837      1279  TIP3      H2              5.9199012142       -4.6213457020       -0.7895086337  W2        1279            0.0000000000
      3838      1280  TIP3      OH2             1.5888412142      -10.7925757020       -5.4429686337  W2        1280            0.0000000000
      3839      1280  TIP3      H1              1.1411812142       -9.9467057020       -5.4613186337  W2        1280            0.0000000000
      3840      1280  TIP3      H2              1.0279612142      -11.3721557020       -5.9584586337  W2        1280            0.0000000000
      3841      1281  TIP3      OH2             2.2994512142       -8.6306157020       -3.3171686337  W2        1281            0.0000000000
      3842      1281  TIP3      H1              2.5128012142       -9.4004557020       -2.7898686337  W2        1281            0.0000000000
      3843      1281  TIP3      H2              3.0372112142       -8.5409457020       -3.9204086337  W2        1281            0.0000000000
      3844      1282  TIP3      OH2            12.5045512142       -0.4737257020       -2.4501986337  W2        1282            0.0000000000
      3845      1282  TIP3      H1             13.1241912142       -1.1502557020       -2.7232786337  W2        1282            0.0000000000
      3846      1282  TIP3      H2             12.2962912142       -0.6916457020       -1.5417086337  W2        1282            0.0000000000
      3847      1283  TIP3      OH2            10.0764212142       -6.0847957020       -0.5576486337  W2        1283            0.0000000000
      3848      1283  TIP3      H1             10.3802112142       -6.7706557020       -1.1522386337  W2        1283            0.0000000000
      3849      1283  TIP3      H2             10.7978212142       -5.9659257020        0.0601513663  W2        1283            0.0000000000
      3850      1284  TIP3      OH2            18.7394012142      -14.4832657020        0.3029713663  W2        1284            0.0000000000
      3851      1284  TIP3      H1             18.7886212142      -13.8731457020        1.0388813663  W2        1284            0.0000000000
      3852      1284  TIP3      H2             19.1649112142      -14.0221757020       -0.4199186337  W2        1284            0.0000000000
      3853      1285  TIP3      OH2            13.2171212142      -11.6905557020       -0.2301686337  W2        1285            0.0000000000
      3854      1285  TIP3      H1             13.3597112142      -12.6368557020       -0.2100086337  W2        1285            0.0000000000
      3855      1285  TIP3      H2             13.1110212142      -11.4835757020       -1.1586786337  W2        1285            0.0000000000
      3856      1286  TIP3      OH2             6.3719512142      -13.5889157020       -2.9576886337  W2        1286            0.0000000000
      3857      1286  TIP3      H1              6.4150612142      -12.7290657020       -3.3760586337  W2        1286            0.0000000000
      3858      1286  TIP3      H2              5.9143612142      -14.1414457020       -3.5913686337  W2        1286            0.0000000000
      3859      1287  TIP3      OH2            14.0942212142      -13.4583557020       -4.5568586337  W2        1287            0.0000000000
      3860      1287  TIP3      H1             14.7406512142      -13.7870357020       -3.9320986337  W2        1287            0.0000000000
      3861      1287  TIP3      H2             14.6041612142      -12.9404557020       -5.1797186337  W2        1287            0.0000000000
      3862      1288  TIP3      OH2             2.9921012142      -11.1923357020       -2.1955486337  W2        1288            0.0000000000
      3863      1288  TIP3      H1              3.6457612142      -11.7421657020       -1.7635386337  W2        1288            0.0000000000
      3864      1288  TIP3      H2              3.0160312142      -11.4664357020       -3.1123486337  W2        1288            0.0000000000
      3865      1289  TIP3      OH2             8.1485512142       -9.6422057020       -2.9803986337  W2        1289            0.0000000000
      3866      1289  TIP3      H1              8.7646512142      -10.1686657020       -2.4709986337  W2        1289            0.0000000000
      3867      1289  TIP3      H2              7.5624312142      -10.2823357020       -3.3840386337  W2        1289            0.0000000000
      3868      1290  TIP3      OH2            19.1308612142      -13.0053457020        2.5389513663  W2        1290            0.0000000000
      3869      1290  TIP3      H1             18.4423212142      -12.3472757020        2.4436113663  W2        1290            0.0000000000
      3870      1290  TIP3      H2             19.1463212142      -13.2025557020        3.4754913663  W2        1290            0.0000000000
      3871      1291  TIP3      OH2             5.1821412142      -14.6710757020        1.1163913663  W2        1291            0.0000000000
      3872      1291  TIP3      H1              4.9633112142      -14.1410157020        0.3499913663  W2        1291            0.0000000000
      3873      1291  TIP3      H2              4.5142312142      -14.4445257020        1.7635313663  W2        1291            0.0000000000
      3874      1292  TIP3      OH2            12.5511212142       -5.1709657020       -5.3396986337  W2        1292            0.0000000000
      3875      1292  TIP3      H1             12.2556312142       -5.4937357020       -6.1910086337  W2        1292            0.0000000000
      3876      1292  TIP3      H2             12.2269012142       -4.2712957020       -5.2984386337  W2        1292            0.0000000000
      3877      1293  TIP3      OH2             7.7512812142       -6.9955057020        1.4037613663  W2        1293            0.0000000000
      3878      1293  TIP3      H1              7.0111912142       -6.3973557020        1.5072813663  W2        1293            0.0000000000
      3879      1293  TIP3      H2              8.4652312142       -6.4415457020        1.0881213663  W2        1293            0.0000000000
      3880      1294  TIP3      OH2            15.8580612142      -14.1674257020       -2.5762686337  W2        1294            0.0000000000
      3881      1294  TIP3      H1             15.6428612142      -14.9330857020       -2.0436686337  W2        1294            0.0000000000
      3882      1294  TIP3      H2             16.5138012142      -13.6949657020       -2.0634186337  W2        1294            0.0000000000
      3883      1295  TIP3      OH2             4.7758712142      -12.7788957020       -0.9313886337  W2        1295            0.0000000000
      3884      1295  TIP3      H1              5.3895012142      -12.1461357020       -0.5581486337  W2        1295            0.0000000000
      3885      1295  TIP3      H2              5.2879412142      -13.2513957020       -1.5876986337  W2        1295            0.0000000000
      3886      1296  TIP3      OH2             6.1587112142       -5.0312057020        2.1909113663  W2        1296            0.0000000000
      3887      1296  TIP3      H1              6.1534712142       -4.1518557020        1.8128413663  W2        1296            0.0000000000
      3888      1296  TIP3      H2              5.3051212142       -5.1147957020        2.6159013663  W2        1296            0.0000000000
      3889      1297  TIP3      OH2             2.2798012142       -5.3604157020       -7.0271586337  W2        1297            0.0000000000
      3890      1297  TIP3      H1              2.0078912142       -5.1313157020       -7.9158686337  W2        1297            0.0000000000
      3891      1297  TIP3      H2              2.3253712142       -4.5225357020       -6.5666286337  W2        1297            0.0000000000
      3892      1298  TIP3      OH2            15.9047712142       -3.7388257020       -0.3143086337  W2        1298            0.0000000000
      3893      1298  TIP3      H1             14.9631412142       -3.6804357020       -0.1526186337  W2        1298            0.0000000000
      3894      1298  TIP3      H2             16.1813812142       -2.8327757020       -0.4513386337  W2        1298            0.0000000000
      3895      1299  TIP3      OH2            16.2054712142      -15.4522957020        1.1030813663  W2        1299            0.0000000000
      3896      1299  TIP3      H1             15.4693912142      -14.8415857020        1.0652113663  W2        1299            0.0000000000
      3897      1299  TIP3      H2             16.8888712142      -15.0373957020        0.5767213663  W2        1299            0.0000000000
      3898      1300  TIP3      OH2             9.2086112142      -17.3655657020       -1.4311186337  W2        1300            0.0000000000
      3899      1300  TIP3      H1              9.0910312142      -18.3139657020       -1.4852886337  W2        1300            0.0000000000
      3900      1300  TIP3      H2              8.3536212142      -17.0329557020       -1.1580086337  W2        1300            0.0000000000
      3901      1301  TIP3      OH2            14.1568912142       -1.9574757020       -3.6891486337  W2        1301            0.0000000000
      3902      1301  TIP3      H1             14.5821212142       -2.6646857020       -4.1741886337  W2        1301            0.0000000000
      3903      1301  TIP3      H2             14.4738912142       -1.1562057020       -4.1059286337  W2        1301            0.0000000000
      3904      1302  TIP3      OH2            15.3165412142       -4.0566257020       -5.1804886337  W2        1302            0.0000000000
      3905      1302  TIP3      H1             15.0590212142       -4.7466157020       -5.7918986337  W2        1302            0.0000000000
      3906      1302  TIP3      H2             15.3876212142       -4.4995057020       -4.3348986337  W2        1302            0.0000000000
      3907      1303  TIP3      OH2            17.0025612142       -5.4899557020        3.2968613663  W2        1303            0.0000000000
      3908      1303  TIP3      H1             17.1421912142       -6.0817057020        2.5575613663  W2        1303            0.0000000000
      3909      1303  TIP3      H2             17.1698412142       -4.6173657020        2.9407413663  W2        1303            0.0000000000
      3910      1304  TIP3      OH2            11.4751012142       -8.5280057020       -6.9305386337  W2        1304            0.0000000000
      3911      1304  TIP3      H1             10.7636512142       -7.9930357020       -7.2824886337  W2        1304            0.0000000000
      3912      1304  TIP3      H2             12.1660612142       -8.4727957020       -7.5906486337  W2        1304            0.0000000000
      3913      1305  TIP3      OH2            11.5290212142      -10.0705757020       -9.8920386337  W2        1305            0.0000000000
      3914      1305  TIP3      H1             12.2300112142      -10.0478857020       -9.2406386337  W2        1305            0.0000000000
      3915      1305  TIP3      H2             11.8313112142      -10.6986057020      -10.5481086337  W2        1305            0.0000000000
      3916      1306  TIP3      OH2            18.8444912142       -9.1501557020        1.3629013663  W2        1306            0.0000000000
      3917      1306  TIP3      H1             18.1919012142       -8.4555957020        1.4519913663  W2        1306            0.0000000000
      3918      1306  TIP3      H2             19.3095212142       -8.9400657020        0.5530613663  W2        1306            0.0000000000
      3919      1307  TIP3      OH2            14.8808712142       -8.3186757020       -5.9789486337  W2        1307            0.0000000000
      3920      1307  TIP3      H1             14.1489712142       -8.0903057020       -5.4058886337  W2        1307            0.0000000000
      3921      1307  TIP3      H2             15.3280912142       -9.0324057020       -5.5241986337  W2        1307            0.0000000000
      3922      1308  TIP3      OH2            14.7782212142      -10.1444157020        3.0887513663  W2        1308            0.0000000000
      3923      1308  TIP3      H1             14.8581312142       -9.3809757020        3.6606013663  W2        1308            0.0000000000
      3924      1308  TIP3      H2             14.1769912142       -9.8651757020        2.3982613663  W2        1308            0.0000000000
      3925      1309  TIP3      OH2             6.5262412142       -7.6880557020       -4.0964486337  W2        1309            0.0000000000
      3926      1309  TIP3      H1              6.1957612142       -8.0587157020       -4.9147486337  W2        1309            0.0000000000
      3927      1309  TIP3      H2              7.1146512142       -8.3586557020       -3.7496186337  W2        1309            0.0000000000
      3928      1310  TIP3      OH2             7.8929912142       -4.2599957020       -1.4152286337  W2        1310            0.0000000000
      3929      1310  TIP3      H1              7.7981212142       -4.8386857020       -2.1717686337  W2        1310            0.0000000000
      3930      1310  TIP3      H2              8.6223512142       -4.6314257020       -0.9189486337  W2        1310            0.0000000000
      3931      1311  TIP3      OH2             6.8927912142       -8.9194957020       -0.4629486337  W2        1311            0.0000000000
      3932      1311  TIP3      H1              7.4580412142       -8.7980757020       -1.2258286337  W2        1311            0.0000000000
      3933      1311  TIP3      H2              7.2116812142       -8.2819957020        0.1759013663  W2        1311            0.0000000000
      3934      1312  TIP3      OH2            13.2020112142       -3.4163057020        0.2711013663  W2        1312            0.0000000000
      3935      1312  TIP3      H1             12.9616712142       -2.7539957020        0.9190213663  W2        1312            0.0000000000
      3936      1312  TIP3      H2             13.0038312142       -4.2507857020        0.6960613663  W2        1312            0.0000000000
      3937      1313  TIP3      OH2             7.7728612142       -4.5202257020        4.2542413663  W2        1313            0.0000000000
      3938      1313  TIP3      H1              7.4616112142       -3.7379057020        4.7095613663  W2        1313            0.0000000000
      3939      1313  TIP3      H2              7.1228812142       -4.6733157020        3.5684413663  W2        1313            0.0000000000
      3940      1314  TIP3      OH2            13.7518212142       -9.1563857020       -8.2938286337  W2        1314            0.0000000000
      3941      1314  TIP3      H1             14.3313712142       -9.0063557020       -7.5469386337  W2        1314            0.0000000000
      3942      1314  TIP3      H2             14.1658212142       -8.6856457020       -9.0171886337  W2        1314            0.0000000000
      3943      1315  TIP3      OH2             4.6928512142       -8.3221157020        3.4828113663  W2        1315            0.0000000000
      3944      1315  TIP3      H1              4.7631712142       -7.6714357020        4.1813113663  W2        1315            0.0000000000
      3945      1315  TIP3      H2              3.8020712142       -8.2193657020        3.1479013663  W2        1315            0.0000000000
      3946      1316  TIP3      OH2            11.4783112142       -2.4195357020       -4.8585186337  W2        1316            0.0000000000
      3947      1316  TIP3      H1             11.9520712142       -2.1239057020       -4.0810986337  W2        1316            0.0000000000
      3948      1316  TIP3      H2             10.9152412142       -1.6813757020       -5.0915586337  W2        1316            0.0000000000
      3949      1317  TIP3      OH2             6.0124512142       -2.4487257020        5.0176213663  W2        1317            0.0000000000
      3950      1317  TIP3      H1              6.0199812142       -2.5847557020        4.0701713663  W2        1317            0.0000000000
      3951      1317  TIP3      H2              5.0964912142       -2.5659157020        5.2696213663  W2        1317            0.0000000000
      3952      1318  TIP3      OH2            17.4506612142      -17.4063457020       -8.4808586337  W2        1318            0.0000000000
      3953      1318  TIP3      H1             16.5507312142      -17.2674457020       -8.1857986337  W2        1318            0.0000000000
      3954      1318  TIP3      H2             17.7025012142      -16.5748857020       -8.8826886337  W2        1318            0.0000000000
      3955      1319  TIP3      OH2             5.5165112142       -8.6186257020       -6.5071686337  W2        1319            0.0000000000
      3956      1319  TIP3      H1              5.2246412142       -7.8504557020       -6.9980386337  W2        1319            0.0000000000
      3957      1319  TIP3      H2              4.8420312142       -9.2780057020       -6.6700286337  W2        1319            0.0000000000
      3958      1320  TIP3      OH2            18.6398012142       -3.0401057020      -10.1044686337  W2        1320            0.0000000000
      3959      1320  TIP3      H1             18.7131512142       -2.1010857020       -9.9339386337  W2        1320            0.0000000000
      3960      1320  TIP3      H2             19.5453112142       -3.3452457020      -10.1607386337  W2        1320            0.0000000000
      3961      1321  TIP3      OH2             1.6095212142       -6.2557057020        2.3078113663  W2        1321            0.0000000000
      3962      1321  TIP3      H1              1.1083612142       -6.2837657020        1.4927813663  W2        1321            0.0000000000
      3963      1321  TIP3      H2              1.6148912142       -7.1613857020        2.6175413663  W2        1321            0.0000000000
      3964      1322  TIP3      OH2             1.3597912142       -3.4753257020       -0.8081686337  W2        1322            0.0000000000
      3965      1322  TIP3      H1              2.3058512142       -3.6196257020       -0.8272186337  W2        1322            0.0000000000
      3966      1322  TIP3      H2              1.2474212142       -2.6910457020       -0.2710486337  W2        1322            0.0000000000
      3967      1323  TIP3      OH2            19.5576412142       -2.8093557020        4.8742013663  W2        1323            0.0000000000
      3968      1323  TIP3      H1             19.5083212142       -3.7645457020        4.8369613663  W2        1323            0.0000000000
      3969      1323  TIP3      H2             18.7308712142       -2.5418257020        5.2755813663  W2        1323            0.0000000000
      3970      1324  TIP3      OH2            10.5360412142       -3.2354357020        3.7503413663  W2        1324            0.0000000000
      3971      1324  TIP3      H1             10.6235012142       -2.4089757020        4.2252513663  W2        1324            0.0000000000
      3972      1324  TIP3      H2              9.6725512142       -3.5650557020        3.9992713663  W2        1324            0.0000000000
      3973      1325  TIP3      OH2            10.9506212142        0.5369342980       -6.4435986337  W2        1325            0.0000000000
      3974      1325  TIP3      H1             10.8752212142        0.4156542980       -7.3900786337  W2        1325            0.0000000000
      3975      1325  TIP3      H2             10.9834912142        1.4862042980       -6.3251386337  W2        1325            0.0000000000
      3976      1326  TIP3      OH2             4.6040012142       -0.6743657020       -4.6626986337  W2        1326            0.0000000000
      3977      1326  TIP3      H1              4.7560412142       -1.0223257020       -3.7840486337  W2        1326            0.0000000000
      3978      1326  TIP3      H2              3.7530412142       -1.0306357020       -4.9179786337  W2        1326            0.0000000000
      3979      1327  TIP3      OH2            14.0522212142       -0.3090457020       -9.4413586337  W2        1327            0.0000000000
      3980      1327  TIP3      H1             14.4270612142       -1.0534357020       -9.9120986337  W2        1327            0.0000000000
      3981      1327  TIP3      H2             14.0565912142       -0.5789857020       -8.5230286337  W2        1327            0.0000000000
      3982      1328  TIP3      OH2            13.7210312142       -0.3833357020       -6.6921386337  W2        1328            0.0000000000
      3983      1328  TIP3      H1             12.7860112142       -0.2831457020       -6.5134386337  W2        1328            0.0000000000
      3984      1328  TIP3      H2             14.0012212142       -1.0927357020       -6.1138186337  W2        1328            0.0000000000
      3985      1329  TIP3      OH2            16.7096212142      -11.3161057020        5.3544213663  W2        1329            0.0000000000
      3986      1329  TIP3      H1             16.3023012142      -10.8355457020        4.6337513663  W2        1329            0.0000000000
      3987      1329  TIP3      H2             16.7501912142      -12.2215057020        5.0465013663  W2        1329            0.0000000000
      3988      1330  TIP3      OH2             3.8585712142       -4.9321657020        3.3510913663  W2        1330            0.0000000000
      3989      1330  TIP3      H1              4.0747012142       -5.2936057020        4.2106713663  W2        1330            0.0000000000
      3990      1330  TIP3      H2              3.0030412142       -5.3067857020        3.1414413663  W2        1330            0.0000000000
      3991      1331  TIP3      OH2             6.4773712142      -16.4621157020       -0.6534886337  W2        1331            0.0000000000
      3992      1331  TIP3      H1              5.6157412142      -16.5492957020       -1.0611986337  W2        1331            0.0000000000
      3993      1331  TIP3      H2              6.4549412142      -15.6061057020       -0.2257286337  W2        1331            0.0000000000
      3994      1332  TIP3      OH2            11.1401512142      -16.7400757020        2.7212113663  W2        1332            0.0000000000
      3995      1332  TIP3      H1             11.5604612142      -17.1553657020        3.4742713663  W2        1332            0.0000000000
      3996      1332  TIP3      H2             10.2071112142      -16.9187457020        2.8384113663  W2        1332            0.0000000000
      3997      1333  TIP3      OH2            14.4666412142      -12.9845557020        3.5746613663  W2        1333            0.0000000000
      3998      1333  TIP3      H1             13.9525912142      -13.1103357020        4.3722613663  W2        1333            0.0000000000
      3999      1333  TIP3      H2             14.3111112142      -12.0722457020        3.3302813663  W2        1333            0.0000000000
      4000      1334  TIP3      OH2            15.2291312142       -8.1235557020      -10.6640386337  W2        1334            0.0000000000
      4001      1334  TIP3      H1             15.2712112142       -8.3461657020      -11.5940386337  W2        1334            0.0000000000
      4002      1334  TIP3      H2             16.0783412142       -7.7248457020      -10.4740486337  W2        1334            0.0000000000
      4003      1335  TIP3      OH2            10.8018812142      -14.2477357020       -9.9937086337  W2        1335            0.0000000000
      4004      1335  TIP3      H1             10.5483612142      -14.2285757020       -9.0708986337  W2        1335            0.0000000000
      4005      1335  TIP3      H2             10.5450912142      -15.1191957020      -10.2950886337  W2        1335            0.0000000000
      4006      1336  TIP3      OH2             6.5683812142      -11.4966657020        0.4415313663  W2        1336            0.0000000000
      4007      1336  TIP3      H1              5.9265912142      -11.5369357020        1.1505413663  W2        1336            0.0000000000
      4008      1336  TIP3      H2              6.6055812142      -10.5701957020        0.2038313663  W2        1336            0.0000000000
      4009      1337  TIP3      OH2             6.5652912142      -11.2756557020       -4.6464686337  W2        1337            0.0000000000
      4010      1337  TIP3      H1              5.6725812142      -11.6160457020       -4.7050886337  W2        1337            0.0000000000
      4011      1337  TIP3      H2              7.0159512142      -11.6525657020       -5.4021486337  W2        1337            0.0000000000
      4012      1338  TIP3      OH2            12.1008412142      -10.8596257020       -5.8293886337  W2        1338            0.0000000000
      4013      1338  TIP3      H1             11.6918712142      -10.0447657020       -6.1209086337  W2        1338            0.0000000000
      4014      1338  TIP3      H2             12.8214612142      -10.9996157020       -6.4436786337  W2        1338            0.0000000000
      4015      1339  TIP3      OH2            11.2030012142      -10.6839857020        5.6586813663  W2        1339            0.0000000000
      4016      1339  TIP3      H1             10.6403812142      -11.3888257020        5.9794613663  W2        1339            0.0000000000
      4017      1339  TIP3      H2             12.0293412142      -10.8047957020        6.1264413663  W2        1339            0.0000000000
      4018      1340  TIP3      OH2            13.1056112142      -11.4135857020       -3.0154186337  W2        1340            0.0000000000
      4019      1340  TIP3      H1             12.9100612142      -10.8079057020       -3.7303586337  W2        1340            0.0000000000
      4020      1340  TIP3      H2             13.2868712142      -12.2470657020       -3.4497886337  W2        1340            0.0000000000
      4021      1341  TIP3      OH2             4.3184312142      -11.1763157020        2.3087313663  W2        1341            0.0000000000
      4022      1341  TIP3      H1              4.2803712142      -10.7761557020        3.1774413663  W2        1341            0.0000000000
      4023      1341  TIP3      H2              3.8275412142      -11.9930757020        2.3990213663  W2        1341            0.0000000000
      4024      1342  TIP3      OH2             7.6841712142      -13.8020857020      -10.8926686337  W2        1342            0.0000000000
      4025      1342  TIP3      H1              7.2532412142      -14.2470757020      -10.1629286337  W2        1342            0.0000000000
      4026      1342  TIP3      H2              6.9660412142      -13.4304557020      -11.4049186337  W2        1342            0.0000000000
      4027      1343  TIP3      OH2             0.9265112142      -14.0601357020       -3.8407986337  W2        1343            0.0000000000
      4028      1343  TIP3      H1              1.5572812142      -14.0889257020       -3.1214086337  W2        1343            0.0000000000
      4029      1343  TIP3      H2              1.3759412142      -14.4852657020       -4.5712086337  W2        1343            0.0000000000
      4030      1344  TIP3      OH2             2.2007212142      -13.3139357020       -8.4167586337  W2        1344            0.0000000000
      4031      1344  TIP3      H1              2.6748912142      -12.7229457020       -9.0016686337  W2        1344            0.0000000000
      4032      1344  TIP3      H2              1.4833612142      -12.7836457020       -8.0697486337  W2        1344            0.0000000000
      4033      1345  TIP3      OH2            12.3695312142       -9.7754557020        1.6558213663  W2        1345            0.0000000000
      4034      1345  TIP3      H1             12.6930112142      -10.4064857020        1.0128713663  W2        1345            0.0000000000
      4035      1345  TIP3      H2             11.9294612142      -10.3102357020        2.3165613663  W2        1345            0.0000000000
      4036      1346  TIP3      OH2             9.1468212142      -13.8479057020       -3.5600586337  W2        1346            0.0000000000
      4037      1346  TIP3      H1              8.2359312142      -13.7912257020       -3.2714586337  W2        1346            0.0000000000
      4038      1346  TIP3      H2              9.6521112142      -13.9083557020       -2.7493386337  W2        1346            0.0000000000
      4039      1347  TIP3      OH2             3.9751612142      -12.2192757020       -4.7332986337  W2        1347            0.0000000000
      4040      1347  TIP3      H1              3.0859612142      -12.1197257020       -5.0733386337  W2        1347            0.0000000000
      4041      1347  TIP3      H2              4.2716512142      -13.0609757020       -5.0795086337  W2        1347            0.0000000000
      4042      1348  TIP3      OH2             7.6283412142      -12.2190157020       -7.0768386337  W2        1348            0.0000000000
      4043      1348  TIP3      H1              8.5598912142      -12.0900157020       -6.8985286337  W2        1348            0.0000000000
      4044      1348  TIP3      H2              7.4133712142      -11.5495857020       -7.7263686337  W2        1348            0.0000000000
      4045      1349  TIP3      OH2            13.5520112142      -14.6132757020       -0.2958786337  W2        1349            0.0000000000
      4046      1349  TIP3      H1             12.8751712142      -14.4819657020        0.3680913663  W2        1349            0.0000000000
      4047      1349  TIP3      H2             13.0665012142      -14.7683257020       -1.1061086337  W2        1349            0.0000000000
      4048      1350  TIP3      OH2             6.3023612142      -11.0247957020       -9.5102286337  W2        1350            0.0000000000
      4049      1350  TIP3      H1              5.7598712142      -11.4044157020      -10.2014686337  W2        1350            0.0000000000
      4050      1350  TIP3      H2              7.1358512142      -10.8303257020       -9.9388186337  W2        1350            0.0000000000
      4051      1351  TIP3      OH2            16.8395212142        1.0582642980        5.9808813663  W2        1351            0.0000000000
      4052      1351  TIP3      H1             17.0393912142        1.4824542980        5.1464113663  W2        1351            0.0000000000
      4053      1351  TIP3      H2             17.4948912142        1.4020842980        6.5879213663  W2        1351            0.0000000000
      4054      1352  TIP3      OH2             4.4375012142       -6.4676057020        5.5889313663  W2        1352            0.0000000000
      4055      1352  TIP3      H1              5.1697412142       -6.2130157020        6.1503813663  W2        1352            0.0000000000
      4056      1352  TIP3      H2              3.6573712142       -6.2630657020        6.1044713663  W2        1352            0.0000000000
      4057      1353  TIP3      OH2            10.4667912142      -11.0606057020       -1.6730986337  W2        1353            0.0000000000
      4058      1353  TIP3      H1             11.0311312142      -11.6069457020       -2.2201386337  W2        1353            0.0000000000
      4059      1353  TIP3      H2             10.3191312142      -11.5824157020       -0.8843386337  W2        1353            0.0000000000
      4060      1354  TIP3      OH2             5.4687612142      -14.9239957020       -5.2546186337  W2        1354            0.0000000000
      4061      1354  TIP3      H1              5.1517112142      -15.8264657020       -5.2900786337  W2        1354            0.0000000000
      4062      1354  TIP3      H2              6.2501712142      -14.9222557020       -5.8074586337  W2        1354            0.0000000000
      4063      1355  TIP3      OH2             9.0933812142      -12.6719957020        0.7409413663  W2        1355            0.0000000000
      4064      1355  TIP3      H1              8.2579112142      -12.2180457020        0.8511813663  W2        1355            0.0000000000
      4065      1355  TIP3      H2              9.6174412142      -12.3961457020        1.4929313663  W2        1355            0.0000000000
      4066      1356  TIP3      OH2             9.6376412142       -6.4592257020       -7.5744186337  W2        1356            0.0000000000
      4067      1356  TIP3      H1              8.8927412142       -6.9666957020       -7.8966286337  W2        1356            0.0000000000
      4068      1356  TIP3      H2              9.5033612142       -6.4104257020       -6.6279386337  W2        1356            0.0000000000
      4069      1357  TIP3      OH2            16.7875312142       -7.3264057020        1.2123413663  W2        1357            0.0000000000
      4070      1357  TIP3      H1             17.4294112142       -6.8697757020        0.6685613663  W2        1357            0.0000000000
      4071      1357  TIP3      H2             15.9572212142       -7.2131657020        0.7497513663  W2        1357            0.0000000000
      4072      1358  TIP3      OH2            13.5353212142      -13.6452357020       -9.3751586337  W2        1358            0.0000000000
      4073      1358  TIP3      H1             12.5967412142      -13.5336757020       -9.5262786337  W2        1358            0.0000000000
      4074      1358  TIP3      H2             13.8325312142      -12.7885457020       -9.0685886337  W2        1358            0.0000000000
      4075      1359  TIP3      OH2            11.1568512142       -6.2748957020        3.6624913663  W2        1359            0.0000000000
      4076      1359  TIP3      H1             10.8114612142       -6.6566557020        4.4694513663  W2        1359            0.0000000000
      4077      1359  TIP3      H2             10.9568612142       -5.3415357020        3.7337813663  W2        1359            0.0000000000
      4078      1360  TIP3      OH2            14.2536712142      -11.7779657020       -7.7144186337  W2        1360            0.0000000000
      4079      1360  TIP3      H1             15.1455712142      -11.9154657020       -7.3952986337  W2        1360            0.0000000000
      4080      1360  TIP3      H2             14.3100312142      -10.9873557020       -8.2510686337  W2        1360            0.0000000000
      4081      1361  TIP3      OH2             4.7624712142       -7.1642257020       -1.8046286337  W2        1361            0.0000000000
      4082      1361  TIP3      H1              5.5071912142       -7.1666557020       -2.4059786337  W2        1361            0.0000000000
      4083      1361  TIP3      H2              4.8401312142       -7.9878457020       -1.3231186337  W2        1361            0.0000000000
      4084      1362  TIP3      OH2            11.7630512142       -5.0007957020       -8.5489586337  W2        1362            0.0000000000
      4085      1362  TIP3      H1             11.4678912142       -4.1740057020       -8.1674786337  W2        1362            0.0000000000
      4086      1362  TIP3      H2             11.0600512142       -5.6201057020       -8.3528186337  W2        1362            0.0000000000
      4087      1363  TIP3      OH2             1.7704412142       -8.7035357020        3.5102213663  W2        1363            0.0000000000
      4088      1363  TIP3      H1              1.9933012142       -9.1215757020        4.3419713663  W2        1363            0.0000000000
      4089      1363  TIP3      H2              1.1684512142       -9.3160357020        3.0875013663  W2        1363            0.0000000000
      4090      1364  TIP3      OH2             8.7869312142       -9.1865457020        5.7231913663  W2        1364            0.0000000000
      4091      1364  TIP3      H1              8.4910112142       -9.3522457020        4.8281013663  W2        1364            0.0000000000
      4092      1364  TIP3      H2              9.7184512142       -9.4065157020        5.7125813663  W2        1364            0.0000000000
      4093      1365  TIP3      OH2            13.4072112142       -3.8133457020        3.6129913663  W2        1365            0.0000000000
      4094      1365  TIP3      H1             12.5066412142       -3.6300857020        3.3453813663  W2        1365            0.0000000000
      4095      1365  TIP3      H2             13.4413212142       -3.5544157020        4.5338713663  W2        1365            0.0000000000
      4096      1366  TIP3      OH2            19.1385412142      -11.5685557020       -8.0197486337  W2        1366            0.0000000000
      4097      1366  TIP3      H1             18.5841712142      -11.9647557020       -8.6919986337  W2        1366            0.0000000000
      4098      1366  TIP3      H2             19.2389012142      -10.6580357020       -8.2974186337  W2        1366            0.0000000000
      4099      1367  TIP3      OH2            19.1017412142       -5.7683857020        4.8174013663  W2        1367            0.0000000000
      4100      1367  TIP3      H1             18.2505912142       -5.5300057020        4.4500413663  W2        1367            0.0000000000
      4101      1367  TIP3      H2             19.6920812142       -5.7850657020        4.0641113663  W2        1367            0.0000000000
      4102      1368  TIP3      OH2            17.4337112142       -2.7825157020       -7.5545386337  W2        1368            0.0000000000
      4103      1368  TIP3      H1             17.0608212142       -3.6081357020       -7.2454786337  W2        1368            0.0000000000
      4104      1368  TIP3      H2             17.7110612142       -2.9655757020       -8.4521986337  W2        1368            0.0000000000
      4105      1369  TIP3      OH2            14.5941012142       -7.9745657020       -0.5333486337  W2        1369            0.0000000000
      4106      1369  TIP3      H1             13.6657912142       -8.2063757020       -0.5604186337  W2        1369            0.0000000000
      4107      1369  TIP3      H2             15.0452112142       -8.7515857020       -0.8634686337  W2        1369            0.0000000000
      4108      1370  TIP3      OH2             7.1374112142       -3.6464057020       -4.4004786337  W2        1370            0.0000000000
      4109      1370  TIP3      H1              7.6646312142       -2.8729657020       -4.6005986337  W2        1370            0.0000000000
      4110      1370  TIP3      H2              6.2572612142       -3.4214857020       -4.7020786337  W2        1370            0.0000000000
      4111      1371  TIP3      OH2             2.8921812142       -8.7839957020       -9.8132386337  W2        1371            0.0000000000
      4112      1371  TIP3      H1              3.5081712142       -8.1572757020       -9.4337586337  W2        1371            0.0000000000
      4113      1371  TIP3      H2              2.0304412142       -8.4680157020       -9.5415886337  W2        1371            0.0000000000
      4114      1372  TIP3      OH2             8.5646412142       -5.9834157020       -4.8240486337  W2        1372            0.0000000000
      4115      1372  TIP3      H1              8.3236412142       -5.0579757020       -4.7825186337  W2        1372            0.0000000000
      4116      1372  TIP3      H2              7.8240012142       -6.4422857020       -4.4276586337  W2        1372            0.0000000000
      4117      1373  TIP3      OH2             9.0793012142       -1.8340557020        1.4910613663  W2        1373            0.0000000000
      4118      1373  TIP3      H1              9.4417712142       -0.9794957020        1.2575013663  W2        1373            0.0000000000
      4119      1373  TIP3      H2              9.6108212142       -2.1258957020        2.2316913663  W2        1373            0.0000000000
      4120      1374  TIP3      OH2             7.2477212142       -0.9616557020       -5.2788286337  W2        1374            0.0000000000
      4121      1374  TIP3      H1              6.2977712142       -0.8559157020       -5.2274986337  W2        1374            0.0000000000
      4122      1374  TIP3      H2              7.5995312142       -0.1409157020       -4.9340786337  W2        1374            0.0000000000
      4123      1375  TIP3      OH2            12.6233812142       -5.7349857020        1.1916213663  W2        1375            0.0000000000
      4124      1375  TIP3      H1             12.1975112142       -5.9628157020        2.0180213663  W2        1375            0.0000000000
      4125      1375  TIP3      H2             13.2039612142       -6.4738057020        1.0091513663  W2        1375            0.0000000000
      4126      1376  TIP3      OH2            14.8262712142       -4.8059357020       -9.7344786337  W2        1376            0.0000000000
      4127      1376  TIP3      H1             15.1795812142       -5.1859557020       -8.9301286337  W2        1376            0.0000000000
      4128      1376  TIP3      H2             13.8776212142       -4.8994557020       -9.6475486337  W2        1376            0.0000000000
      4129      1377  TIP3      OH2            15.2818012142       -1.1830357020        3.6611013663  W2        1377            0.0000000000
      4130      1377  TIP3      H1             14.6801212142       -1.7387457020        3.1657313663  W2        1377            0.0000000000
      4131      1377  TIP3      H2             15.5631712142       -0.5160557020        3.0348413663  W2        1377            0.0000000000
      4132      1378  TIP3      OH2            19.3297112142       -0.3266857020       -9.5334586337  W2        1378            0.0000000000
      4133      1378  TIP3      H1             20.0735012142        0.2593642980       -9.6732986337  W2        1378            0.0000000000
      4134      1378  TIP3      H2             18.6355212142        0.2418942980       -9.2002186337  W2        1378            0.0000000000
      4135      1379  TIP3      OH2             3.4043912142      -13.9502657020        3.0683613663  W2        1379            0.0000000000
      4136      1379  TIP3      H1              2.5116212142      -13.6117257020        3.0007613663  W2        1379            0.0000000000
      4137      1379  TIP3      H2              3.3056712142      -14.8056557020        3.4864413663  W2        1379            0.0000000000
      4138      1380  TIP3      OH2            15.6922012142       -6.1337357020       -7.5076886337  W2        1380            0.0000000000
      4139      1380  TIP3      H1             15.4149612142       -6.8618057020       -6.9515786337  W2        1380            0.0000000000
      4140      1380  TIP3      H2             16.6195012142       -6.0145357020       -7.3024286337  W2        1380            0.0000000000
      4141      1381  TIP3      OH2             3.0555912142       -2.1458257020        1.5033013663  W2        1381            0.0000000000
      4142      1381  TIP3      H1              3.2726212142       -3.0775857020        1.4722713663  W2        1381            0.0000000000
      4143      1381  TIP3      H2              3.3019412142       -1.8713257020        2.3865813663  W2        1381            0.0000000000
      4144      1382  TIP3      OH2             8.9170512142       -3.6943257020      -11.2874786337  W2        1382            0.0000000000
      4145      1382  TIP3      H1              9.1560312142       -4.4425157020      -11.8345886337  W2        1382            0.0000000000
      4146      1382  TIP3      H2              8.6481812142       -4.0821557020      -10.4546986337  W2        1382            0.0000000000
      4147      1383  TIP3      OH2             7.8541112142       -4.1239457020       -8.8312186337  W2        1383            0.0000000000
      4148      1383  TIP3      H1              8.0009112142       -4.6439657020       -8.0411286337  W2        1383            0.0000000000
      4149      1383  TIP3      H2              7.8512812142       -3.2171857020       -8.5246286337  W2        1383            0.0000000000
      4150      1384  TIP3      OH2             4.3072212142       -6.8716157020       -8.3206786337  W2        1384            0.0000000000
      4151      1384  TIP3      H1              3.6211512142       -6.5193657020       -7.7537086337  W2        1384            0.0000000000
      4152      1384  TIP3      H2              4.8300112142       -6.1086557020       -8.5672486337  W2        1384            0.0000000000
      4153      1385  TIP3      OH2            12.1387312142      -14.2092357020        1.9582213663  W2        1385            0.0000000000
      4154      1385  TIP3      H1             12.8375212142      -14.1353657020        2.6081913663  W2        1385            0.0000000000
      4155      1385  TIP3      H2             11.7578712142      -15.0737357020        2.1125113663  W2        1385            0.0000000000
      4156      1386  TIP3      OH2            12.9232212142      -14.5570657020       -6.9445486337  W2        1386            0.0000000000
      4157      1386  TIP3      H1             13.1430512142      -14.0855257020       -7.7480086337  W2        1386            0.0000000000
      4158      1386  TIP3      H2             13.4816212142      -14.1628057020       -6.2744886337  W2        1386            0.0000000000
      4159      1387  TIP3      OH2            10.5918312142       -2.4265857020       -8.0817986337  W2        1387            0.0000000000
      4160      1387  TIP3      H1              9.7754412142       -1.9296157020       -8.0293686337  W2        1387            0.0000000000
      4161      1387  TIP3      H2             11.1214612142       -1.9512357020       -8.7219186337  W2        1387            0.0000000000
      4162      1388  TIP3      OH2            10.1232112142      -12.8291857020       -6.1097086337  W2        1388            0.0000000000
      4163      1388  TIP3      H1             10.9354712142      -12.3248657020       -6.0635386337  W2        1388            0.0000000000
      4164      1388  TIP3      H2              9.8785112142      -12.9742157020       -5.1957486337  W2        1388            0.0000000000
      4165      1389  TIP3      OH2            10.6588512142      -11.8429157020        3.0749513663  W2        1389            0.0000000000
      4166      1389  TIP3      H1             10.7778812142      -11.2693757020        3.8319913663  W2        1389            0.0000000000
      4167      1389  TIP3      H2             11.3143112142      -12.5309757020        3.1897313663  W2        1389            0.0000000000
      4168      1390  TIP3      OH2            11.0068812142      -15.7478857020       -5.1715986337  W2        1390            0.0000000000
      4169      1390  TIP3      H1             10.6602312142      -15.1308257020       -4.5271686337  W2        1390            0.0000000000
      4170      1390  TIP3      H2             11.6655712142      -15.2473157020       -5.6530486337  W2        1390            0.0000000000
      4171      1391  TIP3      OH2             7.9301412142       -1.3828657020       -8.1001086337  W2        1391            0.0000000000
      4172      1391  TIP3      H1              8.0910112142       -0.5831157020       -8.6008486337  W2        1391            0.0000000000
      4173      1391  TIP3      H2              7.7329212142       -1.0762657020       -7.2150486337  W2        1391            0.0000000000
      4174      1392  TIP3      OH2             6.6645812142      -14.6849457020       -8.4843486337  W2        1392            0.0000000000
      4175      1392  TIP3      H1              6.5810612142      -13.7966357020       -8.1377086337  W2        1392            0.0000000000
      4176      1392  TIP3      H2              7.5546112142      -14.9502757020       -8.2526686337  W2        1392            0.0000000000
      4177      1393  TIP3      OH2            16.8634312142      -13.9358857020        3.9099213663  W2        1393            0.0000000000
      4178      1393  TIP3      H1             15.9470112142      -13.6737157020        3.8222913663  W2        1393            0.0000000000
      4179      1393  TIP3      H2             17.1989312142      -13.9389857020        3.0134513663  W2        1393            0.0000000000
      4180      1394  TIP3      OH2            15.4655312142      -10.1857857020       -1.9943486337  W2        1394            0.0000000000
      4181      1394  TIP3      H1             14.6679712142      -10.6007657020       -2.3228486337  W2        1394            0.0000000000
      4182      1394  TIP3      H2             15.9106412142      -10.8764157020       -1.5032986337  W2        1394            0.0000000000
      4183      1395  TIP3      OH2             4.9231112142       -4.2577257020       -9.4238986337  W2        1395            0.0000000000
      4184      1395  TIP3      H1              5.5152612142       -3.5582457020       -9.1476586337  W2        1395            0.0000000000
      4185      1395  TIP3      H2              5.3824112142       -4.6907757020      -10.1434386337  W2        1395            0.0000000000
      4186      1396  TIP3      OH2             3.2390312142      -11.5934257020      -10.3079586337  W2        1396            0.0000000000
      4187      1396  TIP3      H1              3.1942912142      -10.6541157020      -10.1292586337  W2        1396            0.0000000000
      4188      1396  TIP3      H2              2.3513512142      -11.8289357020      -10.5777486337  W2        1396            0.0000000000
      4189      1397  TIP3      OH2            16.5519912142       -0.9295357020       -0.3719986337  W2        1397            0.0000000000
      4190      1397  TIP3      H1             16.3964212142       -0.2510957020       -1.0290686337  W2        1397            0.0000000000
      4191      1397  TIP3      H2             17.4846312142       -0.8576057020       -0.1689386337  W2        1397            0.0000000000
      4192      1398  TIP3      OH2             4.0472312142      -16.8117657020       -1.6348586337  W2        1398            0.0000000000
      4193      1398  TIP3      H1              3.8182112142      -16.7525157020       -2.5623586337  W2        1398            0.0000000000
      4194      1398  TIP3      H2              3.6045712142      -17.6032157020       -1.3284486337  W2        1398            0.0000000000
      4195      1399  TIP3      OH2             2.9775612142       -2.8710557020       -5.4742786337  W2        1399            0.0000000000
      4196      1399  TIP3      H1              2.1454212142       -2.3987857020       -5.4471386337  W2        1399            0.0000000000
      4197      1399  TIP3      H2              3.5233912142       -2.3612957020       -6.0729686337  W2        1399            0.0000000000
      4198      1400  TIP3      OH2             2.2659312142       -0.2586857020        5.8555213663  W2        1400            0.0000000000
      4199      1400  TIP3      H1              2.8061512142       -0.4752857020        6.6154413663  W2        1400            0.0000000000
      4200      1400  TIP3      H2              1.7847312142       -1.0640857020        5.6657713663  W2        1400            0.0000000000
      4201      1401  TIP3      OH2             6.8632712142       -1.3392457020        7.4759413663  W2        1401            0.0000000000
      4202      1401  TIP3      H1              7.6309912142       -1.7981657020        7.8168613663  W2        1401            0.0000000000
      4203      1401  TIP3      H2              6.8418912142       -1.5652657020        6.5460613663  W2        1401            0.0000000000
      4204      1402  TIP3      OH2            10.9552312142       -1.8311857020      -11.1488786337  W2        1402            0.0000000000
      4205      1402  TIP3      H1             10.3113312142       -2.4623257020      -10.8275086337  W2        1402            0.0000000000
      4206      1402  TIP3      H2             11.7170612142       -2.3623857020      -11.3805286337  W2        1402            0.0000000000
      4207      1403  TIP3      OH2            13.4401412142       -2.9591357020        6.2050913663  W2        1403            0.0000000000
      4208      1403  TIP3      H1             13.0890912142       -3.8158357020        6.4481313663  W2        1403            0.0000000000
      4209      1403  TIP3      H2             14.1664612142       -2.8164657020        6.8119913663  W2        1403            0.0000000000
      4210      1404  TIP3      OH2            15.5595212142       -2.0141957020      -10.9150786337  W2        1404            0.0000000000
      4211      1404  TIP3      H1             15.8425612142       -2.8086757020      -10.4623886337  W2        1404            0.0000000000
      4212      1404  TIP3      H2             16.2993112142       -1.7810957020      -11.4759686337  W2        1404            0.0000000000
      4213      1405  TIP3      OH2             2.1728812142       -6.4482757020        6.8099513663  W2        1405            0.0000000000
      4214      1405  TIP3      H1              2.3169312142       -7.3502057020        6.5236213663  W2        1405            0.0000000000
      4215      1405  TIP3      H2              1.4006212142       -6.1620657020        6.3221813663  W2        1405            0.0000000000
      4216      1406  TIP3      OH2             6.5142512142       -6.1047057020      -11.0575886337  W2        1406            0.0000000000
      4217      1406  TIP3      H1              6.5786612142       -6.8987457020      -10.5269486337  W2        1406            0.0000000000
      4218      1406  TIP3      H2              7.1671712142       -6.2234257020      -11.7473886337  W2        1406            0.0000000000
      4219      1407  TIP3      OH2             8.8284912142       -6.4784657020        6.2425913663  W2        1407            0.0000000000
      4220      1407  TIP3      H1              8.4998712142       -6.2076557020        5.3853313663  W2        1407            0.0000000000
      4221      1407  TIP3      H2              8.9803112142       -7.4194857020        6.1550913663  W2        1407            0.0000000000
      4222      1408  TIP3      OH2            11.8665912142       -5.0575357020      -11.3217886337  W2        1408            0.0000000000
      4223      1408  TIP3      H1             11.5980012142       -4.8773257020      -10.4208986337  W2        1408            0.0000000000
      4224      1408  TIP3      H2             11.6601512142       -5.9829157020      -11.4532086337  W2        1408            0.0000000000
      4225      1409  TIP3      OH2            14.5630112142       -6.5627357020        3.6258213663  W2        1409            0.0000000000
      4226      1409  TIP3      H1             15.3084912142       -5.9743657020        3.5062213663  W2        1409            0.0000000000
      4227      1409  TIP3      H2             13.8056912142       -5.9807657020        3.6891313663  W2        1409            0.0000000000
      4228      1410  TIP3      OH2             3.0055312142       -9.2479457020        6.2298813663  W2        1410            0.0000000000
      4229      1410  TIP3      H1              3.4136512142      -10.1052857020        6.1089413663  W2        1410            0.0000000000
      4230      1410  TIP3      H2              2.7452912142       -9.2338157020        7.1509113663  W2        1410            0.0000000000
      4231      1411  TIP3      OH2             7.6636312142       -8.1320857020       -8.7517886337  W2        1411            0.0000000000
      4232      1411  TIP3      H1              7.2038312142       -8.6162557020       -8.0659386337  W2        1411            0.0000000000
      4233      1411  TIP3      H2              7.9185012142       -8.8005457020       -9.3877386337  W2        1411            0.0000000000
      4234      1412  TIP3      OH2             6.9525612142      -10.2393757020        3.6041713663  W2        1412            0.0000000000
      4235      1412  TIP3      H1              6.3341712142       -9.5647157020        3.8846413663  W2        1412            0.0000000000
      4236      1412  TIP3      H2              7.2966812142       -9.9179857020        2.7707913663  W2        1412            0.0000000000
      4237      1413  TIP3      OH2             8.7346712142       -9.8889057020      -10.4894686337  W2        1413            0.0000000000
      4238      1413  TIP3      H1              8.5541712142      -10.0437857020      -11.4166386337  W2        1413            0.0000000000
      4239      1413  TIP3      H2              9.6847212142       -9.7810357020      -10.4446786337  W2        1413            0.0000000000
      4240      1414  TIP3      OH2            11.9723812142       -7.7678457020        6.8816513663  W2        1414            0.0000000000
      4241      1414  TIP3      H1             12.9255012142       -7.6839357020        6.8542513663  W2        1414            0.0000000000
      4242      1414  TIP3      H2             11.8118412142       -8.4796657020        7.5011413663  W2        1414            0.0000000000
      4243      1415  TIP3      OH2            18.1245012142       -7.5344857020      -11.0436586337  W2        1415            0.0000000000
      4244      1415  TIP3      H1             17.8509812142       -7.9589357020      -11.8568286337  W2        1415            0.0000000000
      4245      1415  TIP3      H2             18.1639112142       -6.6030357020      -11.2606186337  W2        1415            0.0000000000
      4246      1416  TIP3      OH2             7.2919312142      -12.8842957020        4.6864813663  W2        1416            0.0000000000
      4247      1416  TIP3      H1              7.4420212142      -13.6131657020        4.0844513663  W2        1416            0.0000000000
      4248      1416  TIP3      H2              7.2941712142      -12.1071257020        4.1277013663  W2        1416            0.0000000000
      4249      1417  TIP3      OH2             7.7045012142      -14.5147157020        2.1792213663  W2        1417            0.0000000000
      4250      1417  TIP3      H1              8.2402512142      -14.0630457020        1.5271513663  W2        1417            0.0000000000
      4251      1417  TIP3      H2              6.8524612142      -14.6227357020        1.7566313663  W2        1417            0.0000000000
      4252      1418  TIP3      OH2             9.2863412142       -9.0750957020        2.4187413663  W2        1418            0.0000000000
      4253      1418  TIP3      H1             10.0368212142       -9.2313457020        1.8455213663  W2        1418            0.0000000000
      4254      1418  TIP3      H2              8.9471712142       -8.2234357020        2.1432913663  W2        1418            0.0000000000
      4255      1419  TIP3      OH2            13.7019612142      -11.2599157020        7.4472713663  W2        1419            0.0000000000
      4256      1419  TIP3      H1             13.8940912142      -12.1909757020        7.3357213663  W2        1419            0.0000000000
      4257      1419  TIP3      H2             14.5595912142      -10.8349657020        7.4368113663  W2        1419            0.0000000000
      4258      1420  TIP3      OH2            15.0186812142       -8.4713957020        5.5245413663  W2        1420            0.0000000000
      4259      1420  TIP3      H1             14.7371812142       -7.7619357020        4.9469213663  W2        1420            0.0000000000
      4260      1420  TIP3      H2             15.9611112142       -8.5440957020        5.3736613663  W2        1420            0.0000000000
      4261      1421  TIP3      OH2             5.7705612142      -11.6859457020        6.5980413663  W2        1421            0.0000000000
      4262      1421  TIP3      H1              5.0034612142      -12.2184657020        6.3878013663  W2        1421            0.0000000000
      4263      1421  TIP3      H2              6.4494612142      -11.9959057020        5.9986713663  W2        1421            0.0000000000
      4264      1422  TIP3      OH2             8.5100512142      -17.0581457020        2.6105813663  W2        1422            0.0000000000
      4265      1422  TIP3      H1              8.4120112142      -16.1118257020        2.5052013663  W2        1422            0.0000000000
      4266      1422  TIP3      H2              7.7676712142      -17.4307657020        2.1349313663  W2        1422            0.0000000000
      4267      1423  TIP3      OH2             9.7741012142      -12.7366057020        6.1744213663  W2        1423            0.0000000000
      4268      1423  TIP3      H1              9.5386412142      -12.9559357020        7.0759113663  W2        1423            0.0000000000
      4269      1423  TIP3      H2              8.9907912142      -12.9434857020        5.6646713663  W2        1423            0.0000000000
      4270      1424  TIP3      OH2            12.4897612142      -13.6092557020        5.2497713663  W2        1424            0.0000000000
      4271      1424  TIP3      H1             11.5423012142      -13.5772857020        5.3821013663  W2        1424            0.0000000000
      4272      1424  TIP3      H2             12.8024312142      -14.2345457020        5.9035913663  W2        1424            0.0000000000
      4273      1425  TIP3      OH2            14.1239112142      -14.9751457020        7.2549613663  W2        1425            0.0000000000
      4274      1425  TIP3      H1             14.0270912142      -15.9274157020        7.2491513663  W2        1425            0.0000000000
      4275      1425  TIP3      H2             13.8022212142      -14.7064657020        8.1155113663  W2        1425            0.0000000000
      4276      1426  TIP3      OH2             3.9508412142      -13.7655657020        6.3025113663  W2        1426            0.0000000000
      4277      1426  TIP3      H1              4.1625812142      -14.4719557020        5.6922613663  W2        1426            0.0000000000
      4278      1426  TIP3      H2              3.8395912142      -14.2029657020        7.1466313663  W2        1426            0.0000000000
      4279      1427  TIP3      OH2             8.7318612142      -17.7644057020        5.2818613663  W2        1427            0.0000000000
      4280      1427  TIP3      H1              9.4437012142      -18.4041857020        5.2677713663  W2        1427            0.0000000000
      4281      1427  TIP3      H2              8.6309012142      -17.4975757020        4.3681713663  W2        1427            0.0000000000
      4282      1428  TIP3      OH2             9.0856112142      -16.0815657020        7.3354913663  W2        1428            0.0000000000
      4283      1428  TIP3      H1              8.9538312142      -16.5571857020        6.5153413663  W2        1428            0.0000000000
      4284      1428  TIP3      H2              8.4863512142      -15.3372057020        7.2802013663  W2        1428            0.0000000000
      4285      1429  TIP3      OH2             8.6318412142        0.8014642980       -9.4881086337  W2        1429            0.0000000000
      4286      1429  TIP3      H1              9.5649112142        0.9593342980       -9.3442686337  W2        1429            0.0000000000
      4287      1429  TIP3      H2              8.3677212142        1.4767642980      -10.1129586337  W2        1429            0.0000000000
      4288      1430  TIP3      OH2             2.2003312142       -4.5621557020      -10.0052986337  W2        1430            0.0000000000
      4289      1430  TIP3      H1              3.1142512142       -4.4832657020       -9.7319086337  W2        1430            0.0000000000
      4290      1430  TIP3      H2              2.2076412142       -5.2491957020      -10.6717386337  W2        1430            0.0000000000
      4291      1431  TIP3      OH2             0.8493912142        0.8306942980       -4.9279086337  W2        1431            0.0000000000
      4292      1431  TIP3      H1              0.2021012142        0.3688642980       -5.4607886337  W2        1431            0.0000000000
      4293      1431  TIP3      H2              1.2038512142        0.1590242980       -4.3452886337  W2        1431            0.0000000000
      4294      1432  TIP3      OH2             1.7193112142       -1.0886057020       -3.1232886337  W2        1432            0.0000000000
      4295      1432  TIP3      H1              1.3849912142       -1.9688757020       -2.9512686337  W2        1432            0.0000000000
      4296      1432  TIP3      H2              1.9415512142       -0.7431057020       -2.2587286337  W2        1432            0.0000000000
      4297      1433  TIP3      OH2            19.2677912142       -0.2789657020       -0.1428086337  W2        1433            0.0000000000
      4298      1433  TIP3      H1             19.2464612142       -0.0941257020        0.7961313663  W2        1433            0.0000000000
      4299      1433  TIP3      H2             19.9584112142        0.2894342980       -0.4836686337  W2        1433            0.0000000000
      4300      1434  TIP3      OH2            18.8310812142       -0.7118557020        2.7791013663  W2        1434            0.0000000000
      4301      1434  TIP3      H1             18.3439512142       -1.4474457020        2.4078413663  W2        1434            0.0000000000
      4302      1434  TIP3      H2             19.3803512142       -1.1054657020        3.4570413663  W2        1434            0.0000000000
      4303      1435  TIP3      OH2            17.2818112142       -4.9220457020        7.4171313663  W2        1435            0.0000000000
      4304      1435  TIP3      H1             16.4159212142       -5.0270757020        7.8113613663  W2        1435            0.0000000000
      4305      1435  TIP3      H2             17.6584012142       -4.1637157020        7.8636013663  W2        1435            0.0000000000
      4306      1436  TIP3      OH2            18.5827812142       -6.6656757020       -7.0686186337  W2        1436            0.0000000000
      4307      1436  TIP3      H1             19.4329212142       -6.2445857020       -6.9414586337  W2        1436            0.0000000000
      4308      1436  TIP3      H2             18.5882912142       -7.4056657020       -6.4614786337  W2        1436            0.0000000000
      4309      1437  TIP3      OH2            18.9773412142       -8.6119357020       -5.2450486337  W2        1437            0.0000000000
      4310      1437  TIP3      H1             18.2508012142       -9.0916757020       -4.8472886337  W2        1437            0.0000000000
      4311      1437  TIP3      H2             19.5586712142       -8.4064657020       -4.5128886337  W2        1437            0.0000000000
      4312      1438  TIP3      OH2            18.7364612142       -5.8271857020       -0.2972886337  W2        1438            0.0000000000
      4313      1438  TIP3      H1             19.5698812142       -6.2051857020       -0.5779286337  W2        1438            0.0000000000
      4314      1438  TIP3      H2             18.8484912142       -4.8840657020       -0.4163786337  W2        1438            0.0000000000
      4315      1439  TIP3      OH2            17.2226912142       -2.9494357020        2.0095513663  W2        1439            0.0000000000
      4316      1439  TIP3      H1             16.5752212142       -2.6242857020        2.6350713663  W2        1439            0.0000000000
      4317      1439  TIP3      H2             16.7050912142       -3.3896657020        1.3353813663  W2        1439            0.0000000000
      4318      1440  TIP3      OH2            19.2456512142       -8.7110857020       -8.8539186337  W2        1440            0.0000000000
      4319      1440  TIP3      H1             18.7237612142       -8.3546757020       -9.5728286337  W2        1440            0.0000000000
      4320      1440  TIP3      H2             19.2125712142       -8.0363057020       -8.1758286337  W2        1440            0.0000000000
      4321      1441  TIP3      OH2            17.5945512142      -11.4715257020      -10.3032086337  W2        1441            0.0000000000
      4322      1441  TIP3      H1             17.6909912142      -10.8048257020      -10.9832386337  W2        1441            0.0000000000
      4323      1441  TIP3      H2             17.4545112142      -12.2868957020      -10.7846586337  W2        1441            0.0000000000
      4324      1442  TIP3      OH2            16.7640212142      -10.0912857020       -4.6821786337  W2        1442            0.0000000000
      4325      1442  TIP3      H1             16.6139012142      -11.0364257020       -4.7023986337  W2        1442            0.0000000000
      4326      1442  TIP3      H2             16.4104712142       -9.8101457020       -3.8382686337  W2        1442            0.0000000000
      4327      1443  TIP3      OH2             1.7992612142       -8.0130657020       -0.6717986337  W2        1443            0.0000000000
      4328      1443  TIP3      H1              1.9835512142       -8.0948957020       -1.6075086337  W2        1443            0.0000000000
      4329      1443  TIP3      H2              2.6485512142       -8.1373657020       -0.2481586337  W2        1443            0.0000000000
      4330      1444  TIP3      OH2            17.6203112142       -8.1209557020        4.9566513663  W2        1444            0.0000000000
      4331      1444  TIP3      H1             18.2030412142       -8.8557257020        5.1483713663  W2        1444            0.0000000000
      4332      1444  TIP3      H2             18.1842412142       -7.3489257020        5.0032313663  W2        1444            0.0000000000
      4333      1445  TIP3      OH2            19.1170212142      -10.2183757020        5.6411913663  W2        1445            0.0000000000
      4334      1445  TIP3      H1             18.2536912142      -10.5971657020        5.4756613663  W2        1445            0.0000000000
      4335      1445  TIP3      H2             19.7213912142      -10.9568957020        5.5667713663  W2        1445            0.0000000000
      4336      1446  TIP3      OH2            16.8419312142      -14.0635457020      -11.1856586337  W2        1446            0.0000000000
      4337      1446  TIP3      H1             17.4525112142      -14.4348657020      -10.5488386337  W2        1446            0.0000000000
      4338      1446  TIP3      H2             16.0050812142      -14.4848557020      -10.9896586337  W2        1446            0.0000000000
      4339      1447  TIP3      OH2            16.4745012142      -12.5087057020       -6.2196686337  W2        1447            0.0000000000
      4340      1447  TIP3      H1             16.7542112142      -13.4156657020       -6.0954986337  W2        1447            0.0000000000
      4341      1447  TIP3      H2             17.2336712142      -12.0745557020       -6.6087486337  W2        1447            0.0000000000
      4342      1448  TIP3      OH2            17.0863312142      -11.9269657020       -0.7837786337  W2        1448            0.0000000000
      4343      1448  TIP3      H1             18.0191312142      -11.7149757020       -0.8181786337  W2        1448            0.0000000000
      4344      1448  TIP3      H2             16.8510812142      -11.8257557020        0.1385213663  W2        1448            0.0000000000
      4345      1449  TIP3      OH2            17.1155212142      -11.1904357020        1.9921613663  W2        1449            0.0000000000
      4346      1449  TIP3      H1             16.2726512142      -10.9223957020        2.3581413663  W2        1449            0.0000000000
      4347      1449  TIP3      H2             17.5579512142      -10.3682457020        1.7812713663  W2        1449            0.0000000000
      4348      1450  TIP3      OH2             1.3967412142      -12.7425657020        5.4690813663  W2        1450            0.0000000000
      4349      1450  TIP3      H1              2.3162312142      -12.8647357020        5.7053913663  W2        1450            0.0000000000
      4350      1450  TIP3      H2              0.9471912142      -13.4925957020        5.8584313663  W2        1450            0.0000000000
      4351      1451  TIP3      OH2            19.3986812142      -17.2104157020        7.3456613663  W2        1451            0.0000000000
      4352      1451  TIP3      H1             19.7483812142      -17.8640657020        6.7401313663  W2        1451            0.0000000000
      4353      1451  TIP3      H2             19.5456312142      -16.3730057020        6.9059213663  W2        1451            0.0000000000
      4354      1452  TIP3      OH2            17.0879812142      -15.2457757020       -6.1714686337  W2        1452            0.0000000000
      4355      1452  TIP3      H1             17.2704812142      -15.6946257020       -5.3459686337  W2        1452            0.0000000000
      4356      1452  TIP3      H2             16.4882712142      -15.8303357020       -6.6350086337  W2        1452            0.0000000000
      4357      1453  TIP3      OH2             2.6179912142      -14.4304057020       -1.6396286337  W2        1453            0.0000000000
      4358      1453  TIP3      H1              3.0631512142      -15.2221557020       -1.3376586337  W2        1453            0.0000000000
      4359      1453  TIP3      H2              3.0842912142      -13.7138857020       -1.2090686337  W2        1453            0.0000000000
      4360      1454  TIP3      OH2             0.9220212142      -11.4311057020       -0.5706086337  W2        1454            0.0000000000
      4361      1454  TIP3      H1              1.4140012142      -11.6520557020       -1.3614086337  W2        1454            0.0000000000
      4362      1454  TIP3      H2              1.2841112142      -10.5907657020       -0.2896586337  W2        1454            0.0000000000
      4363      1455  TIP3      OH2            18.9184012142      -15.1009557020        5.6947913663  W2        1455            0.0000000000
      4364      1455  TIP3      H1             18.0009712142      -14.8302457020        5.6591413663  W2        1455            0.0000000000
      4365      1455  TIP3      H2             19.0413412142      -15.6361157020        4.9107613663  W2        1455            0.0000000000
      4366      1456  TIP3      OH2            18.9546012142      -15.1779657020       -9.6434386337  W2        1456            0.0000000000
      4367      1456  TIP3      H1             19.3668612142      -15.8993957020      -10.1186386337  W2        1456            0.0000000000
      4368      1456  TIP3      H2             19.6362512142      -14.5085057020       -9.5850086337  W2        1456            0.0000000000
      4369      1457  TIP3      OH2             1.2356712142      -15.1731957020       -6.5163686337  W2        1457            0.0000000000
      4370      1457  TIP3      H1              0.3105112142      -14.9645357020       -6.6458186337  W2        1457            0.0000000000
      4371      1457  TIP3      H2              1.6896612142      -14.6891157020       -7.2061386337  W2        1457            0.0000000000
      4372      1458  TIP3      OH2            16.0063912142       -0.1890257020       -4.5706286337  W2        1458            0.0000000000
      4373      1458  TIP3      H1             16.6586812142       -0.5368157020       -5.1787186337  W2        1458            0.0000000000
      4374      1458  TIP3      H2             16.5167712142        0.2992942980       -3.9246586337  W2        1458            0.0000000000
      4375      1459  TIP3      OH2             1.1992112142      -16.4352957020        1.8278813663  W2        1459            0.0000000000
      4376      1459  TIP3      H1              0.5342612142      -16.6812657020        2.4709713663  W2        1459            0.0000000000
      4377      1459  TIP3      H2              0.7563412142      -15.8132557020        1.2506813663  W2        1459            0.0000000000
      4378      1460  TIP3      OH2             3.3911412142       -3.2598857020        5.9724613663  W2        1460            0.0000000000
      4379      1460  TIP3      H1              2.5703912142       -3.0852357020        5.5119313663  W2        1460            0.0000000000
      4380      1460  TIP3      H2              3.1389212142       -3.3334157020        6.8929013663  W2        1460            0.0000000000
      4381      1461  TIP3      OH2             6.3454312142       -2.2857657020        2.2308613663  W2        1461            0.0000000000
      4382      1461  TIP3      H1              5.9205412142       -1.4759157020        1.9483213663  W2        1461            0.0000000000
      4383      1461  TIP3      H2              7.2497112142       -2.2003557020        1.9288413663  W2        1461            0.0000000000
      4384      1462  TIP3      OH2            10.6565712142       -0.8867657020        5.1902313663  W2        1462            0.0000000000
      4385      1462  TIP3      H1             10.8413212142       -1.2201557020        6.0682613663  W2        1462            0.0000000000
      4386      1462  TIP3      H2             11.5030212142       -0.5769057020        4.8681513663  W2        1462            0.0000000000
      4387      1463  TIP3      OH2            13.0016112142        0.3991242980        4.4343713663  W2        1463            0.0000000000
      4388      1463  TIP3      H1             13.6785012142       -0.2336457020        4.1942913663  W2        1463            0.0000000000
      4389      1463  TIP3      H2             13.3234912142        0.8001742980        5.2417013663  W2        1463            0.0000000000
      4390      1464  TIP3      OH2            17.9189912142      -17.0113257020        3.5138713663  W2        1464            0.0000000000
      4391      1464  TIP3      H1             17.1063412142      -16.6862957020        3.1263413663  W2        1464            0.0000000000
      4392      1464  TIP3      H2             18.1518412142      -17.7714757020        2.9807813663  W2        1464            0.0000000000
      4393      1465  TIP3      OH2             3.7471012142        0.9706242980        2.2783913663  W2        1465            0.0000000000
      4394      1465  TIP3      H1              3.0267412142        1.4107242980        1.8271613663  W2        1465            0.0000000000
      4395      1465  TIP3      H2              3.3815012142        0.7200942980        3.1267913663  W2        1465            0.0000000000
      4396      1466  TIP3      OH2             6.2143612142        0.5710142980        1.3081113663  W2        1466            0.0000000000
      4397      1466  TIP3      H1              5.3495812142        0.6428642980        1.7121213663  W2        1466            0.0000000000
      4398      1466  TIP3      H2              6.1592612142        1.1177442980        0.5243613663  W2        1466            0.0000000000
      4399      1467  TIP3      OH2            10.9249212142        0.4589042980        0.4837113663  W2        1467            0.0000000000
      4400      1467  TIP3      H1             10.4683212142        0.9878742980       -0.1704486337  W2        1467            0.0000000000
      4401      1467  TIP3      H2             11.0877212142        1.0620442980        1.2089413663  W2        1467            0.0000000000
      4402      1468  TIP3      OH2            13.2525512142       -0.6631357020        1.4287413663  W2        1468            0.0000000000
      4403      1468  TIP3      H1             12.3479212142       -0.4981157020        1.1629513663  W2        1468            0.0000000000
      4404      1468  TIP3      H2             13.6814112142        0.1900842980        1.3630813663  W2        1468            0.0000000000
      4405      1469  TIP3      OH2            15.8567412142        0.9067742980        1.7235213663  W2        1469            0.0000000000
      4406      1469  TIP3      H1             15.6749412142        1.8226642980        1.5130113663  W2        1469            0.0000000000
      4407      1469  TIP3      H2             16.0335212142        0.4964842980        0.8769813663  W2        1469            0.0000000000
      4408      1470  TIP3      OH2             3.1619112142       -0.4061257020       -0.8114286337  W2        1470            0.0000000000
      4409      1470  TIP3      H1              3.1435112142       -0.8316157020        0.0458013663  W2        1470            0.0000000000
      4410      1470  TIP3      H2              3.9667012142       -0.7246257020       -1.2202086337  W2        1470            0.0000000000
      4411      1471  TIP3      OH2             5.3032212142       -1.6962557020       -2.1564386337  W2        1471            0.0000000000
      4412      1471  TIP3      H1              5.0842912142       -2.6125157020       -1.9868386337  W2        1471            0.0000000000
      4413      1471  TIP3      H2              6.1274412142       -1.5562157020       -1.6902986337  W2        1471            0.0000000000
      4414      1472  TIP3      OH2             7.8404712142       -1.2263257020       -1.3076386337  W2        1472            0.0000000000
      4415      1472  TIP3      H1              8.0530412142       -2.1144257020       -1.5945486337  W2        1472            0.0000000000
      4416      1472  TIP3      H2              7.9049812142       -1.2605557020       -0.3532386337  W2        1472            0.0000000000
      4417      1473  TIP3      OH2            11.3488412142      -15.5622657020       -2.1633086337  W2        1473            0.0000000000
      4418      1473  TIP3      H1             10.6745212142      -16.1917057020       -1.9077286337  W2        1473            0.0000000000
      4419      1473  TIP3      H2             11.9127612142      -16.0463757020       -2.7665186337  W2        1473            0.0000000000
      4420      1474  TIP3      OH2            16.4915612142      -17.4548657020       -2.0505986337  W2        1474            0.0000000000
      4421      1474  TIP3      H1             17.0953212142      -16.9073257020       -2.5524986337  W2        1474            0.0000000000
      4422      1474  TIP3      H2             15.6217612142      -17.1358257020       -2.2911886337  W2        1474            0.0000000000
      4423      1475  TIP3      OH2            18.2186012142      -16.3159957020       -3.7175086337  W2        1475            0.0000000000
      4424      1475  TIP3      H1             18.8303512142      -16.8304257020       -4.2441486337  W2        1475            0.0000000000
      4425      1475  TIP3      H2             18.6009412142      -15.4387857020       -3.6940686337  W2        1475            0.0000000000
      4426      1476  TIP3      OH2             3.6755912142      -16.9282357020       -4.3413186337  W2        1476            0.0000000000
      4427      1476  TIP3      H1              2.8985712142      -17.1627457020       -4.8487286337  W2        1476            0.0000000000
      4428      1476  TIP3      H2              4.2059512142      -17.7250257020       -4.3325186337  W2        1476            0.0000000000
      4429      1477  TIP3      OH2             2.5119312142      -17.1304257020       -8.5377086337  W2        1477            0.0000000000
      4430      1477  TIP3      H1              2.9510012142      -16.5193757020       -9.1293586337  W2        1477            0.0000000000
      4431      1477  TIP3      H2              1.8781712142      -16.5920157020       -8.0637086337  W2        1477            0.0000000000
      4432      1478  TIP3      OH2             8.2548512142      -17.0015257020       -4.5280086337  W2        1478            0.0000000000
      4433      1478  TIP3      H1              9.1291912142      -16.6130957020       -4.5575786337  W2        1478            0.0000000000
      4434      1478  TIP3      H2              8.1189312142      -17.2167457020       -3.6052886337  W2        1478            0.0000000000
      4435      1479  TIP3      OH2            13.8116912142      -16.9715457020       -2.8788386337  W2        1479            0.0000000000
      4436      1479  TIP3      H1             13.8878512142      -16.8763857020       -3.8282386337  W2        1479            0.0000000000
      4437      1479  TIP3      H2             13.5366112142      -17.8792557020       -2.7499286337  W2        1479            0.0000000000
      4438      1480  TIP3      OH2            15.1649512142      -16.9457657020       -7.1863386337  W2        1480            0.0000000000
      4439      1480  TIP3      H1             14.4620612142      -16.3308457020       -7.3961986337  W2        1480            0.0000000000
      4440      1480  TIP3      H2             14.7200912142      -17.7830957020       -7.0552486337  W2        1480            0.0000000000
      4441      1481  TIP3      OH2             2.4128812142       -1.1822057020       -7.6401986337  W2        1481            0.0000000000
      4442      1481  TIP3      H1              1.7278712142       -1.2203157020       -8.3076886337  W2        1481            0.0000000000
      4443      1481  TIP3      H2              2.4166012142       -0.2694457020       -7.3519886337  W2        1481            0.0000000000
      4444      1482  TIP3      OH2             4.3728412142      -15.2142757020      -10.0952986337  W2        1482            0.0000000000
      4445      1482  TIP3      H1              4.8641812142      -15.8440357020      -10.6227486337  W2        1482            0.0000000000
      4446      1482  TIP3      H2              4.9964712142      -14.9183357020       -9.4321786337  W2        1482            0.0000000000
      4447      1483  TIP3      OH2             9.3988512142      -14.9211257020       -7.6382486337  W2        1483            0.0000000000
      4448      1483  TIP3      H1              9.5769812142      -15.5678057020       -6.9553886337  W2        1483            0.0000000000
      4449      1483  TIP3      H2              9.3454712142      -14.0873557020       -7.1711386337  W2        1483            0.0000000000
      4450      1484  TIP3      OH2            11.2772312142        0.0272842980       -9.2425786337  W2        1484            0.0000000000
      4451      1484  TIP3      H1             12.1432512142        0.3940242980       -9.4207586337  W2        1484            0.0000000000
      4452      1484  TIP3      H2             11.0305112142       -0.4119157020      -10.0564986337  W2        1484            0.0000000000
      4453      1485  TIP3      OH2            17.9861912142       -0.4096857020       -6.5634686337  W2        1485            0.0000000000
      4454      1485  TIP3      H1             17.7919012142       -1.1574757020       -7.1285086337  W2        1485            0.0000000000
      4455      1485  TIP3      H2             17.9472012142        0.3483242980       -7.1466786337  W2        1485            0.0000000000
      4456      1486  TIP3      OH2             3.6333912142      -16.4140457020        5.1763013663  W2        1486            0.0000000000
      4457      1486  TIP3      H1              3.2672112142      -17.1797857020        5.6187713663  W2        1486            0.0000000000
      4458      1486  TIP3      H2              4.5462412142      -16.3850257020        5.4628113663  W2        1486            0.0000000000
      4459      1487  TIP3      OH2             5.6064712142      -17.0636057020        6.7120113663  W2        1487            0.0000000000
      4460      1487  TIP3      H1              6.5048312142      -17.3375857020        6.5273513663  W2        1487            0.0000000000
      4461      1487  TIP3      H2              5.2197812142      -17.8060057020        7.1762713663  W2        1487            0.0000000000
      4462      1488  TIP3      OH2             4.2310012142       -0.2621257020      -10.6149886337  W2        1488            0.0000000000
      4463      1488  TIP3      H1              3.9634612142        0.0241642980       -9.7416786337  W2        1488            0.0000000000
      4464      1488  TIP3      H2              5.0022612142       -0.8082057020      -10.4627386337  W2        1488            0.0000000000
      4465      1489  TIP3      OH2            14.0277012142      -17.7310757020        6.8942913663  W2        1489            0.0000000000
      4466      1489  TIP3      H1             14.1044212142      -18.1570057020        7.7480613663  W2        1489            0.0000000000
      4467      1489  TIP3      H2             14.9213612142      -17.7176057020        6.5516413663  W2        1489            0.0000000000
      4468      1490  TIP3      OH2            17.2038112142       -1.6584457020        5.5867113663  W2        1490            0.0000000000
      4469      1490  TIP3      H1             16.4220012142       -1.8446457020        5.0667713663  W2        1490            0.0000000000
      4470      1490  TIP3      H2             17.1318012142       -0.7290157020        5.8039613663  W2        1490            0.0000000000
      4471      1491  TIP3      OH2            31.6098512142       -7.7720057020       -4.3825686337  W2        1491            0.0000000000
      4472      1491  TIP3      H1             31.6989612142       -6.8281857020       -4.5148586337  W2        1491            0.0000000000
      4473      1491  TIP3      H2             30.9716112142       -8.0473657020       -5.0406286337  W2        1491            0.0000000000
      4474      1492  TIP3      OH2            30.5429812142       -8.5169357020       -0.9637486337  W2        1492            0.0000000000
      4475      1492  TIP3      H1             30.5047312142       -9.1633057020       -0.2587886337  W2        1492            0.0000000000
      4476      1492  TIP3      H2             30.2206312142       -8.9834957020       -1.7348786337  W2        1492            0.0000000000
      4477      1493  TIP3      OH2            22.9114812142       -8.9027257020        0.6292413663  W2        1493            0.0000000000
      4478      1493  TIP3      H1             22.9526912142       -9.5283957020        1.3524813663  W2        1493            0.0000000000
      4479      1493  TIP3      H2             23.6142512142       -8.2788657020        0.8112813663  W2        1493            0.0000000000
      4480      1494  TIP3      OH2            34.2490012142       -5.5778957020       -2.6622386337  W2        1494            0.0000000000
      4481      1494  TIP3      H1             33.8082712142       -6.2982957020       -2.2116786337  W2        1494            0.0000000000
      4482      1494  TIP3      H2             34.2359712142       -4.8571757020       -2.0324686337  W2        1494            0.0000000000
      4483      1495  TIP3      OH2            23.8347912142       -4.4528357020       -0.8358486337  W2        1495            0.0000000000
      4484      1495  TIP3      H1             23.4653112142       -5.2547857020       -1.2054186337  W2        1495            0.0000000000
      4485      1495  TIP3      H2             24.7759012142       -4.6213457020       -0.7895086337  W2        1495            0.0000000000
      4486      1496  TIP3      OH2            20.4448412142      -10.7925757020       -5.4429686337  W2        1496            0.0000000000
      4487      1496  TIP3      H1             19.9971812142       -9.9467057020       -5.4613186337  W2        1496            0.0000000000
      4488      1496  TIP3      H2             19.8839612142      -11.3721557020       -5.9584586337  W2        1496            0.0000000000
      4489      1497  TIP3      OH2            21.1554512142       -8.6306157020       -3.3171686337  W2        1497            0.0000000000
      4490      1497  TIP3      H1             21.3688012142       -9.4004557020       -2.7898686337  W2        1497            0.0000000000
      4491      1497  TIP3      H2             21.8932112142       -8.5409457020       -3.9204086337  W2        1497            0.0000000000
      4492      1498  TIP3      OH2            31.3605512142       -0.4737257020       -2.4501986337  W2        1498            0.0000000000
      4493      1498  TIP3      H1             31.9801912142       -1.1502557020       -2.7232786337  W2        1498            0.0000000000
      4494      1498  TIP3      H2             31.1522912142       -0.6916457020       -1.5417086337  W2        1498            0.0000000000
      4495      1499  TIP3      OH2            28.9324212142       -6.0847957020       -0.5576486337  W2        1499            0.0000000000
      4496      1499  TIP3      H1             29.2362112142       -6.7706557020       -1.1522386337  W2        1499            0.0000000000
      4497      1499  TIP3      H2             29.6538212142       -5.9659257020        0.0601513663  W2        1499            0.0000000000
      4498      1500  TIP3      OH2            32.0731212142      -11.6905557020       -0.2301686337  W2        1500            0.0000000000
      4499      1500  TIP3      H1             32.2157112142      -12.6368557020       -0.2100086337  W2        1500            0.0000000000
      4500      1500  TIP3      H2             31.9670212142      -11.4835757020       -1.1586786337  W2        1500            0.0000000000
      4501      1501  TIP3      OH2            25.2279512142      -13.5889157020       -2.9576886337  W2        1501            0.0000000000
      4502      1501  TIP3      H1             25.2710612142      -12.7290657020       -3.3760586337  W2        1501            0.0000000000
      4503      1501  TIP3      H2             24.7703612142      -14.1414457020       -3.5913686337  W2        1501            0.0000000000
      4504      1502  TIP3      OH2            32.9502212142      -13.4583557020       -4.5568586337  W2        1502            0.0000000000
      4505      1502  TIP3      H1             33.5966512142      -13.7870357020       -3.9320986337  W2        1502            0.0000000000
      4506      1502  TIP3      H2             33.4601612142      -12.9404557020       -5.1797186337  W2        1502            0.0000000000
      4507      1503  TIP3      OH2            21.8481012142      -11.1923357020       -2.1955486337  W2        1503            0.0000000000
      4508      1503  TIP3      H1             22.5017612142      -11.7421657020       -1.7635386337  W2        1503            0.0000000000
      4509      1503  TIP3      H2             21.8720312142      -11.4664357020       -3.1123486337  W2        1503            0.0000000000
      4510      1504  TIP3      OH2            27.0045512142       -9.6422057020       -2.9803986337  W2        1504            0.0000000000
      4511      1504  TIP3      H1             27.6206512142      -10.1686657020       -2.4709986337  W2        1504            0.0000000000
      4512      1504  TIP3      H2             26.4184312142      -10.2823357020       -3.3840386337  W2        1504            0.0000000000
      4513      1505  TIP3      OH2            24.0381412142      -14.6710757020        1.1163913663  W2        1505            0.0000000000
      4514      1505  TIP3      H1             23.8193112142      -14.1410157020        0.3499913663  W2        1505            0.0000000000
      4515      1505  TIP3      H2             23.3702312142      -14.4445257020        1.7635313663  W2        1505            0.0000000000
      4516      1506  TIP3      OH2            31.4071212142       -5.1709657020       -5.3396986337  W2        1506            0.0000000000
      4517      1506  TIP3      H1             31.1116312142       -5.4937357020       -6.1910086337  W2        1506            0.0000000000
      4518      1506  TIP3      H2             31.0829012142       -4.2712957020       -5.2984386337  W2        1506            0.0000000000
      4519      1507  TIP3      OH2            26.6072812142       -6.9955057020        1.4037613663  W2        1507            0.0000000000
      4520      1507  TIP3      H1             25.8671912142       -6.3973557020        1.5072813663  W2        1507            0.0000000000
      4521      1507  TIP3      H2             27.3212312142       -6.4415457020        1.0881213663  W2        1507            0.0000000000
      4522      1508  TIP3      OH2            34.7140612142      -14.1674257020       -2.5762686337  W2        1508            0.0000000000
      4523      1508  TIP3      H1             34.4988612142      -14.9330857020       -2.0436686337  W2        1508            0.0000000000
      4524      1508  TIP3      H2             35.3698012142      -13.6949657020       -2.0634186337  W2        1508            0.0000000000
      4525      1509  TIP3      OH2            23.6318712142      -12.7788957020       -0.9313886337  W2        1509            0.0000000000
      4526      1509  TIP3      H1             24.2455012142      -12.1461357020       -0.5581486337  W2        1509            0.0000000000
      4527      1509  TIP3      H2             24.1439412142      -13.2513957020       -1.5876986337  W2        1509            0.0000000000
      4528      1510  TIP3      OH2            25.0147112142       -5.0312057020        2.1909113663  W2        1510            0.0000000000
      4529      1510  TIP3      H1             25.0094712142       -4.1518557020        1.8128413663  W2        1510            0.0000000000
      4530      1510  TIP3      H2             24.1611212142       -5.1147957020        2.6159013663  W2        1510            0.0000000000
      4531      1511  TIP3      OH2            21.1358012142       -5.3604157020       -7.0271586337  W2        1511            0.0000000000
      4532      1511  TIP3      H1             20.8638912142       -5.1313157020       -7.9158686337  W2        1511            0.0000000000
      4533      1511  TIP3      H2             21.1813712142       -4.5225357020       -6.5666286337  W2        1511            0.0000000000
      4534      1512  TIP3      OH2            34.7607712142       -3.7388257020       -0.3143086337  W2        1512            0.0000000000
      4535      1512  TIP3      H1             33.8191412142       -3.6804357020       -0.1526186337  W2        1512            0.0000000000
      4536      1512  TIP3      H2             35.0373812142       -2.8327757020       -0.4513386337  W2        1512            0.0000000000
      4537      1513  TIP3      OH2            35.0614712142      -15.4522957020        1.1030813663  W2        1513            0.0000000000
      4538      1513  TIP3      H1             34.3253912142      -14.8415857020        1.0652113663  W2        1513            0.0000000000
      4539      1513  TIP3      H2             35.7448712142      -15.0373957020        0.5767213663  W2        1513            0.0000000000
      4540      1514  TIP3      OH2            28.0646112142      -17.3655657020       -1.4311186337  W2        1514            0.0000000000
      4541      1514  TIP3      H1             27.9470312142      -18.3139657020       -1.4852886337  W2        1514            0.0000000000
      4542      1514  TIP3      H2             27.2096212142      -17.0329557020       -1.1580086337  W2        1514            0.0000000000
      4543      1515  TIP3      OH2            33.0128912142       -1.9574757020       -3.6891486337  W2        1515            0.0000000000
      4544      1515  TIP3      H1             33.4381212142       -2.6646857020       -4.1741886337  W2        1515            0.0000000000
      4545      1515  TIP3      H2             33.3298912142       -1.1562057020       -4.1059286337  W2        1515            0.0000000000
      4546      1516  TIP3      OH2            34.1725412142       -4.0566257020       -5.1804886337  W2        1516            0.0000000000
      4547      1516  TIP3      H1             33.9150212142       -4.7466157020       -5.7918986337  W2        1516            0.0000000000
      4548      1516  TIP3      H2             34.2436212142       -4.4995057020       -4.3348986337  W2        1516            0.0000000000
      4549      1517  TIP3      OH2            35.8585612142       -5.4899557020        3.2968613663  W2        1517            0.0000000000
      4550      1517  TIP3      H1             35.9981912142       -6.0817057020        2.5575613663  W2        1517            0.0000000000
      4551      1517  TIP3      H2             36.0258412142       -4.6173657020        2.9407413663  W2        1517            0.0000000000
      4552      1518  TIP3      OH2            30.3311012142       -8.5280057020       -6.9305386337  W2        1518            0.0000000000
      4553      1518  TIP3      H1             29.6196512142       -7.9930357020       -7.2824886337  W2        1518            0.0000000000
      4554      1518  TIP3      H2             31.0220612142       -8.4727957020       -7.5906486337  W2        1518            0.0000000000
      4555      1519  TIP3      OH2            30.3850212142      -10.0705757020       -9.8920386337  W2        1519            0.0000000000
      4556      1519  TIP3      H1             31.0860112142      -10.0478857020       -9.2406386337  W2        1519            0.0000000000
      4557      1519  TIP3      H2             30.6873112142      -10.6986057020      -10.5481086337  W2        1519            0.0000000000
      4558      1520  TIP3      OH2            33.7368712142       -8.3186757020       -5.9789486337  W2        1520            0.0000000000
      4559      1520  TIP3      H1             33.0049712142       -8.0903057020       -5.4058886337  W2        1520            0.0000000000
      4560      1520  TIP3      H2             34.1840912142       -9.0324057020       -5.5241986337  W2        1520            0.0000000000
      4561      1521  TIP3      OH2            33.6342212142      -10.1444157020        3.0887513663  W2        1521            0.0000000000
      4562      1521  TIP3      H1             33.7141312142       -9.3809757020        3.6606013663  W2        1521            0.0000000000
      4563      1521  TIP3      H2             33.0329912142       -9.8651757020        2.3982613663  W2        1521            0.0000000000
      4564      1522  TIP3      OH2            25.3822412142       -7.6880557020       -4.0964486337  W2        1522            0.0000000000
      4565      1522  TIP3      H1             25.0517612142       -8.0587157020       -4.9147486337  W2        1522            0.0000000000
      4566      1522  TIP3      H2             25.9706512142       -8.3586557020       -3.7496186337  W2        1522            0.0000000000
      4567      1523  TIP3      OH2            26.7489912142       -4.2599957020       -1.4152286337  W2        1523            0.0000000000
      4568      1523  TIP3      H1             26.6541212142       -4.8386857020       -2.1717686337  W2        1523            0.0000000000
      4569      1523  TIP3      H2             27.4783512142       -4.6314257020       -0.9189486337  W2        1523            0.0000000000
      4570      1524  TIP3      OH2            25.7487912142       -8.9194957020       -0.4629486337  W2        1524            0.0000000000
      4571      1524  TIP3      H1             26.3140412142       -8.7980757020       -1.2258286337  W2        1524            0.0000000000
      4572      1524  TIP3      H2             26.0676812142       -8.2819957020        0.1759013663  W2        1524            0.0000000000
      4573      1525  TIP3      OH2            32.0580112142       -3.4163057020        0.2711013663  W2        1525            0.0000000000
      4574      1525  TIP3      H1             31.8176712142       -2.7539957020        0.9190213663  W2        1525            0.0000000000
      4575      1525  TIP3      H2             31.8598312142       -4.2507857020        0.6960613663  W2        1525            0.0000000000
      4576      1526  TIP3      OH2            26.6288612142       -4.5202257020        4.2542413663  W2        1526            0.0000000000
      4577      1526  TIP3      H1             26.3176112142       -3.7379057020        4.7095613663  W2        1526            0.0000000000
      4578      1526  TIP3      H2             25.9788812142       -4.6733157020        3.5684413663  W2        1526            0.0000000000
      4579      1527  TIP3      OH2            32.6078212142       -9.1563857020       -8.2938286337  W2        1527            0.0000000000
      4580      1527  TIP3      H1             33.1873712142       -9.0063557020       -7.5469386337  W2        1527            0.0000000000
      4581      1527  TIP3      H2             33.0218212142       -8.6856457020       -9.0171886337  W2        1527            0.0000000000
      4582      1528  TIP3      OH2            23.5488512142       -8.3221157020        3.4828113663  W2        1528            0.0000000000
      4583      1528  TIP3      H1             23.6191712142       -7.6714357020        4.1813113663  W2        1528            0.0000000000
      4584      1528  TIP3      H2             22.6580712142       -8.2193657020        3.1479013663  W2        1528            0.0000000000
      4585      1529  TIP3      OH2            30.3343112142       -2.4195357020       -4.8585186337  W2        1529            0.0000000000
      4586      1529  TIP3      H1             30.8080712142       -2.1239057020       -4.0810986337  W2        1529            0.0000000000
      4587      1529  TIP3      H2             29.7712412142       -1.6813757020       -5.0915586337  W2        1529            0.0000000000
      4588      1530  TIP3      OH2            24.8684512142       -2.4487257020        5.0176213663  W2        1530            0.0000000000
      4589      1530  TIP3      H1             24.8759812142       -2.5847557020        4.0701713663  W2        1530            0.0000000000
      4590      1530  TIP3      H2             23.9524912142       -2.5659157020        5.2696213663  W2        1530            0.0000000000
      4591      1531  TIP3      OH2            36.3066612142      -17.4063457020       -8.4808586337  W2        1531            0.0000000000
      4592      1531  TIP3      H1             35.4067312142      -17.2674457020       -8.1857986337  W2        1531            0.0000000000
      4593      1531  TIP3      H2             36.5585012142      -16.5748857020       -8.8826886337  W2        1531            0.0000000000
      4594      1532  TIP3      OH2            24.3725112142       -8.6186257020       -6.5071686337  W2        1532            0.0000000000
      4595      1532  TIP3      H1             24.0806412142       -7.8504557020       -6.9980386337  W2        1532            0.0000000000
      4596      1532  TIP3      H2             23.6980312142       -9.2780057020       -6.6700286337  W2        1532            0.0000000000
      4597      1533  TIP3      OH2            20.4655212142       -6.2557057020        2.3078113663  W2        1533            0.0000000000
      4598      1533  TIP3      H1             19.9643612142       -6.2837657020        1.4927813663  W2        1533            0.0000000000
      4599      1533  TIP3      H2             20.4708912142       -7.1613857020        2.6175413663  W2        1533            0.0000000000
      4600      1534  TIP3      OH2            20.2157912142       -3.4753257020       -0.8081686337  W2        1534            0.0000000000
      4601      1534  TIP3      H1             21.1618512142       -3.6196257020       -0.8272186337  W2        1534            0.0000000000
      4602      1534  TIP3      H2             20.1034212142       -2.6910457020       -0.2710486337  W2        1534            0.0000000000
      4603      1535  TIP3      OH2            29.3920412142       -3.2354357020        3.7503413663  W2        1535            0.0000000000
      4604      1535  TIP3      H1             29.4795012142       -2.4089757020        4.2252513663  W2        1535            0.0000000000
      4605      1535  TIP3      H2             28.5285512142       -3.5650557020        3.9992713663  W2        1535            0.0000000000
      4606      1536  TIP3      OH2            29.8066212142        0.5369342980       -6.4435986337  W2        1536            0.0000000000
      4607      1536  TIP3      H1             29.7312212142        0.4156542980       -7.3900786337  W2        1536            0.0000000000
      4608      1536  TIP3      H2             29.8394912142        1.4862042980       -6.3251386337  W2        1536            0.0000000000
      4609      1537  TIP3      OH2            23.4600012142       -0.6743657020       -4.6626986337  W2        1537            0.0000000000
      4610      1537  TIP3      H1             23.6120412142       -1.0223257020       -3.7840486337  W2        1537            0.0000000000
      4611      1537  TIP3      H2             22.6090412142       -1.0306357020       -4.9179786337  W2        1537            0.0000000000
      4612      1538  TIP3      OH2            32.9082212142       -0.3090457020       -9.4413586337  W2        1538            0.0000000000
      4613      1538  TIP3      H1             33.2830612142       -1.0534357020       -9.9120986337  W2        1538            0.0000000000
      4614      1538  TIP3      H2             32.9125912142       -0.5789857020       -8.5230286337  W2        1538            0.0000000000
      4615      1539  TIP3      OH2            32.5770312142       -0.3833357020       -6.6921386337  W2        1539            0.0000000000
      4616      1539  TIP3      H1             31.6420112142       -0.2831457020       -6.5134386337  W2        1539            0.0000000000
      4617      1539  TIP3      H2             32.8572212142       -1.0927357020       -6.1138186337  W2        1539            0.0000000000
      4618      1540  TIP3      OH2            35.5656212142      -11.3161057020        5.3544213663  W2        1540            0.0000000000
      4619      1540  TIP3      H1             35.1583012142      -10.8355457020        4.6337513663  W2        1540            0.0000000000
      4620      1540  TIP3      H2             35.6061912142      -12.2215057020        5.0465013663  W2        1540            0.0000000000
      4621      1541  TIP3      OH2            22.7145712142       -4.9321657020        3.3510913663  W2        1541            0.0000000000
      4622      1541  TIP3      H1             22.9307012142       -5.2936057020        4.2106713663  W2        1541            0.0000000000
      4623      1541  TIP3      H2             21.8590412142       -5.3067857020        3.1414413663  W2        1541            0.0000000000
      4624      1542  TIP3      OH2            25.3333712142      -16.4621157020       -0.6534886337  W2        1542            0.0000000000
      4625      1542  TIP3      H1             24.4717412142      -16.5492957020       -1.0611986337  W2        1542            0.0000000000
      4626      1542  TIP3      H2             25.3109412142      -15.6061057020       -0.2257286337  W2        1542            0.0000000000
      4627      1543  TIP3      OH2            29.9961512142      -16.7400757020        2.7212113663  W2        1543            0.0000000000
      4628      1543  TIP3      H1             30.4164612142      -17.1553657020        3.4742713663  W2        1543            0.0000000000
      4629      1543  TIP3      H2             29.0631112142      -16.9187457020        2.8384113663  W2        1543            0.0000000000
      4630      1544  TIP3      OH2            33.3226412142      -12.9845557020        3.5746613663  W2        1544            0.0000000000
      4631      1544  TIP3      H1             32.8085912142      -13.1103357020        4.3722613663  W2        1544            0.0000000000
      4632      1544  TIP3      H2             33.1671112142      -12.0722457020        3.3302813663  W2        1544            0.0000000000
      4633      1545  TIP3      OH2            34.0851312142       -8.1235557020      -10.6640386337  W2        1545            0.0000000000
      4634      1545  TIP3      H1             34.1272112142       -8.3461657020      -11.5940386337  W2        1545            0.0000000000
      4635      1545  TIP3      H2             34.9343412142       -7.7248457020      -10.4740486337  W2        1545            0.0000000000
      4636      1546  TIP3      OH2            29.6578812142      -14.2477357020       -9.9937086337  W2        1546            0.0000000000
      4637      1546  TIP3      H1             29.4043612142      -14.2285757020       -9.0708986337  W2        1546            0.0000000000
      4638      1546  TIP3      H2             29.4010912142      -15.1191957020      -10.2950886337  W2        1546            0.0000000000
      4639      1547  TIP3      OH2            25.4243812142      -11.4966657020        0.4415313663  W2        1547            0.0000000000
      4640      1547  TIP3      H1             24.7825912142      -11.5369357020        1.1505413663  W2        1547            0.0000000000
      4641      1547  TIP3      H2             25.4615812142      -10.5701957020        0.2038313663  W2        1547            0.0000000000
      4642      1548  TIP3      OH2            25.4212912142      -11.2756557020       -4.6464686337  W2        1548            0.0000000000
      4643      1548  TIP3      H1             24.5285812142      -11.6160457020       -4.7050886337  W2        1548            0.0000000000
      4644      1548  TIP3      H2             25.8719512142      -11.6525657020       -5.4021486337  W2        1548            0.0000000000
      4645      1549  TIP3      OH2            30.9568412142      -10.8596257020       -5.8293886337  W2        1549            0.0000000000
      4646      1549  TIP3      H1             30.5478712142      -10.0447657020       -6.1209086337  W2        1549            0.0000000000
      4647      1549  TIP3      H2             31.6774612142      -10.9996157020       -6.4436786337  W2        1549            0.0000000000
      4648      1550  TIP3      OH2            30.0590012142      -10.6839857020        5.6586813663  W2        1550            0.0000000000
      4649      1550  TIP3      H1             29.4963812142      -11.3888257020        5.9794613663  W2        1550            0.0000000000
      4650      1550  TIP3      H2             30.8853412142      -10.8047957020        6.1264413663  W2        1550            0.0000000000
      4651      1551  TIP3      OH2            31.9616112142      -11.4135857020       -3.0154186337  W2        1551            0.0000000000
      4652      1551  TIP3      H1             31.7660612142      -10.8079057020       -3.7303586337  W2        1551            0.0000000000
      4653      1551  TIP3      H2             32.1428712142      -12.2470657020       -3.4497886337  W2        1551            0.0000000000
      4654      1552  TIP3      OH2            23.1744312142      -11.1763157020        2.3087313663  W2        1552            0.0000000000
      4655      1552  TIP3      H1             23.1363712142      -10.7761557020        3.1774413663  W2        1552            0.0000000000
      4656      1552  TIP3      H2             22.6835412142      -11.9930757020        2.3990213663  W2        1552            0.0000000000
      4657      1553  TIP3      OH2            26.5401712142      -13.8020857020      -10.8926686337  W2        1553            0.0000000000
      4658      1553  TIP3      H1             26.1092412142      -14.2470757020      -10.1629286337  W2        1553            0.0000000000
      4659      1553  TIP3      H2             25.8220412142      -13.4304557020      -11.4049186337  W2        1553            0.0000000000
      4660      1554  TIP3      OH2            19.7825112142      -14.0601357020       -3.8407986337  W2        1554            0.0000000000
      4661      1554  TIP3      H1             20.4132812142      -14.0889257020       -3.1214086337  W2        1554            0.0000000000
      4662      1554  TIP3      H2             20.2319412142      -14.4852657020       -4.5712086337  W2        1554            0.0000000000
      4663      1555  TIP3      OH2            21.0567212142      -13.3139357020       -8.4167586337  W2        1555            0.0000000000
      4664      1555  TIP3      H1             21.5308912142      -12.7229457020       -9.0016686337  W2        1555            0.0000000000
      4665      1555  TIP3      H2             20.3393612142      -12.7836457020       -8.0697486337  W2        1555            0.0000000000
      4666      1556  TIP3      OH2            31.2255312142       -9.7754557020        1.6558213663  W2        1556            0.0000000000
      4667      1556  TIP3      H1             31.5490112142      -10.4064857020        1.0128713663  W2        1556            0.0000000000
      4668      1556  TIP3      H2             30.7854612142      -10.3102357020        2.3165613663  W2        1556            0.0000000000
      4669      1557  TIP3      OH2            28.0028212142      -13.8479057020       -3.5600586337  W2        1557            0.0000000000
      4670      1557  TIP3      H1             27.0919312142      -13.7912257020       -3.2714586337  W2        1557            0.0000000000
      4671      1557  TIP3      H2             28.5081112142      -13.9083557020       -2.7493386337  W2        1557            0.0000000000
      4672      1558  TIP3      OH2            22.8311612142      -12.2192757020       -4.7332986337  W2        1558            0.0000000000
      4673      1558  TIP3      H1             21.9419612142      -12.1197257020       -5.0733386337  W2        1558            0.0000000000
      4674      1558  TIP3      H2             23.1276512142      -13.0609757020       -5.0795086337  W2        1558            0.0000000000
      4675      1559  TIP3      OH2            26.4843412142      -12.2190157020       -7.0768386337  W2        1559            0.0000000000
      4676      1559  TIP3      H1             27.4158912142      -12.0900157020       -6.8985286337  W2        1559            0.0000000000
      4677      1559  TIP3      H2             26.2693712142      -11.5495857020       -7.7263686337  W2        1559            0.0000000000
      4678      1560  TIP3      OH2            32.4080112142      -14.6132757020       -0.2958786337  W2        1560            0.0000000000
      4679      1560  TIP3      H1             31.7311712142      -14.4819657020        0.3680913663  W2        1560            0.0000000000
      4680      1560  TIP3      H2             31.9225012142      -14.7683257020       -1.1061086337  W2        1560            0.0000000000
      4681      1561  TIP3      OH2            25.1583612142      -11.0247957020       -9.5102286337  W2        1561            0.0000000000
      4682      1561  TIP3      H1             24.6158712142      -11.4044157020      -10.2014686337  W2        1561            0.0000000000
      4683      1561  TIP3      H2             25.9918512142      -10.8303257020       -9.9388186337  W2        1561            0.0000000000
      4684      1562  TIP3      OH2            35.6955212142        1.0582642980        5.9808813663  W2        1562            0.0000000000
      4685      1562  TIP3      H1             35.8953912142        1.4824542980        5.1464113663  W2        1562            0.0000000000
      4686      1562  TIP3      H2             36.3508912142        1.4020842980        6.5879213663  W2        1562            0.0000000000
      4687      1563  TIP3      OH2            23.2935012142       -6.4676057020        5.5889313663  W2        1563            0.0000000000
      4688      1563  TIP3      H1             24.0257412142       -6.2130157020        6.1503813663  W2        1563            0.0000000000
      4689      1563  TIP3      H2             22.5133712142       -6.2630657020        6.1044713663  W2        1563            0.0000000000
      4690      1564  TIP3      OH2            29.3227912142      -11.0606057020       -1.6730986337  W2        1564            0.0000000000
      4691      1564  TIP3      H1             29.8871312142      -11.6069457020       -2.2201386337  W2        1564            0.0000000000
      4692      1564  TIP3      H2             29.1751312142      -11.5824157020       -0.8843386337  W2        1564            0.0000000000
      4693      1565  TIP3      OH2            24.3247612142      -14.9239957020       -5.2546186337  W2        1565            0.0000000000
      4694      1565  TIP3      H1             24.0077112142      -15.8264657020       -5.2900786337  W2        1565            0.0000000000
      4695      1565  TIP3      H2             25.1061712142      -14.9222557020       -5.8074586337  W2        1565            0.0000000000
      4696      1566  TIP3      OH2            27.9493812142      -12.6719957020        0.7409413663  W2        1566            0.0000000000
      4697      1566  TIP3      H1             27.1139112142      -12.2180457020        0.8511813663  W2        1566            0.0000000000
      4698      1566  TIP3      H2             28.4734412142      -12.3961457020        1.4929313663  W2        1566            0.0000000000
      4699      1567  TIP3      OH2            28.4936412142       -6.4592257020       -7.5744186337  W2        1567            0.0000000000
      4700      1567  TIP3      H1             27.7487412142       -6.9666957020       -7.8966286337  W2        1567            0.0000000000
      4701      1567  TIP3      H2             28.3593612142       -6.4104257020       -6.6279386337  W2        1567            0.0000000000
      4702      1568  TIP3      OH2            35.6435312142       -7.3264057020        1.2123413663  W2        1568            0.0000000000
      4703      1568  TIP3      H1             36.2854112142       -6.8697757020        0.6685613663  W2        1568            0.0000000000
      4704      1568  TIP3      H2             34.8132212142       -7.2131657020        0.7497513663  W2        1568            0.0000000000
      4705      1569  TIP3      OH2            32.3913212142      -13.6452357020       -9.3751586337  W2        1569            0.0000000000
      4706      1569  TIP3      H1             31.4527412142      -13.5336757020       -9.5262786337  W2        1569            0.0000000000
      4707      1569  TIP3      H2             32.6885312142      -12.7885457020       -9.0685886337  W2        1569            0.0000000000
      4708      1570  TIP3      OH2            30.0128512142       -6.2748957020        3.6624913663  W2        1570            0.0000000000
      4709      1570  TIP3      H1             29.6674612142       -6.6566557020        4.4694513663  W2        1570            0.0000000000
      4710      1570  TIP3      H2             29.8128612142       -5.3415357020        3.7337813663  W2        1570            0.0000000000
      4711      1571  TIP3      OH2            33.1096712142      -11.7779657020       -7.7144186337  W2        1571            0.0000000000
      4712      1571  TIP3      H1             34.0015712142      -11.9154657020       -7.3952986337  W2        1571            0.0000000000
      4713      1571  TIP3      H2             33.1660312142      -10.9873557020       -8.2510686337  W2        1571            0.0000000000
      4714      1572  TIP3      OH2            23.6184712142       -7.1642257020       -1.8046286337  W2        1572            0.0000000000
      4715      1572  TIP3      H1             24.3631912142       -7.1666557020       -2.4059786337  W2        1572            0.0000000000
      4716      1572  TIP3      H2             23.6961312142       -7.9878457020       -1.3231186337  W2        1572            0.0000000000
      4717      1573  TIP3      OH2            30.6190512142       -5.0007957020       -8.5489586337  W2        1573            0.0000000000
      4718      1573  TIP3      H1             30.3238912142       -4.1740057020       -8.1674786337  W2        1573            0.0000000000
      4719      1573  TIP3      H2             29.9160512142       -5.6201057020       -8.3528186337  W2        1573            0.0000000000
      4720      1574  TIP3      OH2            20.6264412142       -8.7035357020        3.5102213663  W2        1574            0.0000000000
      4721      1574  TIP3      H1             20.8493012142       -9.1215757020        4.3419713663  W2        1574            0.0000000000
      4722      1574  TIP3      H2             20.0244512142       -9.3160357020        3.0875013663  W2        1574            0.0000000000
      4723      1575  TIP3      OH2            27.6429312142       -9.1865457020        5.7231913663  W2        1575            0.0000000000
      4724      1575  TIP3      H1             27.3470112142       -9.3522457020        4.8281013663  W2        1575            0.0000000000
      4725      1575  TIP3      H2             28.5744512142       -9.4065157020        5.7125813663  W2        1575            0.0000000000
      4726      1576  TIP3      OH2            32.2632112142       -3.8133457020        3.6129913663  W2        1576            0.0000000000
      4727      1576  TIP3      H1             31.3626412142       -3.6300857020        3.3453813663  W2        1576            0.0000000000
      4728      1576  TIP3      H2             32.2973212142       -3.5544157020        4.5338713663  W2        1576            0.0000000000
      4729      1577  TIP3      OH2            36.2897112142       -2.7825157020       -7.5545386337  W2        1577            0.0000000000
      4730      1577  TIP3      H1             35.9168212142       -3.6081357020       -7.2454786337  W2        1577            0.0000000000
      4731      1577  TIP3      H2             36.5670612142       -2.9655757020       -8.4521986337  W2        1577            0.0000000000
      4732      1578  TIP3      OH2            33.4501012142       -7.9745657020       -0.5333486337  W2        1578            0.0000000000
      4733      1578  TIP3      H1             32.5217912142       -8.2063757020       -0.5604186337  W2        1578            0.0000000000
      4734      1578  TIP3      H2             33.9012112142       -8.7515857020       -0.8634686337  W2        1578            0.0000000000
      4735      1579  TIP3      OH2            25.9934112142       -3.6464057020       -4.4004786337  W2        1579            0.0000000000
      4736      1579  TIP3      H1             26.5206312142       -2.8729657020       -4.6005986337  W2        1579            0.0000000000
      4737      1579  TIP3      H2             25.1132612142       -3.4214857020       -4.7020786337  W2        1579            0.0000000000
      4738      1580  TIP3      OH2            21.7481812142       -8.7839957020       -9.8132386337  W2        1580            0.0000000000
      4739      1580  TIP3      H1             22.3641712142       -8.1572757020       -9.4337586337  W2        1580            0.0000000000
      4740      1580  TIP3      H2             20.8864412142       -8.4680157020       -9.5415886337  W2        1580            0.0000000000
      4741      1581  TIP3      OH2            27.4206412142       -5.9834157020       -4.8240486337  W2        1581            0.0000000000
      4742      1581  TIP3      H1             27.1796412142       -5.0579757020       -4.7825186337  W2        1581            0.0000000000
      4743      1581  TIP3      H2             26.6800012142       -6.4422857020       -4.4276586337  W2        1581            0.0000000000
      4744      1582  TIP3      OH2            27.9353012142       -1.8340557020        1.4910613663  W2        1582            0.0000000000
      4745      1582  TIP3      H1             28.2977712142       -0.9794957020        1.2575013663  W2        1582            0.0000000000
      4746      1582  TIP3      H2             28.4668212142       -2.1258957020        2.2316913663  W2        1582            0.0000000000
      4747      1583  TIP3      OH2            26.1037212142       -0.9616557020       -5.2788286337  W2        1583            0.0000000000
      4748      1583  TIP3      H1             25.1537712142       -0.8559157020       -5.2274986337  W2        1583            0.0000000000
      4749      1583  TIP3      H2             26.4555312142       -0.1409157020       -4.9340786337  W2        1583            0.0000000000
      4750      1584  TIP3      OH2            31.4793812142       -5.7349857020        1.1916213663  W2        1584            0.0000000000
      4751      1584  TIP3      H1             31.0535112142       -5.9628157020        2.0180213663  W2        1584            0.0000000000
      4752      1584  TIP3      H2             32.0599612142       -6.4738057020        1.0091513663  W2        1584            0.0000000000
      4753      1585  TIP3      OH2            33.6822712142       -4.8059357020       -9.7344786337  W2        1585            0.0000000000
      4754      1585  TIP3      H1             34.0355812142       -5.1859557020       -8.9301286337  W2        1585            0.0000000000
      4755      1585  TIP3      H2             32.7336212142       -4.8994557020       -9.6475486337  W2        1585            0.0000000000
      4756      1586  TIP3      OH2            34.1378012142       -1.1830357020        3.6611013663  W2        1586            0.0000000000
      4757      1586  TIP3      H1             33.5361212142       -1.7387457020        3.1657313663  W2        1586            0.0000000000
      4758      1586  TIP3      H2             34.4191712142       -0.5160557020        3.0348413663  W2        1586            0.0000000000
      4759      1587  TIP3      OH2            22.2603912142      -13.9502657020        3.0683613663  W2        1587            0.0000000000
      4760      1587  TIP3      H1             21.3676212142      -13.6117257020        3.0007613663  W2        1587            0.0000000000
      4761      1587  TIP3      H2             22.1616712142      -14.8056557020        3.4864413663  W2        1587            0.0000000000
      4762      1588  TIP3      OH2            34.5482012142       -6.1337357020       -7.5076886337  W2        1588            0.0000000000
      4763      1588  TIP3      H1             34.2709612142       -6.8618057020       -6.9515786337  W2        1588            0.0000000000
      4764      1588  TIP3      H2             35.4755012142       -6.0145357020       -7.3024286337  W2        1588            0.0000000000
      4765      1589  TIP3      OH2            21.9115912142       -2.1458257020        1.5033013663  W2        1589            0.0000000000
      4766      1589  TIP3      H1             22.1286212142       -3.0775857020        1.4722713663  W2        1589            0.0000000000
      4767      1589  TIP3      H2             22.1579412142       -1.8713257020        2.3865813663  W2        1589            0.0000000000
      4768      1590  TIP3      OH2            27.7730512142       -3.6943257020      -11.2874786337  W2        1590            0.0000000000
      4769      1590  TIP3      H1             28.0120312142       -4.4425157020      -11.8345886337  W2        1590            0.0000000000
      4770      1590  TIP3      H2             27.5041812142       -4.0821557020      -10.4546986337  W2        1590            0.0000000000
      4771      1591  TIP3      OH2            26.7101112142       -4.1239457020       -8.8312186337  W2        1591            0.0000000000
      4772      1591  TIP3      H1             26.8569112142       -4.6439657020       -8.0411286337  W2        1591            0.0000000000
      4773      1591  TIP3      H2             26.7072812142       -3.2171857020       -8.5246286337  W2        1591            0.0000000000
      4774      1592  TIP3      OH2            23.1632212142       -6.8716157020       -8.3206786337  W2        1592            0.0000000000
      4775      1592  TIP3      H1             22.4771512142       -6.5193657020       -7.7537086337  W2        1592            0.0000000000
      4776      1592  TIP3      H2             23.6860112142       -6.1086557020       -8.5672486337  W2        1592            0.0000000000
      4777      1593  TIP3      OH2            30.9947312142      -14.2092357020        1.9582213663  W2        1593            0.0000000000
      4778      1593  TIP3      H1             31.6935212142      -14.1353657020        2.6081913663  W2        1593            0.0000000000
      4779      1593  TIP3      H2             30.6138712142      -15.0737357020        2.1125113663  W2        1593            0.0000000000
      4780      1594  TIP3      OH2            31.7792212142      -14.5570657020       -6.9445486337  W2        1594            0.0000000000
      4781      1594  TIP3      H1             31.9990512142      -14.0855257020       -7.7480086337  W2        1594            0.0000000000
      4782      1594  TIP3      H2             32.3376212142      -14.1628057020       -6.2744886337  W2        1594            0.0000000000
      4783      1595  TIP3      OH2            29.4478312142       -2.4265857020       -8.0817986337  W2        1595            0.0000000000
      4784      1595  TIP3      H1             28.6314412142       -1.9296157020       -8.0293686337  W2        1595            0.0000000000
      4785      1595  TIP3      H2             29.9774612142       -1.9512357020       -8.7219186337  W2        1595            0.0000000000
      4786      1596  TIP3      OH2            28.9792112142      -12.8291857020       -6.1097086337  W2        1596            0.0000000000
      4787      1596  TIP3      H1             29.7914712142      -12.3248657020       -6.0635386337  W2        1596            0.0000000000
      4788      1596  TIP3      H2             28.7345112142      -12.9742157020       -5.1957486337  W2        1596            0.0000000000
      4789      1597  TIP3      OH2            29.5148512142      -11.8429157020        3.0749513663  W2        1597            0.0000000000
      4790      1597  TIP3      H1             29.6338812142      -11.2693757020        3.8319913663  W2        1597            0.0000000000
      4791      1597  TIP3      H2             30.1703112142      -12.5309757020        3.1897313663  W2        1597            0.0000000000
      4792      1598  TIP3      OH2            29.8628812142      -15.7478857020       -5.1715986337  W2        1598            0.0000000000
      4793      1598  TIP3      H1             29.5162312142      -15.1308257020       -4.5271686337  W2        1598            0.0000000000
      4794      1598  TIP3      H2             30.5215712142      -15.2473157020       -5.6530486337  W2        1598            0.0000000000
      4795      1599  TIP3      OH2            26.7861412142       -1.3828657020       -8.1001086337  W2        1599            0.0000000000
      4796      1599  TIP3      H1             26.9470112142       -0.5831157020       -8.6008486337  W2        1599            0.0000000000
      4797      1599  TIP3      H2             26.5889212142       -1.0762657020       -7.2150486337  W2        1599            0.0000000000
      4798      1600  TIP3      OH2            25.5205812142      -14.6849457020       -8.4843486337  W2        1600            0.0000000000
      4799      1600  TIP3      H1             25.4370612142      -13.7966357020       -8.1377086337  W2        1600            0.0000000000
      4800      1600  TIP3      H2             26.4106112142      -14.9502757020       -8.2526686337  W2        1600            0.0000000000
      4801      1601  TIP3      OH2            35.7194312142      -13.9358857020        3.9099213663  W2        1601            0.0000000000
      4802      1601  TIP3      H1             34.8030112142      -13.6737157020        3.8222913663  W2        1601            0.0000000000
      4803      1601  TIP3      H2             36.0549312142      -13.9389857020        3.0134513663  W2        1601            0.0000000000
      4804      1602  TIP3      OH2            34.3215312142      -10.1857857020       -1.9943486337  W2        1602            0.0000000000
      4805      1602  TIP3      H1             33.5239712142      -10.6007657020       -2.3228486337  W2        1602            0.0000000000
      4806      1602  TIP3      H2             34.7666412142      -10.8764157020       -1.5032986337  W2        1602            0.0000000000
      4807      1603  TIP3      OH2            23.7791112142       -4.2577257020       -9.4238986337  W2        1603            0.0000000000
      4808      1603  TIP3      H1             24.3712612142       -3.5582457020       -9.1476586337  W2        1603            0.0000000000
      4809      1603  TIP3      H2             24.2384112142       -4.6907757020      -10.1434386337  W2        1603            0.0000000000
      4810      1604  TIP3      OH2            22.0950312142      -11.5934257020      -10.3079586337  W2        1604            0.0000000000
      4811      1604  TIP3      H1             22.0502912142      -10.6541157020      -10.1292586337  W2        1604            0.0000000000
      4812      1604  TIP3      H2             21.2073512142      -11.8289357020      -10.5777486337  W2        1604            0.0000000000
      4813      1605  TIP3      OH2            35.4079912142       -0.9295357020       -0.3719986337  W2        1605            0.0000000000
      4814      1605  TIP3      H1             35.2524212142       -0.2510957020       -1.0290686337  W2        1605            0.0000000000
      4815      1605  TIP3      H2             36.3406312142       -0.8576057020       -0.1689386337  W2        1605            0.0000000000
      4816      1606  TIP3      OH2            22.9032312142      -16.8117657020       -1.6348586337  W2        1606            0.0000000000
      4817      1606  TIP3      H1             22.6742112142      -16.7525157020       -2.5623586337  W2        1606            0.0000000000
      4818      1606  TIP3      H2             22.4605712142      -17.6032157020       -1.3284486337  W2        1606            0.0000000000
      4819      1607  TIP3      OH2            21.8335612142       -2.8710557020       -5.4742786337  W2        1607            0.0000000000
      4820      1607  TIP3      H1             21.0014212142       -2.3987857020       -5.4471386337  W2        1607            0.0000000000
      4821      1607  TIP3      H2             22.3793912142       -2.3612957020       -6.0729686337  W2        1607            0.0000000000
      4822      1608  TIP3      OH2            21.1219312142       -0.2586857020        5.8555213663  W2        1608            0.0000000000
      4823      1608  TIP3      H1             21.6621512142       -0.4752857020        6.6154413663  W2        1608            0.0000000000
      4824      1608  TIP3      H2             20.6407312142       -1.0640857020        5.6657713663  W2        1608            0.0000000000
      4825      1609  TIP3      OH2            25.7192712142       -1.3392457020        7.4759413663  W2        1609            0.0000000000
      4826      1609  TIP3      H1             26.4869912142       -1.7981657020        7.8168613663  W2        1609            0.0000000000
      4827      1609  TIP3      H2             25.6978912142       -1.5652657020        6.5460613663  W2        1609            0.0000000000
      4828      1610  TIP3      OH2            29.8112312142       -1.8311857020      -11.1488786337  W2        1610            0.0000000000
      4829      1610  TIP3      H1             29.1673312142       -2.4623257020      -10.8275086337  W2        1610            0.0000000000
      4830      1610  TIP3      H2             30.5730612142       -2.3623857020      -11.3805286337  W2        1610            0.0000000000
      4831      1611  TIP3      OH2            32.2961412142       -2.9591357020        6.2050913663  W2        1611            0.0000000000
      4832      1611  TIP3      H1             31.9450912142       -3.8158357020        6.4481313663  W2        1611            0.0000000000
      4833      1611  TIP3      H2             33.0224612142       -2.8164657020        6.8119913663  W2        1611            0.0000000000
      4834      1612  TIP3      OH2            34.4155212142       -2.0141957020      -10.9150786337  W2        1612            0.0000000000
      4835      1612  TIP3      H1             34.6985612142       -2.8086757020      -10.4623886337  W2        1612            0.0000000000
      4836      1612  TIP3      H2             35.1553112142       -1.7810957020      -11.4759686337  W2        1612            0.0000000000
      4837      1613  TIP3      OH2            21.0288812142       -6.4482757020        6.8099513663  W2        1613            0.0000000000
      4838      1613  TIP3      H1             21.1729312142       -7.3502057020        6.5236213663  W2        1613            0.0000000000
      4839      1613  TIP3      H2             20.2566212142       -6.1620657020        6.3221813663  W2        1613            0.0000000000
      4840      1614  TIP3      OH2            25.3702512142       -6.1047057020      -11.0575886337  W2        1614            0.0000000000
      4841      1614  TIP3      H1             25.4346612142       -6.8987457020      -10.5269486337  W2        1614            0.0000000000
      4842      1614  TIP3      H2             26.0231712142       -6.2234257020      -11.7473886337  W2        1614            0.0000000000
      4843      1615  TIP3      OH2            27.6844912142       -6.4784657020        6.2425913663  W2        1615            0.0000000000
      4844      1615  TIP3      H1             27.3558712142       -6.2076557020        5.3853313663  W2        1615            0.0000000000
      4845      1615  TIP3      H2             27.8363112142       -7.4194857020        6.1550913663  W2        1615            0.0000000000
      4846      1616  TIP3      OH2            30.7225912142       -5.0575357020      -11.3217886337  W2        1616            0.0000000000
      4847      1616  TIP3      H1             30.4540012142       -4.8773257020      -10.4208986337  W2        1616            0.0000000000
      4848      1616  TIP3      H2             30.5161512142       -5.9829157020      -11.4532086337  W2        1616            0.0000000000
      4849      1617  TIP3      OH2            33.4190112142       -6.5627357020        3.6258213663  W2        1617            0.0000000000
      4850      1617  TIP3      H1             34.1644912142       -5.9743657020        3.5062213663  W2        1617            0.0000000000
      4851      1617  TIP3      H2             32.6616912142       -5.9807657020        3.6891313663  W2        1617            0.0000000000
      4852      1618  TIP3      OH2            21.8615312142       -9.2479457020        6.2298813663  W2        1618            0.0000000000
      4853      1618  TIP3      H1             22.2696512142      -10.1052857020        6.1089413663  W2        1618            0.0000000000
      4854      1618  TIP3      H2             21.6012912142       -9.2338157020        7.1509113663  W2        1618            0.0000000000
      4855      1619  TIP3      OH2            26.5196312142       -8.1320857020       -8.7517886337  W2        1619            0.0000000000
      4856      1619  TIP3      H1             26.0598312142       -8.6162557020       -8.0659386337  W2        1619            0.0000000000
      4857      1619  TIP3      H2             26.7745012142       -8.8005457020       -9.3877386337  W2        1619            0.0000000000
      4858      1620  TIP3      OH2            25.8085612142      -10.2393757020        3.6041713663  W2        1620            0.0000000000
      4859      1620  TIP3      H1             25.1901712142       -9.5647157020        3.8846413663  W2        1620            0.0000000000
      4860      1620  TIP3      H2             26.1526812142       -9.9179857020        2.7707913663  W2        1620            0.0000000000
      4861      1621  TIP3      OH2            27.5906712142       -9.8889057020      -10.4894686337  W2        1621            0.0000000000
      4862      1621  TIP3      H1             27.4101712142      -10.0437857020      -11.4166386337  W2        1621            0.0000000000
      4863      1621  TIP3      H2             28.5407212142       -9.7810357020      -10.4446786337  W2        1621            0.0000000000
      4864      1622  TIP3      OH2            30.8283812142       -7.7678457020        6.8816513663  W2        1622            0.0000000000
      4865      1622  TIP3      H1             31.7815012142       -7.6839357020        6.8542513663  W2        1622            0.0000000000
      4866      1622  TIP3      H2             30.6678412142       -8.4796657020        7.5011413663  W2        1622            0.0000000000
      4867      1623  TIP3      OH2            26.1479312142      -12.8842957020        4.6864813663  W2        1623            0.0000000000
      4868      1623  TIP3      H1             26.2980212142      -13.6131657020        4.0844513663  W2        1623            0.0000000000
      4869      1623  TIP3      H2             26.1501712142      -12.1071257020        4.1277013663  W2        1623            0.0000000000
      4870      1624  TIP3      OH2            26.5605012142      -14.5147157020        2.1792213663  W2        1624            0.0000000000
      4871      1624  TIP3      H1             27.0962512142      -14.0630457020        1.5271513663  W2        1624            0.0000000000
      4872      1624  TIP3      H2             25.7084612142      -14.6227357020        1.7566313663  W2        1624            0.0000000000
      4873      1625  TIP3      OH2            28.1423412142       -9.0750957020        2.4187413663  W2        1625            0.0000000000
      4874      1625  TIP3      H1             28.8928212142       -9.2313457020        1.8455213663  W2        1625            0.0000000000
      4875      1625  TIP3      H2             27.8031712142       -8.2234357020        2.1432913663  W2        1625            0.0000000000
      4876      1626  TIP3      OH2            32.5579612142      -11.2599157020        7.4472713663  W2        1626            0.0000000000
      4877      1626  TIP3      H1             32.7500912142      -12.1909757020        7.3357213663  W2        1626            0.0000000000
      4878      1626  TIP3      H2             33.4155912142      -10.8349657020        7.4368113663  W2        1626            0.0000000000
      4879      1627  TIP3      OH2            33.8746812142       -8.4713957020        5.5245413663  W2        1627            0.0000000000
      4880      1627  TIP3      H1             33.5931812142       -7.7619357020        4.9469213663  W2        1627            0.0000000000
      4881      1627  TIP3      H2             34.8171112142       -8.5440957020        5.3736613663  W2        1627            0.0000000000
      4882      1628  TIP3      OH2            24.6265612142      -11.6859457020        6.5980413663  W2        1628            0.0000000000
      4883      1628  TIP3      H1             23.8594612142      -12.2184657020        6.3878013663  W2        1628            0.0000000000
      4884      1628  TIP3      H2             25.3054612142      -11.9959057020        5.9986713663  W2        1628            0.0000000000
      4885      1629  TIP3      OH2            27.3660512142      -17.0581457020        2.6105813663  W2        1629            0.0000000000
      4886      1629  TIP3      H1             27.2680112142      -16.1118257020        2.5052013663  W2        1629            0.0000000000
      4887      1629  TIP3      H2             26.6236712142      -17.4307657020        2.1349313663  W2        1629            0.0000000000
      4888      1630  TIP3      OH2            28.6301012142      -12.7366057020        6.1744213663  W2        1630            0.0000000000
      4889      1630  TIP3      H1             28.3946412142      -12.9559357020        7.0759113663  W2        1630            0.0000000000
      4890      1630  TIP3      H2             27.8467912142      -12.9434857020        5.6646713663  W2        1630            0.0000000000
      4891      1631  TIP3      OH2            31.3457612142      -13.6092557020        5.2497713663  W2        1631            0.0000000000
      4892      1631  TIP3      H1             30.3983012142      -13.5772857020        5.3821013663  W2        1631            0.0000000000
      4893      1631  TIP3      H2             31.6584312142      -14.2345457020        5.9035913663  W2        1631            0.0000000000
      4894      1632  TIP3      OH2            32.9799112142      -14.9751457020        7.2549613663  W2        1632            0.0000000000
      4895      1632  TIP3      H1             32.8830912142      -15.9274157020        7.2491513663  W2        1632            0.0000000000
      4896      1632  TIP3      H2             32.6582212142      -14.7064657020        8.1155113663  W2        1632            0.0000000000
      4897      1633  TIP3      OH2            22.8068412142      -13.7655657020        6.3025113663  W2        1633            0.0000000000
      4898      1633  TIP3      H1             23.0185812142      -14.4719557020        5.6922613663  W2        1633            0.0000000000
      4899      1633  TIP3      H2             22.6955912142      -14.2029657020        7.1466313663  W2        1633            0.0000000000
      4900      1634  TIP3      OH2            27.5878612142      -17.7644057020        5.2818613663  W2        1634            0.0000000000
      4901      1634  TIP3      H1             28.2997012142      -18.4041857020        5.2677713663  W2        1634            0.0000000000
      4902      1634  TIP3      H2             27.4869012142      -17.4975757020        4.3681713663  W2        1634            0.0000000000
      4903      1635  TIP3      OH2            27.9416112142      -16.0815657020        7.3354913663  W2        1635            0.0000000000
      4904      1635  TIP3      H1             27.8098312142      -16.5571857020        6.5153413663  W2        1635            0.0000000000
      4905      1635  TIP3      H2             27.3423512142      -15.3372057020        7.2802013663  W2        1635            0.0000000000
      4906      1636  TIP3      OH2            27.4878412142        0.8014642980       -9.4881086337  W2        1636            0.0000000000
      4907      1636  TIP3      H1             28.4209112142        0.9593342980       -9.3442686337  W2        1636            0.0000000000
      4908      1636  TIP3      H2             27.2237212142        1.4767642980      -10.1129586337  W2        1636            0.0000000000
      4909      1637  TIP3      OH2            21.0563312142       -4.5621557020      -10.0052986337  W2        1637            0.0000000000
      4910      1637  TIP3      H1             21.9702512142       -4.4832657020       -9.7319086337  W2        1637            0.0000000000
      4911      1637  TIP3      H2             21.0636412142       -5.2491957020      -10.6717386337  W2        1637            0.0000000000
      4912      1638  TIP3      OH2            19.7053912142        0.8306942980       -4.9279086337  W2        1638            0.0000000000
      4913      1638  TIP3      H1             19.0581012142        0.3688642980       -5.4607886337  W2        1638            0.0000000000
      4914      1638  TIP3      H2             20.0598512142        0.1590242980       -4.3452886337  W2        1638            0.0000000000
      4915      1639  TIP3      OH2            20.5753112142       -1.0886057020       -3.1232886337  W2        1639            0.0000000000
      4916      1639  TIP3      H1             20.2409912142       -1.9688757020       -2.9512686337  W2        1639            0.0000000000
      4917      1639  TIP3      H2             20.7975512142       -0.7431057020       -2.2587286337  W2        1639            0.0000000000
      4918      1640  TIP3      OH2            36.1378112142       -4.9220457020        7.4171313663  W2        1640            0.0000000000
      4919      1640  TIP3      H1             35.2719212142       -5.0270757020        7.8113613663  W2        1640            0.0000000000
      4920      1640  TIP3      H2             36.5144012142       -4.1637157020        7.8636013663  W2        1640            0.0000000000
      4921      1641  TIP3      OH2            36.0786912142       -2.9494357020        2.0095513663  W2        1641            0.0000000000
      4922      1641  TIP3      H1             35.4312212142       -2.6242857020        2.6350713663  W2        1641            0.0000000000
      4923      1641  TIP3      H2             35.5610912142       -3.3896657020        1.3353813663  W2        1641            0.0000000000
      4924      1642  TIP3      OH2            36.4505512142      -11.4715257020      -10.3032086337  W2        1642            0.0000000000
      4925      1642  TIP3      H1             36.5469912142      -10.8048257020      -10.9832386337  W2        1642            0.0000000000
      4926      1642  TIP3      H2             36.3105112142      -12.2868957020      -10.7846586337  W2        1642            0.0000000000
      4927      1643  TIP3      OH2            35.6200212142      -10.0912857020       -4.6821786337  W2        1643            0.0000000000
      4928      1643  TIP3      H1             35.4699012142      -11.0364257020       -4.7023986337  W2        1643            0.0000000000
      4929      1643  TIP3      H2             35.2664712142       -9.8101457020       -3.8382686337  W2        1643            0.0000000000
      4930      1644  TIP3      OH2            20.6552612142       -8.0130657020       -0.6717986337  W2        1644            0.0000000000
      4931      1644  TIP3      H1             20.8395512142       -8.0948957020       -1.6075086337  W2        1644            0.0000000000
      4932      1644  TIP3      H2             21.5045512142       -8.1373657020       -0.2481586337  W2        1644            0.0000000000
      4933      1645  TIP3      OH2            36.4763112142       -8.1209557020        4.9566513663  W2        1645            0.0000000000
      4934      1645  TIP3      H1             37.0590412142       -8.8557257020        5.1483713663  W2        1645            0.0000000000
      4935      1645  TIP3      H2             37.0402412142       -7.3489257020        5.0032313663  W2        1645            0.0000000000
      4936      1646  TIP3      OH2            35.6979312142      -14.0635457020      -11.1856586337  W2        1646            0.0000000000
      4937      1646  TIP3      H1             36.3085112142      -14.4348657020      -10.5488386337  W2        1646            0.0000000000
      4938      1646  TIP3      H2             34.8610812142      -14.4848557020      -10.9896586337  W2        1646            0.0000000000
      4939      1647  TIP3      OH2            35.3305012142      -12.5087057020       -6.2196686337  W2        1647            0.0000000000
      4940      1647  TIP3      H1             35.6102112142      -13.4156657020       -6.0954986337  W2        1647            0.0000000000
      4941      1647  TIP3      H2             36.0896712142      -12.0745557020       -6.6087486337  W2        1647            0.0000000000
      4942      1648  TIP3      OH2            35.9423312142      -11.9269657020       -0.7837786337  W2        1648            0.0000000000
      4943      1648  TIP3      H1             36.8751312142      -11.7149757020       -0.8181786337  W2        1648            0.0000000000
      4944      1648  TIP3      H2             35.7070812142      -11.8257557020        0.1385213663  W2        1648            0.0000000000
      4945      1649  TIP3      OH2            35.9715212142      -11.1904357020        1.9921613663  W2        1649            0.0000000000
      4946      1649  TIP3      H1             35.1286512142      -10.9223957020        2.3581413663  W2        1649            0.0000000000
      4947      1649  TIP3      H2             36.4139512142      -10.3682457020        1.7812713663  W2        1649            0.0000000000
      4948      1650  TIP3      OH2            20.2527412142      -12.7425657020        5.4690813663  W2        1650            0.0000000000
      4949      1650  TIP3      H1             21.1722312142      -12.8647357020        5.7053913663  W2        1650            0.0000000000
      4950      1650  TIP3      H2             19.8031912142      -13.4925957020        5.8584313663  W2        1650            0.0000000000
      4951      1651  TIP3      OH2            35.9439812142      -15.2457757020       -6.1714686337  W2        1651            0.0000000000
      4952      1651  TIP3      H1             36.1264812142      -15.6946257020       -5.3459686337  W2        1651            0.0000000000
      4953      1651  TIP3      H2             35.3442712142      -15.8303357020       -6.6350086337  W2        1651            0.0000000000
      4954      1652  TIP3      OH2            21.4739912142      -14.4304057020       -1.6396286337  W2        1652            0.0000000000
      4955      1652  TIP3      H1             21.9191512142      -15.2221557020       -1.3376586337  W2        1652            0.0000000000
      4956      1652  TIP3      H2             21.9402912142      -13.7138857020       -1.2090686337  W2        1652            0.0000000000
      4957      1653  TIP3      OH2            19.7780212142      -11.4311057020       -0.5706086337  W2        1653            0.0000000000
      4958      1653  TIP3      H1             20.2700012142      -11.6520557020       -1.3614086337  W2        1653            0.0000000000
      4959      1653  TIP3      H2             20.1401112142      -10.5907657020       -0.2896586337  W2        1653            0.0000000000
      4960      1654  TIP3      OH2            20.0916712142      -15.1731957020       -6.5163686337  W2        1654            0.0000000000
      4961      1654  TIP3      H1             19.1665112142      -14.9645357020       -6.6458186337  W2        1654            0.0000000000
      4962      1654  TIP3      H2             20.5456612142      -14.6891157020       -7.2061386337  W2        1654            0.0000000000
      4963      1655  TIP3      OH2            34.8623912142       -0.1890257020       -4.5706286337  W2        1655            0.0000000000
      4964      1655  TIP3      H1             35.5146812142       -0.5368157020       -5.1787186337  W2        1655            0.0000000000
      4965      1655  TIP3      H2             35.3727712142        0.2992942980       -3.9246586337  W2        1655            0.0000000000
      4966      1656  TIP3      OH2            20.0552112142      -16.4352957020        1.8278813663  W2        1656            0.0000000000
      4967      1656  TIP3      H1             19.3902612142      -16.6812657020        2.4709713663  W2        1656            0.0000000000
      4968      1656  TIP3      H2             19.6123412142      -15.8132557020        1.2506813663  W2        1656            0.0000000000
      4969      1657  TIP3      OH2            22.2471412142       -3.2598857020        5.9724613663  W2        1657            0.0000000000
      4970      1657  TIP3      H1             21.4263912142       -3.0852357020        5.5119313663  W2        1657            0.0000000000
      4971      1657  TIP3      H2             21.9949212142       -3.3334157020        6.8929013663  W2        1657            0.0000000000
      4972      1658  TIP3      OH2            25.2014312142       -2.2857657020        2.2308613663  W2        1658            0.0000000000
      4973      1658  TIP3      H1             24.7765412142       -1.4759157020        1.9483213663  W2        1658            0.0000000000
      4974      1658  TIP3      H2             26.1057112142       -2.2003557020        1.9288413663  W2        1658            0.0000000000
      4975      1659  TIP3      OH2            29.5125712142       -0.8867657020        5.1902313663  W2        1659            0.0000000000
      4976      1659  TIP3      H1             29.6973212142       -1.2201557020        6.0682613663  W2        1659            0.0000000000
      4977      1659  TIP3      H2             30.3590212142       -0.5769057020        4.8681513663  W2        1659            0.0000000000
      4978      1660  TIP3      OH2            31.8576112142        0.3991242980        4.4343713663  W2        1660            0.0000000000
      4979      1660  TIP3      H1             32.5345012142       -0.2336457020        4.1942913663  W2        1660            0.0000000000
      4980      1660  TIP3      H2             32.1794912142        0.8001742980        5.2417013663  W2        1660            0.0000000000
      4981      1661  TIP3      OH2            22.6031012142        0.9706242980        2.2783913663  W2        1661            0.0000000000
      4982      1661  TIP3      H1             21.8827412142        1.4107242980        1.8271613663  W2        1661            0.0000000000
      4983      1661  TIP3      H2             22.2375012142        0.7200942980        3.1267913663  W2        1661            0.0000000000
      4984      1662  TIP3      OH2            25.0703612142        0.5710142980        1.3081113663  W2        1662            0.0000000000
      4985      1662  TIP3      H1             24.2055812142        0.6428642980        1.7121213663  W2        1662            0.0000000000
      4986      1662  TIP3      H2             25.0152612142        1.1177442980        0.5243613663  W2        1662            0.0000000000
      4987      1663  TIP3      OH2            29.7809212142        0.4589042980        0.4837113663  W2        1663            0.0000000000
      4988      1663  TIP3      H1             29.3243212142        0.9878742980       -0.1704486337  W2        1663            0.0000000000
      4989      1663  TIP3      H2             29.9437212142        1.0620442980        1.2089413663  W2        1663            0.0000000000
      4990      1664  TIP3      OH2            32.1085512142       -0.6631357020        1.4287413663  W2        1664            0.0000000000
      4991      1664  TIP3      H1             31.2039212142       -0.4981157020        1.1629513663  W2        1664            0.0000000000
      4992      1664  TIP3      H2             32.5374112142        0.1900842980        1.3630813663  W2        1664            0.0000000000
      4993      1665  TIP3      OH2            34.7127412142        0.9067742980        1.7235213663  W2        1665            0.0000000000
      4994      1665  TIP3      H1             34.5309412142        1.8226642980        1.5130113663  W2        1665            0.0000000000
      4995      1665  TIP3      H2             34.8895212142        0.4964842980        0.8769813663  W2        1665            0.0000000000
      4996      1666  TIP3      OH2            22.0179112142       -0.4061257020       -0.8114286337  W2        1666            0.0000000000
      4997      1666  TIP3      H1             21.9995112142       -0.8316157020        0.0458013663  W2        1666            0.0000000000
      4998      1666  TIP3      H2             22.8227012142       -0.7246257020       -1.2202086337  W2        1666            0.0000000000
      4999      1667  TIP3      OH2            24.1592212142       -1.6962557020       -2.1564386337  W2        1667            0.0000000000
      5000      1667  TIP3      H1             23.9402912142       -2.6125157020       -1.9868386337  W2        1667            0.0000000000
      5001      1667  TIP3      H2             24.9834412142       -1.5562157020       -1.6902986337  W2        1667            0.0000000000
      5002      1668  TIP3      OH2            26.6964712142       -1.2263257020       -1.3076386337  W2        1668            0.0000000000
      5003      1668  TIP3      H1             26.9090412142       -2.1144257020       -1.5945486337  W2        1668            0.0000000000
      5004      1668  TIP3      H2             26.7609812142       -1.2605557020       -0.3532386337  W2        1668            0.0000000000
      5005      1669  TIP3      OH2            30.2048412142      -15.5622657020       -2.1633086337  W2        1669            0.0000000000
      5006      1669  TIP3      H1             29.5305212142      -16.1917057020       -1.9077286337  W2        1669            0.0000000000
      5007      1669  TIP3      H2             30.7687612142      -16.0463757020       -2.7665186337  W2        1669            0.0000000000
      5008      1670  TIP3      OH2            35.3475612142      -17.4548657020       -2.0505986337  W2        1670            0.0000000000
      5009      1670  TIP3      H1             35.9513212142      -16.9073257020       -2.5524986337  W2        1670            0.0000000000
      5010      1670  TIP3      H2             34.4777612142      -17.1358257020       -2.2911886337  W2        1670            0.0000000000
      5011      1671  TIP3      OH2            22.5315912142      -16.9282357020       -4.3413186337  W2        1671            0.0000000000
      5012      1671  TIP3      H1             21.7545712142      -17.1627457020       -4.8487286337  W2        1671            0.0000000000
      5013      1671  TIP3      H2             23.0619512142      -17.7250257020       -4.3325186337  W2        1671            0.0000000000
      5014      1672  TIP3      OH2            21.3679312142      -17.1304257020       -8.5377086337  W2        1672            0.0000000000
      5015      1672  TIP3      H1             21.8070012142      -16.5193757020       -9.1293586337  W2        1672            0.0000000000
      5016      1672  TIP3      H2             20.7341712142      -16.5920157020       -8.0637086337  W2        1672            0.0000000000
      5017      1673  TIP3      OH2            27.1108512142      -17.0015257020       -4.5280086337  W2        1673            0.0000000000
      5018      1673  TIP3      H1             27.9851912142      -16.6130957020       -4.5575786337  W2        1673            0.0000000000
      5019      1673  TIP3      H2             26.9749312142      -17.2167457020       -3.6052886337  W2        1673            0.0000000000
      5020      1674  TIP3      OH2            32.6676912142      -16.9715457020       -2.8788386337  W2        1674            0.0000000000
      5021      1674  TIP3      H1             32.7438512142      -16.8763857020       -3.8282386337  W2        1674            0.0000000000
      5022      1674  TIP3      H2             32.3926112142      -17.8792557020       -2.7499286337  W2        1674            0.0000000000
      5023      1675  TIP3      OH2            34.0209512142      -16.9457657020       -7.1863386337  W2        1675            0.0000000000
      5024      1675  TIP3      H1             33.3180612142      -16.3308457020       -7.3961986337  W2        1675            0.0000000000
      5025      1675  TIP3      H2             33.5760912142      -17.7830957020       -7.0552486337  W2        1675            0.0000000000
      5026      1676  TIP3      OH2            21.2688812142       -1.1822057020       -7.6401986337  W2        1676            0.0000000000
      5027      1676  TIP3      H1             20.5838712142       -1.2203157020       -8.3076886337  W2        1676            0.0000000000
      5028      1676  TIP3      H2             21.2726012142       -0.2694457020       -7.3519886337  W2        1676            0.0000000000
      5029      1677  TIP3      OH2            23.2288412142      -15.2142757020      -10.0952986337  W2        1677            0.0000000000
      5030      1677  TIP3      H1             23.7201812142      -15.8440357020      -10.6227486337  W2        1677            0.0000000000
      5031      1677  TIP3      H2             23.8524712142      -14.9183357020       -9.4321786337  W2        1677            0.0000000000
      5032      1678  TIP3      OH2            28.2548512142      -14.9211257020       -7.6382486337  W2        1678            0.0000000000
      5033      1678  TIP3      H1             28.4329812142      -15.5678057020       -6.9553886337  W2        1678            0.0000000000
      5034      1678  TIP3      H2             28.2014712142      -14.0873557020       -7.1711386337  W2        1678            0.0000000000
      5035      1679  TIP3      OH2            30.1332312142        0.0272842980       -9.2425786337  W2        1679            0.0000000000
      5036      1679  TIP3      H1             30.9992512142        0.3940242980       -9.4207586337  W2        1679            0.0000000000
      5037      1679  TIP3      H2             29.8865112142       -0.4119157020      -10.0564986337  W2        1679            0.0000000000
      5038      1680  TIP3      OH2            22.4893912142      -16.4140457020        5.1763013663  W2        1680            0.0000000000
      5039      1680  TIP3      H1             22.1232112142      -17.1797857020        5.6187713663  W2        1680            0.0000000000
      5040      1680  TIP3      H2             23.4022412142      -16.3850257020        5.4628113663  W2        1680            0.0000000000
      5041      1681  TIP3      OH2            24.4624712142      -17.0636057020        6.7120113663  W2        1681            0.0000000000
      5042      1681  TIP3      H1             25.3608312142      -17.3375857020        6.5273513663  W2        1681            0.0000000000
      5043      1681  TIP3      H2             24.0757812142      -17.8060057020        7.1762713663  W2        1681            0.0000000000
      5044      1682  TIP3      OH2            23.0870012142       -0.2621257020      -10.6149886337  W2        1682            0.0000000000
      5045      1682  TIP3      H1             22.8194612142        0.0241642980       -9.7416786337  W2        1682            0.0000000000
      5046      1682  TIP3      H2             23.8582612142       -0.8082057020      -10.4627386337  W2        1682            0.0000000000
      5047      1683  TIP3      OH2            32.8837012142      -17.7310757020        6.8942913663  W2        1683            0.0000000000
      5048      1683  TIP3      H1             32.9604212142      -18.1570057020        7.7480613663  W2        1683            0.0000000000
      5049      1683  TIP3      H2             33.7773612142      -17.7176057020        6.5516413663  W2        1683            0.0000000000
      5050      1684  TIP3      OH2            36.0598112142       -1.6584457020        5.5867113663  W2        1684            0.0000000000
      5051      1684  TIP3      H1             35.2780012142       -1.8446457020        5.0667713663  W2        1684            0.0000000000
      5052      1684  TIP3      H2             35.9878012142       -0.7290157020        5.8039613663  W2        1684            0.0000000000
      5053      1685  TIP3      OH2           -24.9581487858       11.0839942980       -4.3825686337  W2        1685            0.0000000000
      5054      1685  TIP3      H1            -24.8690387858       12.0278142980       -4.5148586337  W2        1685            0.0000000000
      5055      1685  TIP3      H2            -25.5963887858       10.8086342980       -5.0406286337  W2        1685            0.0000000000
      5056      1686  TIP3      OH2           -26.0250187858       10.3390642980       -0.9637486337  W2        1686            0.0000000000
      5057      1686  TIP3      H1            -26.0632687858        9.6926942980       -0.2587886337  W2        1686            0.0000000000
      5058      1686  TIP3      H2            -26.3473687858        9.8725042980       -1.7348786337  W2        1686            0.0000000000
      5059      1687  TIP3      OH2           -33.6565187858        9.9532742980        0.6292413663  W2        1687            0.0000000000
      5060      1687  TIP3      H1            -33.6153087858        9.3276042980        1.3524813663  W2        1687            0.0000000000
      5061      1687  TIP3      H2            -32.9537487858       10.5771342980        0.8112813663  W2        1687            0.0000000000
      5062      1688  TIP3      OH2           -22.3189987858       13.2781042980       -2.6622386337  W2        1688            0.0000000000
      5063      1688  TIP3      H1            -22.7597287858       12.5577042980       -2.2116786337  W2        1688            0.0000000000
      5064      1688  TIP3      H2            -22.3320287858       13.9988242980       -2.0324686337  W2        1688            0.0000000000
      5065      1689  TIP3      OH2           -32.7332087858       14.4031642980       -0.8358486337  W2        1689            0.0000000000
      5066      1689  TIP3      H1            -33.1026887858       13.6012142980       -1.2054186337  W2        1689            0.0000000000
      5067      1689  TIP3      H2            -31.7920987858       14.2346542980       -0.7895086337  W2        1689            0.0000000000
      5068      1690  TIP3      OH2           -36.1231587858        8.0634242980       -5.4429686337  W2        1690            0.0000000000
      5069      1690  TIP3      H1            -36.5708187858        8.9092942980       -5.4613186337  W2        1690            0.0000000000
      5070      1690  TIP3      H2            -36.6840387858        7.4838442980       -5.9584586337  W2        1690            0.0000000000
      5071      1691  TIP3      OH2           -35.4125487858       10.2253842980       -3.3171686337  W2        1691            0.0000000000
      5072      1691  TIP3      H1            -35.1991987858        9.4555442980       -2.7898686337  W2        1691            0.0000000000
      5073      1691  TIP3      H2            -34.6747887858       10.3150542980       -3.9204086337  W2        1691            0.0000000000
      5074      1692  TIP3      OH2           -25.2074487858       18.3822742980       -2.4501986337  W2        1692            0.0000000000
      5075      1692  TIP3      H1            -24.5878087858       17.7057442980       -2.7232786337  W2        1692            0.0000000000
      5076      1692  TIP3      H2            -25.4157087858       18.1643542980       -1.5417086337  W2        1692            0.0000000000
      5077      1693  TIP3      OH2           -27.6355787858       12.7712042980       -0.5576486337  W2        1693            0.0000000000
      5078      1693  TIP3      H1            -27.3317887858       12.0853442980       -1.1522386337  W2        1693            0.0000000000
      5079      1693  TIP3      H2            -26.9141787858       12.8900742980        0.0601513663  W2        1693            0.0000000000
      5080      1694  TIP3      OH2           -18.9725987858        4.3727342980        0.3029713663  W2        1694            0.0000000000
      5081      1694  TIP3      H1            -18.9233787858        4.9828542980        1.0388813663  W2        1694            0.0000000000
      5082      1694  TIP3      H2            -18.5470887858        4.8338242980       -0.4199186337  W2        1694            0.0000000000
      5083      1695  TIP3      OH2           -24.4948787858        7.1654442980       -0.2301686337  W2        1695            0.0000000000
      5084      1695  TIP3      H1            -24.3522887858        6.2191442980       -0.2100086337  W2        1695            0.0000000000
      5085      1695  TIP3      H2            -24.6009787858        7.3724242980       -1.1586786337  W2        1695            0.0000000000
      5086      1696  TIP3      OH2           -31.3400487858        5.2670842980       -2.9576886337  W2        1696            0.0000000000
      5087      1696  TIP3      H1            -31.2969387858        6.1269342980       -3.3760586337  W2        1696            0.0000000000
      5088      1696  TIP3      H2            -31.7976387858        4.7145542980       -3.5913686337  W2        1696            0.0000000000
      5089      1697  TIP3      OH2           -23.6177787858        5.3976442980       -4.5568586337  W2        1697            0.0000000000
      5090      1697  TIP3      H1            -22.9713487858        5.0689642980       -3.9320986337  W2        1697            0.0000000000
      5091      1697  TIP3      H2            -23.1078387858        5.9155442980       -5.1797186337  W2        1697            0.0000000000
      5092      1698  TIP3      OH2           -34.7198987858        7.6636642980       -2.1955486337  W2        1698            0.0000000000
      5093      1698  TIP3      H1            -34.0662387858        7.1138342980       -1.7635386337  W2        1698            0.0000000000
      5094      1698  TIP3      H2            -34.6959687858        7.3895642980       -3.1123486337  W2        1698            0.0000000000
      5095      1699  TIP3      OH2           -29.5634487858        9.2137942980       -2.9803986337  W2        1699            0.0000000000
      5096      1699  TIP3      H1            -28.9473487858        8.6873342980       -2.4709986337  W2        1699            0.0000000000
      5097      1699  TIP3      H2            -30.1495687858        8.5736642980       -3.3840386337  W2        1699            0.0000000000
      5098      1700  TIP3      OH2           -18.5811387858        5.8506542980        2.5389513663  W2        1700            0.0000000000
      5099      1700  TIP3      H1            -19.2696787858        6.5087242980        2.4436113663  W2        1700            0.0000000000
      5100      1700  TIP3      H2            -18.5656787858        5.6534442980        3.4754913663  W2        1700            0.0000000000
      5101      1701  TIP3      OH2           -32.5298587858        4.1849242980        1.1163913663  W2        1701            0.0000000000
      5102      1701  TIP3      H1            -32.7486887858        4.7149842980        0.3499913663  W2        1701            0.0000000000
      5103      1701  TIP3      H2            -33.1977687858        4.4114742980        1.7635313663  W2        1701            0.0000000000
      5104      1702  TIP3      OH2           -25.1608787858       13.6850342980       -5.3396986337  W2        1702            0.0000000000
      5105      1702  TIP3      H1            -25.4563687858       13.3622642980       -6.1910086337  W2        1702            0.0000000000
      5106      1702  TIP3      H2            -25.4850987858       14.5847042980       -5.2984386337  W2        1702            0.0000000000
      5107      1703  TIP3      OH2           -29.9607187858       11.8604942980        1.4037613663  W2        1703            0.0000000000
      5108      1703  TIP3      H1            -30.7008087858       12.4586442980        1.5072813663  W2        1703            0.0000000000
      5109      1703  TIP3      H2            -29.2467687858       12.4144542980        1.0881213663  W2        1703            0.0000000000
      5110      1704  TIP3      OH2           -21.8539387858        4.6885742980       -2.5762686337  W2        1704            0.0000000000
      5111      1704  TIP3      H1            -22.0691387858        3.9229142980       -2.0436686337  W2        1704            0.0000000000
      5112      1704  TIP3      H2            -21.1981987858        5.1610342980       -2.0634186337  W2        1704            0.0000000000
      5113      1705  TIP3      OH2           -32.9361287858        6.0771042980       -0.9313886337  W2        1705            0.0000000000
      5114      1705  TIP3      H1            -32.3224987858        6.7098642980       -0.5581486337  W2        1705            0.0000000000
      5115      1705  TIP3      H2            -32.4240587858        5.6046042980       -1.5876986337  W2        1705            0.0000000000
      5116      1706  TIP3      OH2           -31.5532887858       13.8247942980        2.1909113663  W2        1706            0.0000000000
      5117      1706  TIP3      H1            -31.5585287858       14.7041442980        1.8128413663  W2        1706            0.0000000000
      5118      1706  TIP3      H2            -32.4068787858       13.7412042980        2.6159013663  W2        1706            0.0000000000
      5119      1707  TIP3      OH2           -35.4321987858       13.4955842980       -7.0271586337  W2        1707            0.0000000000
      5120      1707  TIP3      H1            -35.7041087858       13.7246842980       -7.9158686337  W2        1707            0.0000000000
      5121      1707  TIP3      H2            -35.3866287858       14.3334642980       -6.5666286337  W2        1707            0.0000000000
      5122      1708  TIP3      OH2           -21.8072287858       15.1171742980       -0.3143086337  W2        1708            0.0000000000
      5123      1708  TIP3      H1            -22.7488587858       15.1755642980       -0.1526186337  W2        1708            0.0000000000
      5124      1708  TIP3      H2            -21.5306187858       16.0232242980       -0.4513386337  W2        1708            0.0000000000
      5125      1709  TIP3      OH2           -21.5065287858        3.4037042980        1.1030813663  W2        1709            0.0000000000
      5126      1709  TIP3      H1            -22.2426087858        4.0144142980        1.0652113663  W2        1709            0.0000000000
      5127      1709  TIP3      H2            -20.8231287858        3.8186042980        0.5767213663  W2        1709            0.0000000000
      5128      1710  TIP3      OH2           -28.5033887858        1.4904342980       -1.4311186337  W2        1710            0.0000000000
      5129      1710  TIP3      H1            -28.6209687858        0.5420342980       -1.4852886337  W2        1710            0.0000000000
      5130      1710  TIP3      H2            -29.3583787858        1.8230442980       -1.1580086337  W2        1710            0.0000000000
      5131      1711  TIP3      OH2           -23.5551087858       16.8985242980       -3.6891486337  W2        1711            0.0000000000
      5132      1711  TIP3      H1            -23.1298787858       16.1913142980       -4.1741886337  W2        1711            0.0000000000
      5133      1711  TIP3      H2            -23.2381087858       17.6997942980       -4.1059286337  W2        1711            0.0000000000
      5134      1712  TIP3      OH2           -22.3954587858       14.7993742980       -5.1804886337  W2        1712            0.0000000000
      5135      1712  TIP3      H1            -22.6529787858       14.1093842980       -5.7918986337  W2        1712            0.0000000000
      5136      1712  TIP3      H2            -22.3243787858       14.3564942980       -4.3348986337  W2        1712            0.0000000000
      5137      1713  TIP3      OH2           -20.7094387858       13.3660442980        3.2968613663  W2        1713            0.0000000000
      5138      1713  TIP3      H1            -20.5698087858       12.7742942980        2.5575613663  W2        1713            0.0000000000
      5139      1713  TIP3      H2            -20.5421587858       14.2386342980        2.9407413663  W2        1713            0.0000000000
      5140      1714  TIP3      OH2           -26.2368987858       10.3279942980       -6.9305386337  W2        1714            0.0000000000
      5141      1714  TIP3      H1            -26.9483487858       10.8629642980       -7.2824886337  W2        1714            0.0000000000
      5142      1714  TIP3      H2            -25.5459387858       10.3832042980       -7.5906486337  W2        1714            0.0000000000
      5143      1715  TIP3      OH2           -26.1829787858        8.7854242980       -9.8920386337  W2        1715            0.0000000000
      5144      1715  TIP3      H1            -25.4819887858        8.8081142980       -9.2406386337  W2        1715            0.0000000000
      5145      1715  TIP3      H2            -25.8806887858        8.1573942980      -10.5481086337  W2        1715            0.0000000000
      5146      1716  TIP3      OH2           -18.8675087858        9.7058442980        1.3629013663  W2        1716            0.0000000000
      5147      1716  TIP3      H1            -19.5200987858       10.4004042980        1.4519913663  W2        1716            0.0000000000
      5148      1716  TIP3      H2            -18.4024787858        9.9159342980        0.5530613663  W2        1716            0.0000000000
      5149      1717  TIP3      OH2           -22.8311287858       10.5373242980       -5.9789486337  W2        1717            0.0000000000
      5150      1717  TIP3      H1            -23.5630287858       10.7656942980       -5.4058886337  W2        1717            0.0000000000
      5151      1717  TIP3      H2            -22.3839087858        9.8235942980       -5.5241986337  W2        1717            0.0000000000
      5152      1718  TIP3      OH2           -22.9337787858        8.7115842980        3.0887513663  W2        1718            0.0000000000
      5153      1718  TIP3      H1            -22.8538687858        9.4750242980        3.6606013663  W2        1718            0.0000000000
      5154      1718  TIP3      H2            -23.5350087858        8.9908242980        2.3982613663  W2        1718            0.0000000000
      5155      1719  TIP3      OH2           -31.1857587858       11.1679442980       -4.0964486337  W2        1719            0.0000000000
      5156      1719  TIP3      H1            -31.5162387858       10.7972842980       -4.9147486337  W2        1719            0.0000000000
      5157      1719  TIP3      H2            -30.5973487858       10.4973442980       -3.7496186337  W2        1719            0.0000000000
      5158      1720  TIP3      OH2           -29.8190087858       14.5960042980       -1.4152286337  W2        1720            0.0000000000
      5159      1720  TIP3      H1            -29.9138787858       14.0173142980       -2.1717686337  W2        1720            0.0000000000
      5160      1720  TIP3      H2            -29.0896487858       14.2245742980       -0.9189486337  W2        1720            0.0000000000
      5161      1721  TIP3      OH2           -30.8192087858        9.9365042980       -0.4629486337  W2        1721            0.0000000000
      5162      1721  TIP3      H1            -30.2539587858       10.0579242980       -1.2258286337  W2        1721            0.0000000000
      5163      1721  TIP3      H2            -30.5003187858       10.5740042980        0.1759013663  W2        1721            0.0000000000
      5164      1722  TIP3      OH2           -24.5099887858       15.4396942980        0.2711013663  W2        1722            0.0000000000
      5165      1722  TIP3      H1            -24.7503287858       16.1020042980        0.9190213663  W2        1722            0.0000000000
      5166      1722  TIP3      H2            -24.7081687858       14.6052142980        0.6960613663  W2        1722            0.0000000000
      5167      1723  TIP3      OH2           -29.9391387858       14.3357742980        4.2542413663  W2        1723            0.0000000000
      5168      1723  TIP3      H1            -30.2503887858       15.1180942980        4.7095613663  W2        1723            0.0000000000
      5169      1723  TIP3      H2            -30.5891187858       14.1826842980        3.5684413663  W2        1723            0.0000000000
      5170      1724  TIP3      OH2           -23.9601787858        9.6996142980       -8.2938286337  W2        1724            0.0000000000
      5171      1724  TIP3      H1            -23.3806287858        9.8496442980       -7.5469386337  W2        1724            0.0000000000
      5172      1724  TIP3      H2            -23.5461787858       10.1703542980       -9.0171886337  W2        1724            0.0000000000
      5173      1725  TIP3      OH2           -33.0191487858       10.5338842980        3.4828113663  W2        1725            0.0000000000
      5174      1725  TIP3      H1            -32.9488287858       11.1845642980        4.1813113663  W2        1725            0.0000000000
      5175      1725  TIP3      H2            -33.9099287858       10.6366342980        3.1479013663  W2        1725            0.0000000000
      5176      1726  TIP3      OH2           -26.2336887858       16.4364642980       -4.8585186337  W2        1726            0.0000000000
      5177      1726  TIP3      H1            -25.7599287858       16.7320942980       -4.0810986337  W2        1726            0.0000000000
      5178      1726  TIP3      H2            -26.7967587858       17.1746242980       -5.0915586337  W2        1726            0.0000000000
      5179      1727  TIP3      OH2           -31.6995487858       16.4072742980        5.0176213663  W2        1727            0.0000000000
      5180      1727  TIP3      H1            -31.6920187858       16.2712442980        4.0701713663  W2        1727            0.0000000000
      5181      1727  TIP3      H2            -32.6155087858       16.2900842980        5.2696213663  W2        1727            0.0000000000
      5182      1728  TIP3      OH2           -20.2613387858        1.4496542980       -8.4808586337  W2        1728            0.0000000000
      5183      1728  TIP3      H1            -21.1612687858        1.5885542980       -8.1857986337  W2        1728            0.0000000000
      5184      1728  TIP3      H2            -20.0094987858        2.2811142980       -8.8826886337  W2        1728            0.0000000000
      5185      1729  TIP3      OH2           -32.1954887858       10.2373742980       -6.5071686337  W2        1729            0.0000000000
      5186      1729  TIP3      H1            -32.4873587858       11.0055442980       -6.9980386337  W2        1729            0.0000000000
      5187      1729  TIP3      H2            -32.8699687858        9.5779942980       -6.6700286337  W2        1729            0.0000000000
      5188      1730  TIP3      OH2           -19.0721987858       15.8158942980      -10.1044686337  W2        1730            0.0000000000
      5189      1730  TIP3      H1            -18.9988487858       16.7549142980       -9.9339386337  W2        1730            0.0000000000
      5190      1730  TIP3      H2            -18.1666887858       15.5107542980      -10.1607386337  W2        1730            0.0000000000
      5191      1731  TIP3      OH2           -36.1024787858       12.6002942980        2.3078113663  W2        1731            0.0000000000
      5192      1731  TIP3      H1            -36.6036387858       12.5722342980        1.4927813663  W2        1731            0.0000000000
      5193      1731  TIP3      H2            -36.0971087858       11.6946142980        2.6175413663  W2        1731            0.0000000000
      5194      1732  TIP3      OH2           -36.3522087858       15.3806742980       -0.8081686337  W2        1732            0.0000000000
      5195      1732  TIP3      H1            -35.4061487858       15.2363742980       -0.8272186337  W2        1732            0.0000000000
      5196      1732  TIP3      H2            -36.4645787858       16.1649542980       -0.2710486337  W2        1732            0.0000000000
      5197      1733  TIP3      OH2           -18.1543587858       16.0466442980        4.8742013663  W2        1733            0.0000000000
      5198      1733  TIP3      H1            -18.2036787858       15.0914542980        4.8369613663  W2        1733            0.0000000000
      5199      1733  TIP3      H2            -18.9811287858       16.3141742980        5.2755813663  W2        1733            0.0000000000
      5200      1734  TIP3      OH2           -27.1759587858       15.6205642980        3.7503413663  W2        1734            0.0000000000
      5201      1734  TIP3      H1            -27.0884987858       16.4470242980        4.2252513663  W2        1734            0.0000000000
      5202      1734  TIP3      H2            -28.0394487858       15.2909442980        3.9992713663  W2        1734            0.0000000000
      5203      1735  TIP3      OH2           -26.7613787858       19.3929342980       -6.4435986337  W2        1735            0.0000000000
      5204      1735  TIP3      H1            -26.8367787858       19.2716542980       -7.3900786337  W2        1735            0.0000000000
      5205      1735  TIP3      H2            -26.7285087858       20.3422042980       -6.3251386337  W2        1735            0.0000000000
      5206      1736  TIP3      OH2           -33.1079987858       18.1816342980       -4.6626986337  W2        1736            0.0000000000
      5207      1736  TIP3      H1            -32.9559587858       17.8336742980       -3.7840486337  W2        1736            0.0000000000
      5208      1736  TIP3      H2            -33.9589587858       17.8253642980       -4.9179786337  W2        1736            0.0000000000
      5209      1737  TIP3      OH2           -23.6597787858       18.5469542980       -9.4413586337  W2        1737            0.0000000000
      5210      1737  TIP3      H1            -23.2849387858       17.8025642980       -9.9120986337  W2        1737            0.0000000000
      5211      1737  TIP3      H2            -23.6554087858       18.2770142980       -8.5230286337  W2        1737            0.0000000000
      5212      1738  TIP3      OH2           -23.9909687858       18.4726642980       -6.6921386337  W2        1738            0.0000000000
      5213      1738  TIP3      H1            -24.9259887858       18.5728542980       -6.5134386337  W2        1738            0.0000000000
      5214      1738  TIP3      H2            -23.7107787858       17.7632642980       -6.1138186337  W2        1738            0.0000000000
      5215      1739  TIP3      OH2           -21.0023787858        7.5398942980        5.3544213663  W2        1739            0.0000000000
      5216      1739  TIP3      H1            -21.4096987858        8.0204542980        4.6337513663  W2        1739            0.0000000000
      5217      1739  TIP3      H2            -20.9618087858        6.6344942980        5.0465013663  W2        1739            0.0000000000
      5218      1740  TIP3      OH2           -33.8534287858       13.9238342980        3.3510913663  W2        1740            0.0000000000
      5219      1740  TIP3      H1            -33.6372987858       13.5623942980        4.2106713663  W2        1740            0.0000000000
      5220      1740  TIP3      H2            -34.7089587858       13.5492142980        3.1414413663  W2        1740            0.0000000000
      5221      1741  TIP3      OH2           -31.2346287858        2.3938842980       -0.6534886337  W2        1741            0.0000000000
      5222      1741  TIP3      H1            -32.0962587858        2.3067042980       -1.0611986337  W2        1741            0.0000000000
      5223      1741  TIP3      H2            -31.2570587858        3.2498942980       -0.2257286337  W2        1741            0.0000000000
      5224      1742  TIP3      OH2           -26.5718487858        2.1159242980        2.7212113663  W2        1742            0.0000000000
      5225      1742  TIP3      H1            -26.1515387858        1.7006342980        3.4742713663  W2        1742            0.0000000000
      5226      1742  TIP3      H2            -27.5048887858        1.9372542980        2.8384113663  W2        1742            0.0000000000
      5227      1743  TIP3      OH2           -23.2453587858        5.8714442980        3.5746613663  W2        1743            0.0000000000
      5228      1743  TIP3      H1            -23.7594087858        5.7456642980        4.3722613663  W2        1743            0.0000000000
      5229      1743  TIP3      H2            -23.4008887858        6.7837542980        3.3302813663  W2        1743            0.0000000000
      5230      1744  TIP3      OH2           -22.4828687858       10.7324442980      -10.6640386337  W2        1744            0.0000000000
      5231      1744  TIP3      H1            -22.4407887858       10.5098342980      -11.5940386337  W2        1744            0.0000000000
      5232      1744  TIP3      H2            -21.6336587858       11.1311542980      -10.4740486337  W2        1744            0.0000000000
      5233      1745  TIP3      OH2           -26.9101187858        4.6082642980       -9.9937086337  W2        1745            0.0000000000
      5234      1745  TIP3      H1            -27.1636387858        4.6274242980       -9.0708986337  W2        1745            0.0000000000
      5235      1745  TIP3      H2            -27.1669087858        3.7368042980      -10.2950886337  W2        1745            0.0000000000
      5236      1746  TIP3      OH2           -31.1436187858        7.3593342980        0.4415313663  W2        1746            0.0000000000
      5237      1746  TIP3      H1            -31.7854087858        7.3190642980        1.1505413663  W2        1746            0.0000000000
      5238      1746  TIP3      H2            -31.1064187858        8.2858042980        0.2038313663  W2        1746            0.0000000000
      5239      1747  TIP3      OH2           -31.1467087858        7.5803442980       -4.6464686337  W2        1747            0.0000000000
      5240      1747  TIP3      H1            -32.0394187858        7.2399542980       -4.7050886337  W2        1747            0.0000000000
      5241      1747  TIP3      H2            -30.6960487858        7.2034342980       -5.4021486337  W2        1747            0.0000000000
      5242      1748  TIP3      OH2           -25.6111587858        7.9963742980       -5.8293886337  W2        1748            0.0000000000
      5243      1748  TIP3      H1            -26.0201287858        8.8112342980       -6.1209086337  W2        1748            0.0000000000
      5244      1748  TIP3      H2            -24.8905387858        7.8563842980       -6.4436786337  W2        1748            0.0000000000
      5245      1749  TIP3      OH2           -26.5089987858        8.1720142980        5.6586813663  W2        1749            0.0000000000
      5246      1749  TIP3      H1            -27.0716187858        7.4671742980        5.9794613663  W2        1749            0.0000000000
      5247      1749  TIP3      H2            -25.6826587858        8.0512042980        6.1264413663  W2        1749            0.0000000000
      5248      1750  TIP3      OH2           -24.6063887858        7.4424142980       -3.0154186337  W2        1750            0.0000000000
      5249      1750  TIP3      H1            -24.8019387858        8.0480942980       -3.7303586337  W2        1750            0.0000000000
      5250      1750  TIP3      H2            -24.4251287858        6.6089342980       -3.4497886337  W2        1750            0.0000000000
      5251      1751  TIP3      OH2           -33.3935687858        7.6796842980        2.3087313663  W2        1751            0.0000000000
      5252      1751  TIP3      H1            -33.4316287858        8.0798442980        3.1774413663  W2        1751            0.0000000000
      5253      1751  TIP3      H2            -33.8844587858        6.8629242980        2.3990213663  W2        1751            0.0000000000
      5254      1752  TIP3      OH2           -30.0278287858        5.0539142980      -10.8926686337  W2        1752            0.0000000000
      5255      1752  TIP3      H1            -30.4587587858        4.6089242980      -10.1629286337  W2        1752            0.0000000000
      5256      1752  TIP3      H2            -30.7459587858        5.4255442980      -11.4049186337  W2        1752            0.0000000000
      5257      1753  TIP3      OH2           -36.7854887858        4.7958642980       -3.8407986337  W2        1753            0.0000000000
      5258      1753  TIP3      H1            -36.1547187858        4.7670742980       -3.1214086337  W2        1753            0.0000000000
      5259      1753  TIP3      H2            -36.3360587858        4.3707342980       -4.5712086337  W2        1753            0.0000000000
      5260      1754  TIP3      OH2           -35.5112787858        5.5420642980       -8.4167586337  W2        1754            0.0000000000
      5261      1754  TIP3      H1            -35.0371087858        6.1330542980       -9.0016686337  W2        1754            0.0000000000
      5262      1754  TIP3      H2            -36.2286387858        6.0723542980       -8.0697486337  W2        1754            0.0000000000
      5263      1755  TIP3      OH2           -25.3424687858        9.0805442980        1.6558213663  W2        1755            0.0000000000
      5264      1755  TIP3      H1            -25.0189887858        8.4495142980        1.0128713663  W2        1755            0.0000000000
      5265      1755  TIP3      H2            -25.7825387858        8.5457642980        2.3165613663  W2        1755            0.0000000000
      5266      1756  TIP3      OH2           -28.5651787858        5.0080942980       -3.5600586337  W2        1756            0.0000000000
      5267      1756  TIP3      H1            -29.4760687858        5.0647742980       -3.2714586337  W2        1756            0.0000000000
      5268      1756  TIP3      H2            -28.0598887858        4.9476442980       -2.7493386337  W2        1756            0.0000000000
      5269      1757  TIP3      OH2           -33.7368387858        6.6367242980       -4.7332986337  W2        1757            0.0000000000
      5270      1757  TIP3      H1            -34.6260387858        6.7362742980       -5.0733386337  W2        1757            0.0000000000
      5271      1757  TIP3      H2            -33.4403487858        5.7950242980       -5.0795086337  W2        1757            0.0000000000
      5272      1758  TIP3      OH2           -30.0836587858        6.6369842980       -7.0768386337  W2        1758            0.0000000000
      5273      1758  TIP3      H1            -29.1521087858        6.7659842980       -6.8985286337  W2        1758            0.0000000000
      5274      1758  TIP3      H2            -30.2986287858        7.3064142980       -7.7263686337  W2        1758            0.0000000000
      5275      1759  TIP3      OH2           -24.1599887858        4.2427242980       -0.2958786337  W2        1759            0.0000000000
      5276      1759  TIP3      H1            -24.8368287858        4.3740342980        0.3680913663  W2        1759            0.0000000000
      5277      1759  TIP3      H2            -24.6454987858        4.0876742980       -1.1061086337  W2        1759            0.0000000000
      5278      1760  TIP3      OH2           -31.4096387858        7.8312042980       -9.5102286337  W2        1760            0.0000000000
      5279      1760  TIP3      H1            -31.9521287858        7.4515842980      -10.2014686337  W2        1760            0.0000000000
      5280      1760  TIP3      H2            -30.5761487858        8.0256742980       -9.9388186337  W2        1760            0.0000000000
      5281      1761  TIP3      OH2           -20.8724787858       19.9142642980        5.9808813663  W2        1761            0.0000000000
      5282      1761  TIP3      H1            -20.6726087858       20.3384542980        5.1464113663  W2        1761            0.0000000000
      5283      1761  TIP3      H2            -20.2171087858       20.2580842980        6.5879213663  W2        1761            0.0000000000
      5284      1762  TIP3      OH2           -33.2744987858       12.3883942980        5.5889313663  W2        1762            0.0000000000
      5285      1762  TIP3      H1            -32.5422587858       12.6429842980        6.1503813663  W2        1762            0.0000000000
      5286      1762  TIP3      H2            -34.0546287858       12.5929342980        6.1044713663  W2        1762            0.0000000000
      5287      1763  TIP3      OH2           -27.2452087858        7.7953942980       -1.6730986337  W2        1763            0.0000000000
      5288      1763  TIP3      H1            -26.6808687858        7.2490542980       -2.2201386337  W2        1763            0.0000000000
      5289      1763  TIP3      H2            -27.3928687858        7.2735842980       -0.8843386337  W2        1763            0.0000000000
      5290      1764  TIP3      OH2           -32.2432387858        3.9320042980       -5.2546186337  W2        1764            0.0000000000
      5291      1764  TIP3      H1            -32.5602887858        3.0295342980       -5.2900786337  W2        1764            0.0000000000
      5292      1764  TIP3      H2            -31.4618287858        3.9337442980       -5.8074586337  W2        1764            0.0000000000
      5293      1765  TIP3      OH2           -28.6186187858        6.1840042980        0.7409413663  W2        1765            0.0000000000
      5294      1765  TIP3      H1            -29.4540887858        6.6379542980        0.8511813663  W2        1765            0.0000000000
      5295      1765  TIP3      H2            -28.0945587858        6.4598542980        1.4929313663  W2        1765            0.0000000000
      5296      1766  TIP3      OH2           -28.0743587858       12.3967742980       -7.5744186337  W2        1766            0.0000000000
      5297      1766  TIP3      H1            -28.8192587858       11.8893042980       -7.8966286337  W2        1766            0.0000000000
      5298      1766  TIP3      H2            -28.2086387858       12.4455742980       -6.6279386337  W2        1766            0.0000000000
      5299      1767  TIP3      OH2           -20.9244687858       11.5295942980        1.2123413663  W2        1767            0.0000000000
      5300      1767  TIP3      H1            -20.2825887858       11.9862242980        0.6685613663  W2        1767            0.0000000000
      5301      1767  TIP3      H2            -21.7547787858       11.6428342980        0.7497513663  W2        1767            0.0000000000
      5302      1768  TIP3      OH2           -24.1766787858        5.2107642980       -9.3751586337  W2        1768            0.0000000000
      5303      1768  TIP3      H1            -25.1152587858        5.3223242980       -9.5262786337  W2        1768            0.0000000000
      5304      1768  TIP3      H2            -23.8794687858        6.0674542980       -9.0685886337  W2        1768            0.0000000000
      5305      1769  TIP3      OH2           -26.5551487858       12.5811042980        3.6624913663  W2        1769            0.0000000000
      5306      1769  TIP3      H1            -26.9005387858       12.1993442980        4.4694513663  W2        1769            0.0000000000
      5307      1769  TIP3      H2            -26.7551387858       13.5144642980        3.7337813663  W2        1769            0.0000000000
      5308      1770  TIP3      OH2           -23.4583287858        7.0780342980       -7.7144186337  W2        1770            0.0000000000
      5309      1770  TIP3      H1            -22.5664287858        6.9405342980       -7.3952986337  W2        1770            0.0000000000
      5310      1770  TIP3      H2            -23.4019687858        7.8686442980       -8.2510686337  W2        1770            0.0000000000
      5311      1771  TIP3      OH2           -32.9495287858       11.6917742980       -1.8046286337  W2        1771            0.0000000000
      5312      1771  TIP3      H1            -32.2048087858       11.6893442980       -2.4059786337  W2        1771            0.0000000000
      5313      1771  TIP3      H2            -32.8718687858       10.8681542980       -1.3231186337  W2        1771            0.0000000000
      5314      1772  TIP3      OH2           -25.9489487858       13.8552042980       -8.5489586337  W2        1772            0.0000000000
      5315      1772  TIP3      H1            -26.2441087858       14.6819942980       -8.1674786337  W2        1772            0.0000000000
      5316      1772  TIP3      H2            -26.6519487858       13.2358942980       -8.3528186337  W2        1772            0.0000000000
      5317      1773  TIP3      OH2           -35.9415587858       10.1524642980        3.5102213663  W2        1773            0.0000000000
      5318      1773  TIP3      H1            -35.7186987858        9.7344242980        4.3419713663  W2        1773            0.0000000000
      5319      1773  TIP3      H2            -36.5435487858        9.5399642980        3.0875013663  W2        1773            0.0000000000
      5320      1774  TIP3      OH2           -28.9250687858        9.6694542980        5.7231913663  W2        1774            0.0000000000
      5321      1774  TIP3      H1            -29.2209887858        9.5037542980        4.8281013663  W2        1774            0.0000000000
      5322      1774  TIP3      H2            -27.9935487858        9.4494842980        5.7125813663  W2        1774            0.0000000000
      5323      1775  TIP3      OH2           -24.3047887858       15.0426542980        3.6129913663  W2        1775            0.0000000000
      5324      1775  TIP3      H1            -25.2053587858       15.2259142980        3.3453813663  W2        1775            0.0000000000
      5325      1775  TIP3      H2            -24.2706787858       15.3015842980        4.5338713663  W2        1775            0.0000000000
      5326      1776  TIP3      OH2           -18.5734587858        7.2874442980       -8.0197486337  W2        1776            0.0000000000
      5327      1776  TIP3      H1            -19.1278287858        6.8912442980       -8.6919986337  W2        1776            0.0000000000
      5328      1776  TIP3      H2            -18.4730987858        8.1979642980       -8.2974186337  W2        1776            0.0000000000
      5329      1777  TIP3      OH2           -18.6102587858       13.0876142980        4.8174013663  W2        1777            0.0000000000
      5330      1777  TIP3      H1            -19.4614087858       13.3259942980        4.4500413663  W2        1777            0.0000000000
      5331      1777  TIP3      H2            -18.0199187858       13.0709342980        4.0641113663  W2        1777            0.0000000000
      5332      1778  TIP3      OH2           -20.2782887858       16.0734842980       -7.5545386337  W2        1778            0.0000000000
      5333      1778  TIP3      H1            -20.6511787858       15.2478642980       -7.2454786337  W2        1778            0.0000000000
      5334      1778  TIP3      H2            -20.0009387858       15.8904242980       -8.4521986337  W2        1778            0.0000000000
      5335      1779  TIP3      OH2           -23.1178987858       10.8814342980       -0.5333486337  W2        1779            0.0000000000
      5336      1779  TIP3      H1            -24.0462087858       10.6496242980       -0.5604186337  W2        1779            0.0000000000
      5337      1779  TIP3      H2            -22.6667887858       10.1044142980       -0.8634686337  W2        1779            0.0000000000
      5338      1780  TIP3      OH2           -30.5745887858       15.2095942980       -4.4004786337  W2        1780            0.0000000000
      5339      1780  TIP3      H1            -30.0473687858       15.9830342980       -4.6005986337  W2        1780            0.0000000000
      5340      1780  TIP3      H2            -31.4547387858       15.4345142980       -4.7020786337  W2        1780            0.0000000000
      5341      1781  TIP3      OH2           -34.8198187858       10.0720042980       -9.8132386337  W2        1781            0.0000000000
      5342      1781  TIP3      H1            -34.2038287858       10.6987242980       -9.4337586337  W2        1781            0.0000000000
      5343      1781  TIP3      H2            -35.6815587858       10.3879842980       -9.5415886337  W2        1781            0.0000000000
      5344      1782  TIP3      OH2           -29.1473587858       12.8725842980       -4.8240486337  W2        1782            0.0000000000
      5345      1782  TIP3      H1            -29.3883587858       13.7980242980       -4.7825186337  W2        1782            0.0000000000
      5346      1782  TIP3      H2            -29.8879987858       12.4137142980       -4.4276586337  W2        1782            0.0000000000
      5347      1783  TIP3      OH2           -28.6326987858       17.0219442980        1.4910613663  W2        1783            0.0000000000
      5348      1783  TIP3      H1            -28.2702287858       17.8765042980        1.2575013663  W2        1783            0.0000000000
      5349      1783  TIP3      H2            -28.1011787858       16.7301042980        2.2316913663  W2        1783            0.0000000000
      5350      1784  TIP3      OH2           -30.4642787858       17.8943442980       -5.2788286337  W2        1784            0.0000000000
      5351      1784  TIP3      H1            -31.4142287858       18.0000842980       -5.2274986337  W2        1784            0.0000000000
      5352      1784  TIP3      H2            -30.1124687858       18.7150842980       -4.9340786337  W2        1784            0.0000000000
      5353      1785  TIP3      OH2           -25.0886187858       13.1210142980        1.1916213663  W2        1785            0.0000000000
      5354      1785  TIP3      H1            -25.5144887858       12.8931842980        2.0180213663  W2        1785            0.0000000000
      5355      1785  TIP3      H2            -24.5080387858       12.3821942980        1.0091513663  W2        1785            0.0000000000
      5356      1786  TIP3      OH2           -22.8857287858       14.0500642980       -9.7344786337  W2        1786            0.0000000000
      5357      1786  TIP3      H1            -22.5324187858       13.6700442980       -8.9301286337  W2        1786            0.0000000000
      5358      1786  TIP3      H2            -23.8343787858       13.9565442980       -9.6475486337  W2        1786            0.0000000000
      5359      1787  TIP3      OH2           -22.4301987858       17.6729642980        3.6611013663  W2        1787            0.0000000000
      5360      1787  TIP3      H1            -23.0318787858       17.1172542980        3.1657313663  W2        1787            0.0000000000
      5361      1787  TIP3      H2            -22.1488287858       18.3399442980        3.0348413663  W2        1787            0.0000000000
      5362      1788  TIP3      OH2           -18.3822887858       18.5293142980       -9.5334586337  W2        1788            0.0000000000
      5363      1788  TIP3      H1            -17.6384987858       19.1153642980       -9.6732986337  W2        1788            0.0000000000
      5364      1788  TIP3      H2            -19.0764787858       19.0978942980       -9.2002186337  W2        1788            0.0000000000
      5365      1789  TIP3      OH2           -34.3076087858        4.9057342980        3.0683613663  W2        1789            0.0000000000
      5366      1789  TIP3      H1            -35.2003787858        5.2442742980        3.0007613663  W2        1789            0.0000000000
      5367      1789  TIP3      H2            -34.4063287858        4.0503442980        3.4864413663  W2        1789            0.0000000000
      5368      1790  TIP3      OH2           -22.0197987858       12.7222642980       -7.5076886337  W2        1790            0.0000000000
      5369      1790  TIP3      H1            -22.2970387858       11.9941942980       -6.9515786337  W2        1790            0.0000000000
      5370      1790  TIP3      H2            -21.0924987858       12.8414642980       -7.3024286337  W2        1790            0.0000000000
      5371      1791  TIP3      OH2           -34.6564087858       16.7101742980        1.5033013663  W2        1791            0.0000000000
      5372      1791  TIP3      H1            -34.4393787858       15.7784142980        1.4722713663  W2        1791            0.0000000000
      5373      1791  TIP3      H2            -34.4100587858       16.9846742980        2.3865813663  W2        1791            0.0000000000
      5374      1792  TIP3      OH2           -28.7949487858       15.1616742980      -11.2874786337  W2        1792            0.0000000000
      5375      1792  TIP3      H1            -28.5559687858       14.4134842980      -11.8345886337  W2        1792            0.0000000000
      5376      1792  TIP3      H2            -29.0638187858       14.7738442980      -10.4546986337  W2        1792            0.0000000000
      5377      1793  TIP3      OH2           -29.8578887858       14.7320542980       -8.8312186337  W2        1793            0.0000000000
      5378      1793  TIP3      H1            -29.7110887858       14.2120342980       -8.0411286337  W2        1793            0.0000000000
      5379      1793  TIP3      H2            -29.8607187858       15.6388142980       -8.5246286337  W2        1793            0.0000000000
      5380      1794  TIP3      OH2           -33.4047787858       11.9843842980       -8.3206786337  W2        1794            0.0000000000
      5381      1794  TIP3      H1            -34.0908487858       12.3366342980       -7.7537086337  W2        1794            0.0000000000
      5382      1794  TIP3      H2            -32.8819887858       12.7473442980       -8.5672486337  W2        1794            0.0000000000
      5383      1795  TIP3      OH2           -25.5732687858        4.6467642980        1.9582213663  W2        1795            0.0000000000
      5384      1795  TIP3      H1            -24.8744787858        4.7206342980        2.6081913663  W2        1795            0.0000000000
      5385      1795  TIP3      H2            -25.9541287858        3.7822642980        2.1125113663  W2        1795            0.0000000000
      5386      1796  TIP3      OH2           -24.7887787858        4.2989342980       -6.9445486337  W2        1796            0.0000000000
      5387      1796  TIP3      H1            -24.5689487858        4.7704742980       -7.7480086337  W2        1796            0.0000000000
      5388      1796  TIP3      H2            -24.2303787858        4.6931942980       -6.2744886337  W2        1796            0.0000000000
      5389      1797  TIP3      OH2           -27.1201687858       16.4294142980       -8.0817986337  W2        1797            0.0000000000
      5390      1797  TIP3      H1            -27.9365587858       16.9263842980       -8.0293686337  W2        1797            0.0000000000
      5391      1797  TIP3      H2            -26.5905387858       16.9047642980       -8.7219186337  W2        1797            0.0000000000
      5392      1798  TIP3      OH2           -27.5887887858        6.0268142980       -6.1097086337  W2        1798            0.0000000000
      5393      1798  TIP3      H1            -26.7765287858        6.5311342980       -6.0635386337  W2        1798            0.0000000000
      5394      1798  TIP3      H2            -27.8334887858        5.8817842980       -5.1957486337  W2        1798            0.0000000000
      5395      1799  TIP3      OH2           -27.0531487858        7.0130842980        3.0749513663  W2        1799            0.0000000000
      5396      1799  TIP3      H1            -26.9341187858        7.5866242980        3.8319913663  W2        1799            0.0000000000
      5397      1799  TIP3      H2            -26.3976887858        6.3250242980        3.1897313663  W2        1799            0.0000000000
      5398      1800  TIP3      OH2           -26.7051187858        3.1081142980       -5.1715986337  W2        1800            0.0000000000
      5399      1800  TIP3      H1            -27.0517687858        3.7251742980       -4.5271686337  W2        1800            0.0000000000
      5400      1800  TIP3      H2            -26.0464287858        3.6086842980       -5.6530486337  W2        1800            0.0000000000
      5401      1801  TIP3      OH2           -29.7818587858       17.4731342980       -8.1001086337  W2        1801            0.0000000000
      5402      1801  TIP3      H1            -29.6209887858       18.2728842980       -8.6008486337  W2        1801            0.0000000000
      5403      1801  TIP3      H2            -29.9790787858       17.7797342980       -7.2150486337  W2        1801            0.0000000000
      5404      1802  TIP3      OH2           -31.0474187858        4.1710542980       -8.4843486337  W2        1802            0.0000000000
      5405      1802  TIP3      H1            -31.1309387858        5.0593642980       -8.1377086337  W2        1802            0.0000000000
      5406      1802  TIP3      H2            -30.1573887858        3.9057242980       -8.2526686337  W2        1802            0.0000000000
      5407      1803  TIP3      OH2           -20.8485687858        4.9201142980        3.9099213663  W2        1803            0.0000000000
      5408      1803  TIP3      H1            -21.7649887858        5.1822842980        3.8222913663  W2        1803            0.0000000000
      5409      1803  TIP3      H2            -20.5130687858        4.9170142980        3.0134513663  W2        1803            0.0000000000
      5410      1804  TIP3      OH2           -22.2464687858        8.6702142980       -1.9943486337  W2        1804            0.0000000000
      5411      1804  TIP3      H1            -23.0440287858        8.2552342980       -2.3228486337  W2        1804            0.0000000000
      5412      1804  TIP3      H2            -21.8013587858        7.9795842980       -1.5032986337  W2        1804            0.0000000000
      5413      1805  TIP3      OH2           -32.7888887858       14.5982742980       -9.4238986337  W2        1805            0.0000000000
      5414      1805  TIP3      H1            -32.1967387858       15.2977542980       -9.1476586337  W2        1805            0.0000000000
      5415      1805  TIP3      H2            -32.3295887858       14.1652242980      -10.1434386337  W2        1805            0.0000000000
      5416      1806  TIP3      OH2           -34.4729687858        7.2625742980      -10.3079586337  W2        1806            0.0000000000
      5417      1806  TIP3      H1            -34.5177087858        8.2018842980      -10.1292586337  W2        1806            0.0000000000
      5418      1806  TIP3      H2            -35.3606487858        7.0270642980      -10.5777486337  W2        1806            0.0000000000
      5419      1807  TIP3      OH2           -21.1600087858       17.9264642980       -0.3719986337  W2        1807            0.0000000000
      5420      1807  TIP3      H1            -21.3155787858       18.6049042980       -1.0290686337  W2        1807            0.0000000000
      5421      1807  TIP3      H2            -20.2273687858       17.9983942980       -0.1689386337  W2        1807            0.0000000000
      5422      1808  TIP3      OH2           -33.6647687858        2.0442342980       -1.6348586337  W2        1808            0.0000000000
      5423      1808  TIP3      H1            -33.8937887858        2.1034842980       -2.5623586337  W2        1808            0.0000000000
      5424      1808  TIP3      H2            -34.1074287858        1.2527842980       -1.3284486337  W2        1808            0.0000000000
      5425      1809  TIP3      OH2           -34.7344387858       15.9849442980       -5.4742786337  W2        1809            0.0000000000
      5426      1809  TIP3      H1            -35.5665787858       16.4572142980       -5.4471386337  W2        1809            0.0000000000
      5427      1809  TIP3      H2            -34.1886087858       16.4947042980       -6.0729686337  W2        1809            0.0000000000
      5428      1810  TIP3      OH2           -35.4460687858       18.5973142980        5.8555213663  W2        1810            0.0000000000
      5429      1810  TIP3      H1            -34.9058487858       18.3807142980        6.6154413663  W2        1810            0.0000000000
      5430      1810  TIP3      H2            -35.9272687858       17.7919142980        5.6657713663  W2        1810            0.0000000000
      5431      1811  TIP3      OH2           -30.8487287858       17.5167542980        7.4759413663  W2        1811            0.0000000000
      5432      1811  TIP3      H1            -30.0810087858       17.0578342980        7.8168613663  W2        1811            0.0000000000
      5433      1811  TIP3      H2            -30.8701087858       17.2907342980        6.5460613663  W2        1811            0.0000000000
      5434      1812  TIP3      OH2           -26.7567687858       17.0248142980      -11.1488786337  W2        1812            0.0000000000
      5435      1812  TIP3      H1            -27.4006687858       16.3936742980      -10.8275086337  W2        1812            0.0000000000
      5436      1812  TIP3      H2            -25.9949387858       16.4936142980      -11.3805286337  W2        1812            0.0000000000
      5437      1813  TIP3      OH2           -24.2718587858       15.8968642980        6.2050913663  W2        1813            0.0000000000
      5438      1813  TIP3      H1            -24.6229087858       15.0401642980        6.4481313663  W2        1813            0.0000000000
      5439      1813  TIP3      H2            -23.5455387858       16.0395342980        6.8119913663  W2        1813            0.0000000000
      5440      1814  TIP3      OH2           -22.1524787858       16.8418042980      -10.9150786337  W2        1814            0.0000000000
      5441      1814  TIP3      H1            -21.8694387858       16.0473242980      -10.4623886337  W2        1814            0.0000000000
      5442      1814  TIP3      H2            -21.4126887858       17.0749042980      -11.4759686337  W2        1814            0.0000000000
      5443      1815  TIP3      OH2           -35.5391187858       12.4077242980        6.8099513663  W2        1815            0.0000000000
      5444      1815  TIP3      H1            -35.3950687858       11.5057942980        6.5236213663  W2        1815            0.0000000000
      5445      1815  TIP3      H2            -36.3113787858       12.6939342980        6.3221813663  W2        1815            0.0000000000
      5446      1816  TIP3      OH2           -31.1977487858       12.7512942980      -11.0575886337  W2        1816            0.0000000000
      5447      1816  TIP3      H1            -31.1333387858       11.9572542980      -10.5269486337  W2        1816            0.0000000000
      5448      1816  TIP3      H2            -30.5448287858       12.6325742980      -11.7473886337  W2        1816            0.0000000000
      5449      1817  TIP3      OH2           -28.8835087858       12.3775342980        6.2425913663  W2        1817            0.0000000000
      5450      1817  TIP3      H1            -29.2121287858       12.6483442980        5.3853313663  W2        1817            0.0000000000
      5451      1817  TIP3      H2            -28.7316887858       11.4365142980        6.1550913663  W2        1817            0.0000000000
      5452      1818  TIP3      OH2           -25.8454087858       13.7984642980      -11.3217886337  W2        1818            0.0000000000
      5453      1818  TIP3      H1            -26.1139987858       13.9786742980      -10.4208986337  W2        1818            0.0000000000
      5454      1818  TIP3      H2            -26.0518487858       12.8730842980      -11.4532086337  W2        1818            0.0000000000
      5455      1819  TIP3      OH2           -23.1489887858       12.2932642980        3.6258213663  W2        1819            0.0000000000
      5456      1819  TIP3      H1            -22.4035087858       12.8816342980        3.5062213663  W2        1819            0.0000000000
      5457      1819  TIP3      H2            -23.9063087858       12.8752342980        3.6891313663  W2        1819            0.0000000000
      5458      1820  TIP3      OH2           -34.7064687858        9.6080542980        6.2298813663  W2        1820            0.0000000000
      5459      1820  TIP3      H1            -34.2983487858        8.7507142980        6.1089413663  W2        1820            0.0000000000
      5460      1820  TIP3      H2            -34.9667087858        9.6221842980        7.1509113663  W2        1820            0.0000000000
      5461      1821  TIP3      OH2           -30.0483687858       10.7239142980       -8.7517886337  W2        1821            0.0000000000
      5462      1821  TIP3      H1            -30.5081687858       10.2397442980       -8.0659386337  W2        1821            0.0000000000
      5463      1821  TIP3      H2            -29.7934987858       10.0554542980       -9.3877386337  W2        1821            0.0000000000
      5464      1822  TIP3      OH2           -30.7594387858        8.6166242980        3.6041713663  W2        1822            0.0000000000
      5465      1822  TIP3      H1            -31.3778287858        9.2912842980        3.8846413663  W2        1822            0.0000000000
      5466      1822  TIP3      H2            -30.4153187858        8.9380142980        2.7707913663  W2        1822            0.0000000000
      5467      1823  TIP3      OH2           -28.9773287858        8.9670942980      -10.4894686337  W2        1823            0.0000000000
      5468      1823  TIP3      H1            -29.1578287858        8.8122142980      -11.4166386337  W2        1823            0.0000000000
      5469      1823  TIP3      H2            -28.0272787858        9.0749642980      -10.4446786337  W2        1823            0.0000000000
      5470      1824  TIP3      OH2           -25.7396187858       11.0881542980        6.8816513663  W2        1824            0.0000000000
      5471      1824  TIP3      H1            -24.7864987858       11.1720642980        6.8542513663  W2        1824            0.0000000000
      5472      1824  TIP3      H2            -25.9001587858       10.3763342980        7.5011413663  W2        1824            0.0000000000
      5473      1825  TIP3      OH2           -19.5874987858       11.3215142980      -11.0436586337  W2        1825            0.0000000000
      5474      1825  TIP3      H1            -19.8610187858       10.8970642980      -11.8568286337  W2        1825            0.0000000000
      5475      1825  TIP3      H2            -19.5480887858       12.2529642980      -11.2606186337  W2        1825            0.0000000000
      5476      1826  TIP3      OH2           -30.4200687858        5.9717042980        4.6864813663  W2        1826            0.0000000000
      5477      1826  TIP3      H1            -30.2699787858        5.2428342980        4.0844513663  W2        1826            0.0000000000
      5478      1826  TIP3      H2            -30.4178287858        6.7488742980        4.1277013663  W2        1826            0.0000000000
      5479      1827  TIP3      OH2           -30.0074987858        4.3412842980        2.1792213663  W2        1827            0.0000000000
      5480      1827  TIP3      H1            -29.4717487858        4.7929542980        1.5271513663  W2        1827            0.0000000000
      5481      1827  TIP3      H2            -30.8595387858        4.2332642980        1.7566313663  W2        1827            0.0000000000
      5482      1828  TIP3      OH2           -28.4256587858        9.7809042980        2.4187413663  W2        1828            0.0000000000
      5483      1828  TIP3      H1            -27.6751787858        9.6246542980        1.8455213663  W2        1828            0.0000000000
      5484      1828  TIP3      H2            -28.7648287858       10.6325642980        2.1432913663  W2        1828            0.0000000000
      5485      1829  TIP3      OH2           -24.0100387858        7.5960842980        7.4472713663  W2        1829            0.0000000000
      5486      1829  TIP3      H1            -23.8179087858        6.6650242980        7.3357213663  W2        1829            0.0000000000
      5487      1829  TIP3      H2            -23.1524087858        8.0210342980        7.4368113663  W2        1829            0.0000000000
      5488      1830  TIP3      OH2           -22.6933187858       10.3846042980        5.5245413663  W2        1830            0.0000000000
      5489      1830  TIP3      H1            -22.9748187858       11.0940642980        4.9469213663  W2        1830            0.0000000000
      5490      1830  TIP3      H2            -21.7508887858       10.3119042980        5.3736613663  W2        1830            0.0000000000
      5491      1831  TIP3      OH2           -31.9414387858        7.1700542980        6.5980413663  W2        1831            0.0000000000
      5492      1831  TIP3      H1            -32.7085387858        6.6375342980        6.3878013663  W2        1831            0.0000000000
      5493      1831  TIP3      H2            -31.2625387858        6.8600942980        5.9986713663  W2        1831            0.0000000000
      5494      1832  TIP3      OH2           -29.2019487858        1.7978542980        2.6105813663  W2        1832            0.0000000000
      5495      1832  TIP3      H1            -29.2999887858        2.7441742980        2.5052013663  W2        1832            0.0000000000
      5496      1832  TIP3      H2            -29.9443287858        1.4252342980        2.1349313663  W2        1832            0.0000000000
      5497      1833  TIP3      OH2           -27.9378987858        6.1193942980        6.1744213663  W2        1833            0.0000000000
      5498      1833  TIP3      H1            -28.1733587858        5.9000642980        7.0759113663  W2        1833            0.0000000000
      5499      1833  TIP3      H2            -28.7212087858        5.9125142980        5.6646713663  W2        1833            0.0000000000
      5500      1834  TIP3      OH2           -25.2222387858        5.2467442980        5.2497713663  W2        1834            0.0000000000
      5501      1834  TIP3      H1            -26.1696987858        5.2787142980        5.3821013663  W2        1834            0.0000000000
      5502      1834  TIP3      H2            -24.9095687858        4.6214542980        5.9035913663  W2        1834            0.0000000000
      5503      1835  TIP3      OH2           -23.5880887858        3.8808542980        7.2549613663  W2        1835            0.0000000000
      5504      1835  TIP3      H1            -23.6849087858        2.9285842980        7.2491513663  W2        1835            0.0000000000
      5505      1835  TIP3      H2            -23.9097787858        4.1495342980        8.1155113663  W2        1835            0.0000000000
      5506      1836  TIP3      OH2           -33.7611587858        5.0904342980        6.3025113663  W2        1836            0.0000000000
      5507      1836  TIP3      H1            -33.5494187858        4.3840442980        5.6922613663  W2        1836            0.0000000000
      5508      1836  TIP3      H2            -33.8724087858        4.6530342980        7.1466313663  W2        1836            0.0000000000
      5509      1837  TIP3      OH2           -28.9801387858        1.0915942980        5.2818613663  W2        1837            0.0000000000
      5510      1837  TIP3      H1            -28.2682987858        0.4518142980        5.2677713663  W2        1837            0.0000000000
      5511      1837  TIP3      H2            -29.0810987858        1.3584242980        4.3681713663  W2        1837            0.0000000000
      5512      1838  TIP3      OH2           -28.6263887858        2.7744342980        7.3354913663  W2        1838            0.0000000000
      5513      1838  TIP3      H1            -28.7581687858        2.2988142980        6.5153413663  W2        1838            0.0000000000
      5514      1838  TIP3      H2            -29.2256487858        3.5187942980        7.2802013663  W2        1838            0.0000000000
      5515      1839  TIP3      OH2           -29.0801587858       19.6574642980       -9.4881086337  W2        1839            0.0000000000
      5516      1839  TIP3      H1            -28.1470887858       19.8153342980       -9.3442686337  W2        1839            0.0000000000
      5517      1839  TIP3      H2            -29.3442787858       20.3327642980      -10.1129586337  W2        1839            0.0000000000
      5518      1840  TIP3      OH2           -35.5116687858       14.2938442980      -10.0052986337  W2        1840            0.0000000000
      5519      1840  TIP3      H1            -34.5977487858       14.3727342980       -9.7319086337  W2        1840            0.0000000000
      5520      1840  TIP3      H2            -35.5043587858       13.6068042980      -10.6717386337  W2        1840            0.0000000000
      5521      1841  TIP3      OH2           -36.8626087858       19.6866942980       -4.9279086337  W2        1841            0.0000000000
      5522      1841  TIP3      H1            -37.5098987858       19.2248642980       -5.4607886337  W2        1841            0.0000000000
      5523      1841  TIP3      H2            -36.5081487858       19.0150242980       -4.3452886337  W2        1841            0.0000000000
      5524      1842  TIP3      OH2           -35.9926887858       17.7673942980       -3.1232886337  W2        1842            0.0000000000
      5525      1842  TIP3      H1            -36.3270087858       16.8871242980       -2.9512686337  W2        1842            0.0000000000
      5526      1842  TIP3      H2            -35.7704487858       18.1128942980       -2.2587286337  W2        1842            0.0000000000
      5527      1843  TIP3      OH2           -18.4442087858       18.5770342980       -0.1428086337  W2        1843            0.0000000000
      5528      1843  TIP3      H1            -18.4655387858       18.7618742980        0.7961313663  W2        1843            0.0000000000
      5529      1843  TIP3      H2            -17.7535887858       19.1454342980       -0.4836686337  W2        1843            0.0000000000
      5530      1844  TIP3      OH2           -18.8809187858       18.1441442980        2.7791013663  W2        1844            0.0000000000
      5531      1844  TIP3      H1            -19.3680487858       17.4085542980        2.4078413663  W2        1844            0.0000000000
      5532      1844  TIP3      H2            -18.3316487858       17.7505342980        3.4570413663  W2        1844            0.0000000000
      5533      1845  TIP3      OH2           -20.4301887858       13.9339542980        7.4171313663  W2        1845            0.0000000000
      5534      1845  TIP3      H1            -21.2960787858       13.8289242980        7.8113613663  W2        1845            0.0000000000
      5535      1845  TIP3      H2            -20.0535987858       14.6922842980        7.8636013663  W2        1845            0.0000000000
      5536      1846  TIP3      OH2           -19.1292187858       12.1903242980       -7.0686186337  W2        1846            0.0000000000
      5537      1846  TIP3      H1            -18.2790787858       12.6114142980       -6.9414586337  W2        1846            0.0000000000
      5538      1846  TIP3      H2            -19.1237087858       11.4503342980       -6.4614786337  W2        1846            0.0000000000
      5539      1847  TIP3      OH2           -18.7346587858       10.2440642980       -5.2450486337  W2        1847            0.0000000000
      5540      1847  TIP3      H1            -19.4611987858        9.7643242980       -4.8472886337  W2        1847            0.0000000000
      5541      1847  TIP3      H2            -18.1533287858       10.4495342980       -4.5128886337  W2        1847            0.0000000000
      5542      1848  TIP3      OH2           -18.9755387858       13.0288142980       -0.2972886337  W2        1848            0.0000000000
      5543      1848  TIP3      H1            -18.1421187858       12.6508142980       -0.5779286337  W2        1848            0.0000000000
      5544      1848  TIP3      H2            -18.8635087858       13.9719342980       -0.4163786337  W2        1848            0.0000000000
      5545      1849  TIP3      OH2           -20.4893087858       15.9065642980        2.0095513663  W2        1849            0.0000000000
      5546      1849  TIP3      H1            -21.1367787858       16.2317142980        2.6350713663  W2        1849            0.0000000000
      5547      1849  TIP3      H2            -21.0069087858       15.4663342980        1.3353813663  W2        1849            0.0000000000
      5548      1850  TIP3      OH2           -18.4663487858       10.1449142980       -8.8539186337  W2        1850            0.0000000000
      5549      1850  TIP3      H1            -18.9882387858       10.5013242980       -9.5728286337  W2        1850            0.0000000000
      5550      1850  TIP3      H2            -18.4994287858       10.8196942980       -8.1758286337  W2        1850            0.0000000000
      5551      1851  TIP3      OH2           -20.1174487858        7.3844742980      -10.3032086337  W2        1851            0.0000000000
      5552      1851  TIP3      H1            -20.0210087858        8.0511742980      -10.9832386337  W2        1851            0.0000000000
      5553      1851  TIP3      H2            -20.2574887858        6.5691042980      -10.7846586337  W2        1851            0.0000000000
      5554      1852  TIP3      OH2           -20.9479787858        8.7647142980       -4.6821786337  W2        1852            0.0000000000
      5555      1852  TIP3      H1            -21.0980987858        7.8195742980       -4.7023986337  W2        1852            0.0000000000
      5556      1852  TIP3      H2            -21.3015287858        9.0458542980       -3.8382686337  W2        1852            0.0000000000
      5557      1853  TIP3      OH2           -35.9127387858       10.8429342980       -0.6717986337  W2        1853            0.0000000000
      5558      1853  TIP3      H1            -35.7284487858       10.7611042980       -1.6075086337  W2        1853            0.0000000000
      5559      1853  TIP3      H2            -35.0634487858       10.7186342980       -0.2481586337  W2        1853            0.0000000000
      5560      1854  TIP3      OH2           -20.0916887858       10.7350442980        4.9566513663  W2        1854            0.0000000000
      5561      1854  TIP3      H1            -19.5089587858       10.0002742980        5.1483713663  W2        1854            0.0000000000
      5562      1854  TIP3      H2            -19.5277587858       11.5070742980        5.0032313663  W2        1854            0.0000000000
      5563      1855  TIP3      OH2           -18.5949787858        8.6376242980        5.6411913663  W2        1855            0.0000000000
      5564      1855  TIP3      H1            -19.4583087858        8.2588342980        5.4756613663  W2        1855            0.0000000000
      5565      1855  TIP3      H2            -17.9906087858        7.8991042980        5.5667713663  W2        1855            0.0000000000
      5566      1856  TIP3      OH2           -20.8700687858        4.7924542980      -11.1856586337  W2        1856            0.0000000000
      5567      1856  TIP3      H1            -20.2594887858        4.4211342980      -10.5488386337  W2        1856            0.0000000000
      5568      1856  TIP3      H2            -21.7069187858        4.3711442980      -10.9896586337  W2        1856            0.0000000000
      5569      1857  TIP3      OH2           -21.2374987858        6.3472942980       -6.2196686337  W2        1857            0.0000000000
      5570      1857  TIP3      H1            -20.9577887858        5.4403342980       -6.0954986337  W2        1857            0.0000000000
      5571      1857  TIP3      H2            -20.4783287858        6.7814442980       -6.6087486337  W2        1857            0.0000000000
      5572      1858  TIP3      OH2           -20.6256687858        6.9290342980       -0.7837786337  W2        1858            0.0000000000
      5573      1858  TIP3      H1            -19.6928687858        7.1410242980       -0.8181786337  W2        1858            0.0000000000
      5574      1858  TIP3      H2            -20.8609187858        7.0302442980        0.1385213663  W2        1858            0.0000000000
      5575      1859  TIP3      OH2           -20.5964787858        7.6655642980        1.9921613663  W2        1859            0.0000000000
      5576      1859  TIP3      H1            -21.4393487858        7.9336042980        2.3581413663  W2        1859            0.0000000000
      5577      1859  TIP3      H2            -20.1540487858        8.4877542980        1.7812713663  W2        1859            0.0000000000
      5578      1860  TIP3      OH2           -36.3152587858        6.1134342980        5.4690813663  W2        1860            0.0000000000
      5579      1860  TIP3      H1            -35.3957687858        5.9912642980        5.7053913663  W2        1860            0.0000000000
      5580      1860  TIP3      H2            -36.7648087858        5.3634042980        5.8584313663  W2        1860            0.0000000000
      5581      1861  TIP3      OH2           -18.3133187858        1.6455842980        7.3456613663  W2        1861            0.0000000000
      5582      1861  TIP3      H1            -17.9636187858        0.9919342980        6.7401313663  W2        1861            0.0000000000
      5583      1861  TIP3      H2            -18.1663687858        2.4829942980        6.9059213663  W2        1861            0.0000000000
      5584      1862  TIP3      OH2           -20.6240187858        3.6102242980       -6.1714686337  W2        1862            0.0000000000
      5585      1862  TIP3      H1            -20.4415187858        3.1613742980       -5.3459686337  W2        1862            0.0000000000
      5586      1862  TIP3      H2            -21.2237287858        3.0256642980       -6.6350086337  W2        1862            0.0000000000
      5587      1863  TIP3      OH2           -35.0940087858        4.4255942980       -1.6396286337  W2        1863            0.0000000000
      5588      1863  TIP3      H1            -34.6488487858        3.6338442980       -1.3376586337  W2        1863            0.0000000000
      5589      1863  TIP3      H2            -34.6277087858        5.1421142980       -1.2090686337  W2        1863            0.0000000000
      5590      1864  TIP3      OH2           -36.7899787858        7.4248942980       -0.5706086337  W2        1864            0.0000000000
      5591      1864  TIP3      H1            -36.2979987858        7.2039442980       -1.3614086337  W2        1864            0.0000000000
      5592      1864  TIP3      H2            -36.4278887858        8.2652342980       -0.2896586337  W2        1864            0.0000000000
      5593      1865  TIP3      OH2           -18.7935987858        3.7550442980        5.6947913663  W2        1865            0.0000000000
      5594      1865  TIP3      H1            -19.7110287858        4.0257542980        5.6591413663  W2        1865            0.0000000000
      5595      1865  TIP3      H2            -18.6706587858        3.2198842980        4.9107613663  W2        1865            0.0000000000
      5596      1866  TIP3      OH2           -18.7573987858        3.6780342980       -9.6434386337  W2        1866            0.0000000000
      5597      1866  TIP3      H1            -18.3451387858        2.9566042980      -10.1186386337  W2        1866            0.0000000000
      5598      1866  TIP3      H2            -18.0757487858        4.3474942980       -9.5850086337  W2        1866            0.0000000000
      5599      1867  TIP3      OH2           -36.4763287858        3.6828042980       -6.5163686337  W2        1867            0.0000000000
      5600      1867  TIP3      H1            -37.4014887858        3.8914642980       -6.6458186337  W2        1867            0.0000000000
      5601      1867  TIP3      H2            -36.0223387858        4.1668842980       -7.2061386337  W2        1867            0.0000000000
      5602      1868  TIP3      OH2           -21.7056087858       18.6669742980       -4.5706286337  W2        1868            0.0000000000
      5603      1868  TIP3      H1            -21.0533187858       18.3191842980       -5.1787186337  W2        1868            0.0000000000
      5604      1868  TIP3      H2            -21.1952287858       19.1552942980       -3.9246586337  W2        1868            0.0000000000
      5605      1869  TIP3      OH2           -36.5127887858        2.4207042980        1.8278813663  W2        1869            0.0000000000
      5606      1869  TIP3      H1            -37.1777387858        2.1747342980        2.4709713663  W2        1869            0.0000000000
      5607      1869  TIP3      H2            -36.9556587858        3.0427442980        1.2506813663  W2        1869            0.0000000000
      5608      1870  TIP3      OH2           -34.3208587858       15.5961142980        5.9724613663  W2        1870            0.0000000000
      5609      1870  TIP3      H1            -35.1416087858       15.7707642980        5.5119313663  W2        1870            0.0000000000
      5610      1870  TIP3      H2            -34.5730787858       15.5225842980        6.8929013663  W2        1870            0.0000000000
      5611      1871  TIP3      OH2           -31.3665687858       16.5702342980        2.2308613663  W2        1871            0.0000000000
      5612      1871  TIP3      H1            -31.7914587858       17.3800842980        1.9483213663  W2        1871            0.0000000000
      5613      1871  TIP3      H2            -30.4622887858       16.6556442980        1.9288413663  W2        1871            0.0000000000
      5614      1872  TIP3      OH2           -27.0554287858       17.9692342980        5.1902313663  W2        1872            0.0000000000
      5615      1872  TIP3      H1            -26.8706787858       17.6358442980        6.0682613663  W2        1872            0.0000000000
      5616      1872  TIP3      H2            -26.2089787858       18.2790942980        4.8681513663  W2        1872            0.0000000000
      5617      1873  TIP3      OH2           -24.7103887858       19.2551242980        4.4343713663  W2        1873            0.0000000000
      5618      1873  TIP3      H1            -24.0334987858       18.6223542980        4.1942913663  W2        1873            0.0000000000
      5619      1873  TIP3      H2            -24.3885087858       19.6561742980        5.2417013663  W2        1873            0.0000000000
      5620      1874  TIP3      OH2           -19.7930087858        1.8446742980        3.5138713663  W2        1874            0.0000000000
      5621      1874  TIP3      H1            -20.6056587858        2.1697042980        3.1263413663  W2        1874            0.0000000000
      5622      1874  TIP3      H2            -19.5601587858        1.0845242980        2.9807813663  W2        1874            0.0000000000
      5623      1875  TIP3      OH2           -33.9648987858       19.8266242980        2.2783913663  W2        1875            0.0000000000
      5624      1875  TIP3      H1            -34.6852587858       20.2667242980        1.8271613663  W2        1875            0.0000000000
      5625      1875  TIP3      H2            -34.3304987858       19.5760942980        3.1267913663  W2        1875            0.0000000000
      5626      1876  TIP3      OH2           -31.4976387858       19.4270142980        1.3081113663  W2        1876            0.0000000000
      5627      1876  TIP3      H1            -32.3624187858       19.4988642980        1.7121213663  W2        1876            0.0000000000
      5628      1876  TIP3      H2            -31.5527387858       19.9737442980        0.5243613663  W2        1876            0.0000000000
      5629      1877  TIP3      OH2           -26.7870787858       19.3149042980        0.4837113663  W2        1877            0.0000000000
      5630      1877  TIP3      H1            -27.2436787858       19.8438742980       -0.1704486337  W2        1877            0.0000000000
      5631      1877  TIP3      H2            -26.6242787858       19.9180442980        1.2089413663  W2        1877            0.0000000000
      5632      1878  TIP3      OH2           -24.4594487858       18.1928642980        1.4287413663  W2        1878            0.0000000000
      5633      1878  TIP3      H1            -25.3640787858       18.3578842980        1.1629513663  W2        1878            0.0000000000
      5634      1878  TIP3      H2            -24.0305887858       19.0460842980        1.3630813663  W2        1878            0.0000000000
      5635      1879  TIP3      OH2           -21.8552587858       19.7627742980        1.7235213663  W2        1879            0.0000000000
      5636      1879  TIP3      H1            -22.0370587858       20.6786642980        1.5130113663  W2        1879            0.0000000000
      5637      1879  TIP3      H2            -21.6784787858       19.3524842980        0.8769813663  W2        1879            0.0000000000
      5638      1880  TIP3      OH2           -34.5500887858       18.4498742980       -0.8114286337  W2        1880            0.0000000000
      5639      1880  TIP3      H1            -34.5684887858       18.0243842980        0.0458013663  W2        1880            0.0000000000
      5640      1880  TIP3      H2            -33.7452987858       18.1313742980       -1.2202086337  W2        1880            0.0000000000
      5641      1881  TIP3      OH2           -32.4087787858       17.1597442980       -2.1564386337  W2        1881            0.0000000000
      5642      1881  TIP3      H1            -32.6277087858       16.2434842980       -1.9868386337  W2        1881            0.0000000000
      5643      1881  TIP3      H2            -31.5845587858       17.2997842980       -1.6902986337  W2        1881            0.0000000000
      5644      1882  TIP3      OH2           -29.8715287858       17.6296742980       -1.3076386337  W2        1882            0.0000000000
      5645      1882  TIP3      H1            -29.6589587858       16.7415742980       -1.5945486337  W2        1882            0.0000000000
      5646      1882  TIP3      H2            -29.8070187858       17.5954442980       -0.3532386337  W2        1882            0.0000000000
      5647      1883  TIP3      OH2           -26.3631587858        3.2937342980       -2.1633086337  W2        1883            0.0000000000
      5648      1883  TIP3      H1            -27.0374787858        2.6642942980       -1.9077286337  W2        1883            0.0000000000
      5649      1883  TIP3      H2            -25.7992387858        2.8096242980       -2.7665186337  W2        1883            0.0000000000
      5650      1884  TIP3      OH2           -21.2204387858        1.4011342980       -2.0505986337  W2        1884            0.0000000000
      5651      1884  TIP3      H1            -20.6166787858        1.9486742980       -2.5524986337  W2        1884            0.0000000000
      5652      1884  TIP3      H2            -22.0902387858        1.7201742980       -2.2911886337  W2        1884            0.0000000000
      5653      1885  TIP3      OH2           -19.4933987858        2.5400042980       -3.7175086337  W2        1885            0.0000000000
      5654      1885  TIP3      H1            -18.8816487858        2.0255742980       -4.2441486337  W2        1885            0.0000000000
      5655      1885  TIP3      H2            -19.1110587858        3.4172142980       -3.6940686337  W2        1885            0.0000000000
      5656      1886  TIP3      OH2           -34.0364087858        1.9277642980       -4.3413186337  W2        1886            0.0000000000
      5657      1886  TIP3      H1            -34.8134287858        1.6932542980       -4.8487286337  W2        1886            0.0000000000
      5658      1886  TIP3      H2            -33.5060487858        1.1309742980       -4.3325186337  W2        1886            0.0000000000
      5659      1887  TIP3      OH2           -35.2000687858        1.7255742980       -8.5377086337  W2        1887            0.0000000000
      5660      1887  TIP3      H1            -34.7609987858        2.3366242980       -9.1293586337  W2        1887            0.0000000000
      5661      1887  TIP3      H2            -35.8338287858        2.2639842980       -8.0637086337  W2        1887            0.0000000000
      5662      1888  TIP3      OH2           -29.4571487858        1.8544742980       -4.5280086337  W2        1888            0.0000000000
      5663      1888  TIP3      H1            -28.5828087858        2.2429042980       -4.5575786337  W2        1888            0.0000000000
      5664      1888  TIP3      H2            -29.5930687858        1.6392542980       -3.6052886337  W2        1888            0.0000000000
      5665      1889  TIP3      OH2           -23.9003087858        1.8844542980       -2.8788386337  W2        1889            0.0000000000
      5666      1889  TIP3      H1            -23.8241487858        1.9796142980       -3.8282386337  W2        1889            0.0000000000
      5667      1889  TIP3      H2            -24.1753887858        0.9767442980       -2.7499286337  W2        1889            0.0000000000
      5668      1890  TIP3      OH2           -22.5470487858        1.9102342980       -7.1863386337  W2        1890            0.0000000000
      5669      1890  TIP3      H1            -23.2499387858        2.5251542980       -7.3961986337  W2        1890            0.0000000000
      5670      1890  TIP3      H2            -22.9919087858        1.0729042980       -7.0552486337  W2        1890            0.0000000000
      5671      1891  TIP3      OH2           -35.2991187858       17.6737942980       -7.6401986337  W2        1891            0.0000000000
      5672      1891  TIP3      H1            -35.9841287858       17.6356842980       -8.3076886337  W2        1891            0.0000000000
      5673      1891  TIP3      H2            -35.2953987858       18.5865542980       -7.3519886337  W2        1891            0.0000000000
      5674      1892  TIP3      OH2           -33.3391587858        3.6417242980      -10.0952986337  W2        1892            0.0000000000
      5675      1892  TIP3      H1            -32.8478187858        3.0119642980      -10.6227486337  W2        1892            0.0000000000
      5676      1892  TIP3      H2            -32.7155287858        3.9376642980       -9.4321786337  W2        1892            0.0000000000
      5677      1893  TIP3      OH2           -28.3131487858        3.9348742980       -7.6382486337  W2        1893            0.0000000000
      5678      1893  TIP3      H1            -28.1350187858        3.2881942980       -6.9553886337  W2        1893            0.0000000000
      5679      1893  TIP3      H2            -28.3665287858        4.7686442980       -7.1711386337  W2        1893            0.0000000000
      5680      1894  TIP3      OH2           -26.4347687858       18.8832842980       -9.2425786337  W2        1894            0.0000000000
      5681      1894  TIP3      H1            -25.5687487858       19.2500242980       -9.4207586337  W2        1894            0.0000000000
      5682      1894  TIP3      H2            -26.6814887858       18.4440842980      -10.0564986337  W2        1894            0.0000000000
      5683      1895  TIP3      OH2           -19.7258087858       18.4463142980       -6.5634686337  W2        1895            0.0000000000
      5684      1895  TIP3      H1            -19.9200987858       17.6985242980       -7.1285086337  W2        1895            0.0000000000
      5685      1895  TIP3      H2            -19.7647987858       19.2043242980       -7.1466786337  W2        1895            0.0000000000
      5686      1896  TIP3      OH2           -34.0786087858        2.4419542980        5.1763013663  W2        1896            0.0000000000
      5687      1896  TIP3      H1            -34.4447887858        1.6762142980        5.6187713663  W2        1896            0.0000000000
      5688      1896  TIP3      H2            -33.1657587858        2.4709742980        5.4628113663  W2        1896            0.0000000000
      5689      1897  TIP3      OH2           -32.1055287858        1.7923942980        6.7120113663  W2        1897            0.0000000000
      5690      1897  TIP3      H1            -31.2071687858        1.5184142980        6.5273513663  W2        1897            0.0000000000
      5691      1897  TIP3      H2            -32.4922187858        1.0499942980        7.1762713663  W2        1897            0.0000000000
      5692      1898  TIP3      OH2           -33.4809987858       18.5938742980      -10.6149886337  W2        1898            0.0000000000
      5693      1898  TIP3      H1            -33.7485387858       18.8801642980       -9.7416786337  W2        1898            0.0000000000
      5694      1898  TIP3      H2            -32.7097387858       18.0477942980      -10.4627386337  W2        1898            0.0000000000
      5695      1899  TIP3      OH2           -23.6842987858        1.1249242980        6.8942913663  W2        1899            0.0000000000
      5696      1899  TIP3      H1            -23.6075787858        0.6989942980        7.7480613663  W2        1899            0.0000000000
      5697      1899  TIP3      H2            -22.7906387858        1.1383942980        6.5516413663  W2        1899            0.0000000000
      5698      1900  TIP3      OH2           -20.5081887858       17.1975542980        5.5867113663  W2        1900            0.0000000000
      5699      1900  TIP3      H1            -21.2899987858       17.0113542980        5.0667713663  W2        1900            0.0000000000
      5700      1900  TIP3      H2            -20.5801987858       18.1269842980        5.8039613663  W2        1900            0.0000000000
      5701      1901  TIP3      OH2            -6.1021487858       11.0839942980       -4.3825686337  W2        1901            0.0000000000
      5702      1901  TIP3      H1             -6.0130387858       12.0278142980       -4.5148586337  W2        1901            0.0000000000
      5703      1901  TIP3      H2             -6.7403887858       10.8086342980       -5.0406286337  W2        1901            0.0000000000
      5704      1902  TIP3      OH2            -7.1690187858       10.3390642980       -0.9637486337  W2        1902            0.0000000000
      5705      1902  TIP3      H1             -7.2072687858        9.6926942980       -0.2587886337  W2        1902            0.0000000000
      5706      1902  TIP3      H2             -7.4913687858        9.8725042980       -1.7348786337  W2        1902            0.0000000000
      5707      1903  TIP3      OH2           -14.8005187858        9.9532742980        0.6292413663  W2        1903            0.0000000000
      5708      1903  TIP3      H1            -14.7593087858        9.3276042980        1.3524813663  W2        1903            0.0000000000
      5709      1903  TIP3      H2            -14.0977487858       10.5771342980        0.8112813663  W2        1903            0.0000000000
      5710      1904  TIP3      OH2            -3.4629987858       13.2781042980       -2.6622386337  W2        1904            0.0000000000
      5711      1904  TIP3      H1             -3.9037287858       12.5577042980       -2.2116786337  W2        1904            0.0000000000
      5712      1904  TIP3      H2             -3.4760287858       13.9988242980       -2.0324686337  W2        1904            0.0000000000
      5713      1905  TIP3      OH2           -13.8772087858       14.4031642980       -0.8358486337  W2        1905            0.0000000000
      5714      1905  TIP3      H1            -14.2466887858       13.6012142980       -1.2054186337  W2        1905            0.0000000000
      5715      1905  TIP3      H2            -12.9360987858       14.2346542980       -0.7895086337  W2        1905            0.0000000000
      5716      1906  TIP3      OH2           -17.2671587858        8.0634242980       -5.4429686337  W2        1906            0.0000000000
      5717      1906  TIP3      H1            -17.7148187858        8.9092942980       -5.4613186337  W2        1906            0.0000000000
      5718      1906  TIP3      H2            -17.8280387858        7.4838442980       -5.9584586337  W2        1906            0.0000000000
      5719      1907  TIP3      OH2           -16.5565487858       10.2253842980       -3.3171686337  W2        1907            0.0000000000
      5720      1907  TIP3      H1            -16.3431987858        9.4555442980       -2.7898686337  W2        1907            0.0000000000
      5721      1907  TIP3      H2            -15.8187887858       10.3150542980       -3.9204086337  W2        1907            0.0000000000
      5722      1908  TIP3      OH2            -6.3514487858       18.3822742980       -2.4501986337  W2        1908            0.0000000000
      5723      1908  TIP3      H1             -5.7318087858       17.7057442980       -2.7232786337  W2        1908            0.0000000000
      5724      1908  TIP3      H2             -6.5597087858       18.1643542980       -1.5417086337  W2        1908            0.0000000000
      5725      1909  TIP3      OH2            -8.7795787858       12.7712042980       -0.5576486337  W2        1909            0.0000000000
      5726      1909  TIP3      H1             -8.4757887858       12.0853442980       -1.1522386337  W2        1909            0.0000000000
      5727      1909  TIP3      H2             -8.0581787858       12.8900742980        0.0601513663  W2        1909            0.0000000000
      5728      1910  TIP3      OH2            -0.1165987858        4.3727342980        0.3029713663  W2        1910            0.0000000000
      5729      1910  TIP3      H1             -0.0673787858        4.9828542980        1.0388813663  W2        1910            0.0000000000
      5730      1910  TIP3      H2              0.3089112142        4.8338242980       -0.4199186337  W2        1910            0.0000000000
      5731      1911  TIP3      OH2            -5.6388787858        7.1654442980       -0.2301686337  W2        1911            0.0000000000
      5732      1911  TIP3      H1             -5.4962887858        6.2191442980       -0.2100086337  W2        1911            0.0000000000
      5733      1911  TIP3      H2             -5.7449787858        7.3724242980       -1.1586786337  W2        1911            0.0000000000
      5734      1912  TIP3      OH2           -12.4840487858        5.2670842980       -2.9576886337  W2        1912            0.0000000000
      5735      1912  TIP3      H1            -12.4409387858        6.1269342980       -3.3760586337  W2        1912            0.0000000000
      5736      1912  TIP3      H2            -12.9416387858        4.7145542980       -3.5913686337  W2        1912            0.0000000000
      5737      1913  TIP3      OH2            -4.7617787858        5.3976442980       -4.5568586337  W2        1913            0.0000000000
      5738      1913  TIP3      H1             -4.1153487858        5.0689642980       -3.9320986337  W2        1913            0.0000000000
      5739      1913  TIP3      H2             -4.2518387858        5.9155442980       -5.1797186337  W2        1913            0.0000000000
      5740      1914  TIP3      OH2           -15.8638987858        7.6636642980       -2.1955486337  W2        1914            0.0000000000
      5741      1914  TIP3      H1            -15.2102387858        7.1138342980       -1.7635386337  W2        1914            0.0000000000
      5742      1914  TIP3      H2            -15.8399687858        7.3895642980       -3.1123486337  W2        1914            0.0000000000
      5743      1915  TIP3      OH2           -10.7074487858        9.2137942980       -2.9803986337  W2        1915            0.0000000000
      5744      1915  TIP3      H1            -10.0913487858        8.6873342980       -2.4709986337  W2        1915            0.0000000000
      5745      1915  TIP3      H2            -11.2935687858        8.5736642980       -3.3840386337  W2        1915            0.0000000000
      5746      1916  TIP3      OH2             0.2748612142        5.8506542980        2.5389513663  W2        1916            0.0000000000
      5747      1916  TIP3      H1             -0.4136787858        6.5087242980        2.4436113663  W2        1916            0.0000000000
      5748      1916  TIP3      H2              0.2903212142        5.6534442980        3.4754913663  W2        1916            0.0000000000
      5749      1917  TIP3      OH2           -13.6738587858        4.1849242980        1.1163913663  W2        1917            0.0000000000
      5750      1917  TIP3      H1            -13.8926887858        4.7149842980        0.3499913663  W2        1917            0.0000000000
      5751      1917  TIP3      H2            -14.3417687858        4.4114742980        1.7635313663  W2        1917            0.0000000000
      5752      1918  TIP3      OH2            -6.3048787858       13.6850342980       -5.3396986337  W2        1918            0.0000000000
      5753      1918  TIP3      H1             -6.6003687858       13.3622642980       -6.1910086337  W2        1918            0.0000000000
      5754      1918  TIP3      H2             -6.6290987858       14.5847042980       -5.2984386337  W2        1918            0.0000000000
      5755      1919  TIP3      OH2           -11.1047187858       11.8604942980        1.4037613663  W2        1919            0.0000000000
      5756      1919  TIP3      H1            -11.8448087858       12.4586442980        1.5072813663  W2        1919            0.0000000000
      5757      1919  TIP3      H2            -10.3907687858       12.4144542980        1.0881213663  W2        1919            0.0000000000
      5758      1920  TIP3      OH2            -2.9979387858        4.6885742980       -2.5762686337  W2        1920            0.0000000000
      5759      1920  TIP3      H1             -3.2131387858        3.9229142980       -2.0436686337  W2        1920            0.0000000000
      5760      1920  TIP3      H2             -2.3421987858        5.1610342980       -2.0634186337  W2        1920            0.0000000000
      5761      1921  TIP3      OH2           -14.0801287858        6.0771042980       -0.9313886337  W2        1921            0.0000000000
      5762      1921  TIP3      H1            -13.4664987858        6.7098642980       -0.5581486337  W2        1921            0.0000000000
      5763      1921  TIP3      H2            -13.5680587858        5.6046042980       -1.5876986337  W2        1921            0.0000000000
      5764      1922  TIP3      OH2           -12.6972887858       13.8247942980        2.1909113663  W2        1922            0.0000000000
      5765      1922  TIP3      H1            -12.7025287858       14.7041442980        1.8128413663  W2        1922            0.0000000000
      5766      1922  TIP3      H2            -13.5508787858       13.7412042980        2.6159013663  W2        1922            0.0000000000
      5767      1923  TIP3      OH2           -16.5761987858       13.4955842980       -7.0271586337  W2        1923            0.0000000000
      5768      1923  TIP3      H1            -16.8481087858       13.7246842980       -7.9158686337  W2        1923            0.0000000000
      5769      1923  TIP3      H2            -16.5306287858       14.3334642980       -6.5666286337  W2        1923            0.0000000000
      5770      1924  TIP3      OH2            -2.9512287858       15.1171742980       -0.3143086337  W2        1924            0.0000000000
      5771      1924  TIP3      H1             -3.8928587858       15.1755642980       -0.1526186337  W2        1924            0.0000000000
      5772      1924  TIP3      H2             -2.6746187858       16.0232242980       -0.4513386337  W2        1924            0.0000000000
      5773      1925  TIP3      OH2            -2.6505287858        3.4037042980        1.1030813663  W2        1925            0.0000000000
      5774      1925  TIP3      H1             -3.3866087858        4.0144142980        1.0652113663  W2        1925            0.0000000000
      5775      1925  TIP3      H2             -1.9671287858        3.8186042980        0.5767213663  W2        1925            0.0000000000
      5776      1926  TIP3      OH2            -9.6473887858        1.4904342980       -1.4311186337  W2        1926            0.0000000000
      5777      1926  TIP3      H1             -9.7649687858        0.5420342980       -1.4852886337  W2        1926            0.0000000000
      5778      1926  TIP3      H2            -10.5023787858        1.8230442980       -1.1580086337  W2        1926            0.0000000000
      5779      1927  TIP3      OH2            -4.6991087858       16.8985242980       -3.6891486337  W2        1927            0.0000000000
      5780      1927  TIP3      H1             -4.2738787858       16.1913142980       -4.1741886337  W2        1927            0.0000000000
      5781      1927  TIP3      H2             -4.3821087858       17.6997942980       -4.1059286337  W2        1927            0.0000000000
      5782      1928  TIP3      OH2            -3.5394587858       14.7993742980       -5.1804886337  W2        1928            0.0000000000
      5783      1928  TIP3      H1             -3.7969787858       14.1093842980       -5.7918986337  W2        1928            0.0000000000
      5784      1928  TIP3      H2             -3.4683787858       14.3564942980       -4.3348986337  W2        1928            0.0000000000
      5785      1929  TIP3      OH2            -1.8534387858       13.3660442980        3.2968613663  W2        1929            0.0000000000
      5786      1929  TIP3      H1             -1.7138087858       12.7742942980        2.5575613663  W2        1929            0.0000000000
      5787      1929  TIP3      H2             -1.6861587858       14.2386342980        2.9407413663  W2        1929            0.0000000000
      5788      1930  TIP3      OH2            -7.3808987858       10.3279942980       -6.9305386337  W2        1930            0.0000000000
      5789      1930  TIP3      H1             -8.0923487858       10.8629642980       -7.2824886337  W2        1930            0.0000000000
      5790      1930  TIP3      H2             -6.6899387858       10.3832042980       -7.5906486337  W2        1930            0.0000000000
      5791      1931  TIP3      OH2            -7.3269787858        8.7854242980       -9.8920386337  W2        1931            0.0000000000
      5792      1931  TIP3      H1             -6.6259887858        8.8081142980       -9.2406386337  W2        1931            0.0000000000
      5793      1931  TIP3      H2             -7.0246887858        8.1573942980      -10.5481086337  W2        1931            0.0000000000
      5794      1932  TIP3      OH2            -0.0115087858        9.7058442980        1.3629013663  W2        1932            0.0000000000
      5795      1932  TIP3      H1             -0.6640987858       10.4004042980        1.4519913663  W2        1932            0.0000000000
      5796      1932  TIP3      H2              0.4535212142        9.9159342980        0.5530613663  W2        1932            0.0000000000
      5797      1933  TIP3      OH2            -3.9751287858       10.5373242980       -5.9789486337  W2        1933            0.0000000000
      5798      1933  TIP3      H1             -4.7070287858       10.7656942980       -5.4058886337  W2        1933            0.0000000000
      5799      1933  TIP3      H2             -3.5279087858        9.8235942980       -5.5241986337  W2        1933            0.0000000000
      5800      1934  TIP3      OH2            -4.0777787858        8.7115842980        3.0887513663  W2        1934            0.0000000000
      5801      1934  TIP3      H1             -3.9978687858        9.4750242980        3.6606013663  W2        1934            0.0000000000
      5802      1934  TIP3      H2             -4.6790087858        8.9908242980        2.3982613663  W2        1934            0.0000000000
      5803      1935  TIP3      OH2           -12.3297587858       11.1679442980       -4.0964486337  W2        1935            0.0000000000
      5804      1935  TIP3      H1            -12.6602387858       10.7972842980       -4.9147486337  W2        1935            0.0000000000
      5805      1935  TIP3      H2            -11.7413487858       10.4973442980       -3.7496186337  W2        1935            0.0000000000
      5806      1936  TIP3      OH2           -10.9630087858       14.5960042980       -1.4152286337  W2        1936            0.0000000000
      5807      1936  TIP3      H1            -11.0578787858       14.0173142980       -2.1717686337  W2        1936            0.0000000000
      5808      1936  TIP3      H2            -10.2336487858       14.2245742980       -0.9189486337  W2        1936            0.0000000000
      5809      1937  TIP3      OH2           -11.9632087858        9.9365042980       -0.4629486337  W2        1937            0.0000000000
      5810      1937  TIP3      H1            -11.3979587858       10.0579242980       -1.2258286337  W2        1937            0.0000000000
      5811      1937  TIP3      H2            -11.6443187858       10.5740042980        0.1759013663  W2        1937            0.0000000000
      5812      1938  TIP3      OH2            -5.6539887858       15.4396942980        0.2711013663  W2        1938            0.0000000000
      5813      1938  TIP3      H1             -5.8943287858       16.1020042980        0.9190213663  W2        1938            0.0000000000
      5814      1938  TIP3      H2             -5.8521687858       14.6052142980        0.6960613663  W2        1938            0.0000000000
      5815      1939  TIP3      OH2           -11.0831387858       14.3357742980        4.2542413663  W2        1939            0.0000000000
      5816      1939  TIP3      H1            -11.3943887858       15.1180942980        4.7095613663  W2        1939            0.0000000000
      5817      1939  TIP3      H2            -11.7331187858       14.1826842980        3.5684413663  W2        1939            0.0000000000
      5818      1940  TIP3      OH2            -5.1041787858        9.6996142980       -8.2938286337  W2        1940            0.0000000000
      5819      1940  TIP3      H1             -4.5246287858        9.8496442980       -7.5469386337  W2        1940            0.0000000000
      5820      1940  TIP3      H2             -4.6901787858       10.1703542980       -9.0171886337  W2        1940            0.0000000000
      5821      1941  TIP3      OH2           -14.1631487858       10.5338842980        3.4828113663  W2        1941            0.0000000000
      5822      1941  TIP3      H1            -14.0928287858       11.1845642980        4.1813113663  W2        1941            0.0000000000
      5823      1941  TIP3      H2            -15.0539287858       10.6366342980        3.1479013663  W2        1941            0.0000000000
      5824      1942  TIP3      OH2            -7.3776887858       16.4364642980       -4.8585186337  W2        1942            0.0000000000
      5825      1942  TIP3      H1             -6.9039287858       16.7320942980       -4.0810986337  W2        1942            0.0000000000
      5826      1942  TIP3      H2             -7.9407587858       17.1746242980       -5.0915586337  W2        1942            0.0000000000
      5827      1943  TIP3      OH2           -12.8435487858       16.4072742980        5.0176213663  W2        1943            0.0000000000
      5828      1943  TIP3      H1            -12.8360187858       16.2712442980        4.0701713663  W2        1943            0.0000000000
      5829      1943  TIP3      H2            -13.7595087858       16.2900842980        5.2696213663  W2        1943            0.0000000000
      5830      1944  TIP3      OH2            -1.4053387858        1.4496542980       -8.4808586337  W2        1944            0.0000000000
      5831      1944  TIP3      H1             -2.3052687858        1.5885542980       -8.1857986337  W2        1944            0.0000000000
      5832      1944  TIP3      H2             -1.1534987858        2.2811142980       -8.8826886337  W2        1944            0.0000000000
      5833      1945  TIP3      OH2           -13.3394887858       10.2373742980       -6.5071686337  W2        1945            0.0000000000
      5834      1945  TIP3      H1            -13.6313587858       11.0055442980       -6.9980386337  W2        1945            0.0000000000
      5835      1945  TIP3      H2            -14.0139687858        9.5779942980       -6.6700286337  W2        1945            0.0000000000
      5836      1946  TIP3      OH2            -0.2161987858       15.8158942980      -10.1044686337  W2        1946            0.0000000000
      5837      1946  TIP3      H1             -0.1428487858       16.7549142980       -9.9339386337  W2        1946            0.0000000000
      5838      1946  TIP3      H2              0.6893112142       15.5107542980      -10.1607386337  W2        1946            0.0000000000
      5839      1947  TIP3      OH2           -17.2464787858       12.6002942980        2.3078113663  W2        1947            0.0000000000
      5840      1947  TIP3      H1            -17.7476387858       12.5722342980        1.4927813663  W2        1947            0.0000000000
      5841      1947  TIP3      H2            -17.2411087858       11.6946142980        2.6175413663  W2        1947            0.0000000000
      5842      1948  TIP3      OH2           -17.4962087858       15.3806742980       -0.8081686337  W2        1948            0.0000000000
      5843      1948  TIP3      H1            -16.5501487858       15.2363742980       -0.8272186337  W2        1948            0.0000000000
      5844      1948  TIP3      H2            -17.6085787858       16.1649542980       -0.2710486337  W2        1948            0.0000000000
      5845      1949  TIP3      OH2             0.7016412142       16.0466442980        4.8742013663  W2        1949            0.0000000000
      5846      1949  TIP3      H1              0.6523212142       15.0914542980        4.8369613663  W2        1949            0.0000000000
      5847      1949  TIP3      H2             -0.1251287858       16.3141742980        5.2755813663  W2        1949            0.0000000000
      5848      1950  TIP3      OH2            -8.3199587858       15.6205642980        3.7503413663  W2        1950            0.0000000000
      5849      1950  TIP3      H1             -8.2324987858       16.4470242980        4.2252513663  W2        1950            0.0000000000
      5850      1950  TIP3      H2             -9.1834487858       15.2909442980        3.9992713663  W2        1950            0.0000000000
      5851      1951  TIP3      OH2            -7.9053787858       19.3929342980       -6.4435986337  W2        1951            0.0000000000
      5852      1951  TIP3      H1             -7.9807787858       19.2716542980       -7.3900786337  W2        1951            0.0000000000
      5853      1951  TIP3      H2             -7.8725087858       20.3422042980       -6.3251386337  W2        1951            0.0000000000
      5854      1952  TIP3      OH2           -14.2519987858       18.1816342980       -4.6626986337  W2        1952            0.0000000000
      5855      1952  TIP3      H1            -14.0999587858       17.8336742980       -3.7840486337  W2        1952            0.0000000000
      5856      1952  TIP3      H2            -15.1029587858       17.8253642980       -4.9179786337  W2        1952            0.0000000000
      5857      1953  TIP3      OH2            -4.8037787858       18.5469542980       -9.4413586337  W2        1953            0.0000000000
      5858      1953  TIP3      H1             -4.4289387858       17.8025642980       -9.9120986337  W2        1953            0.0000000000
      5859      1953  TIP3      H2             -4.7994087858       18.2770142980       -8.5230286337  W2        1953            0.0000000000
      5860      1954  TIP3      OH2            -5.1349687858       18.4726642980       -6.6921386337  W2        1954            0.0000000000
      5861      1954  TIP3      H1             -6.0699887858       18.5728542980       -6.5134386337  W2        1954            0.0000000000
      5862      1954  TIP3      H2             -4.8547787858       17.7632642980       -6.1138186337  W2        1954            0.0000000000
      5863      1955  TIP3      OH2            -2.1463787858        7.5398942980        5.3544213663  W2        1955            0.0000000000
      5864      1955  TIP3      H1             -2.5536987858        8.0204542980        4.6337513663  W2        1955            0.0000000000
      5865      1955  TIP3      H2             -2.1058087858        6.6344942980        5.0465013663  W2        1955            0.0000000000
      5866      1956  TIP3      OH2           -14.9974287858       13.9238342980        3.3510913663  W2        1956            0.0000000000
      5867      1956  TIP3      H1            -14.7812987858       13.5623942980        4.2106713663  W2        1956            0.0000000000
      5868      1956  TIP3      H2            -15.8529587858       13.5492142980        3.1414413663  W2        1956            0.0000000000
      5869      1957  TIP3      OH2           -12.3786287858        2.3938842980       -0.6534886337  W2        1957            0.0000000000
      5870      1957  TIP3      H1            -13.2402587858        2.3067042980       -1.0611986337  W2        1957            0.0000000000
      5871      1957  TIP3      H2            -12.4010587858        3.2498942980       -0.2257286337  W2        1957            0.0000000000
      5872      1958  TIP3      OH2            -7.7158487858        2.1159242980        2.7212113663  W2        1958            0.0000000000
      5873      1958  TIP3      H1             -7.2955387858        1.7006342980        3.4742713663  W2        1958            0.0000000000
      5874      1958  TIP3      H2             -8.6488887858        1.9372542980        2.8384113663  W2        1958            0.0000000000
      5875      1959  TIP3      OH2            -4.3893587858        5.8714442980        3.5746613663  W2        1959            0.0000000000
      5876      1959  TIP3      H1             -4.9034087858        5.7456642980        4.3722613663  W2        1959            0.0000000000
      5877      1959  TIP3      H2             -4.5448887858        6.7837542980        3.3302813663  W2        1959            0.0000000000
      5878      1960  TIP3      OH2            -3.6268687858       10.7324442980      -10.6640386337  W2        1960            0.0000000000
      5879      1960  TIP3      H1             -3.5847887858       10.5098342980      -11.5940386337  W2        1960            0.0000000000
      5880      1960  TIP3      H2             -2.7776587858       11.1311542980      -10.4740486337  W2        1960            0.0000000000
      5881      1961  TIP3      OH2            -8.0541187858        4.6082642980       -9.9937086337  W2        1961            0.0000000000
      5882      1961  TIP3      H1             -8.3076387858        4.6274242980       -9.0708986337  W2        1961            0.0000000000
      5883      1961  TIP3      H2             -8.3109087858        3.7368042980      -10.2950886337  W2        1961            0.0000000000
      5884      1962  TIP3      OH2           -12.2876187858        7.3593342980        0.4415313663  W2        1962            0.0000000000
      5885      1962  TIP3      H1            -12.9294087858        7.3190642980        1.1505413663  W2        1962            0.0000000000
      5886      1962  TIP3      H2            -12.2504187858        8.2858042980        0.2038313663  W2        1962            0.0000000000
      5887      1963  TIP3      OH2           -12.2907087858        7.5803442980       -4.6464686337  W2        1963            0.0000000000
      5888      1963  TIP3      H1            -13.1834187858        7.2399542980       -4.7050886337  W2        1963            0.0000000000
      5889      1963  TIP3      H2            -11.8400487858        7.2034342980       -5.4021486337  W2        1963            0.0000000000
      5890      1964  TIP3      OH2            -6.7551587858        7.9963742980       -5.8293886337  W2        1964            0.0000000000
      5891      1964  TIP3      H1             -7.1641287858        8.8112342980       -6.1209086337  W2        1964            0.0000000000
      5892      1964  TIP3      H2             -6.0345387858        7.8563842980       -6.4436786337  W2        1964            0.0000000000
      5893      1965  TIP3      OH2            -7.6529987858        8.1720142980        5.6586813663  W2        1965            0.0000000000
      5894      1965  TIP3      H1             -8.2156187858        7.4671742980        5.9794613663  W2        1965            0.0000000000
      5895      1965  TIP3      H2             -6.8266587858        8.0512042980        6.1264413663  W2        1965            0.0000000000
      5896      1966  TIP3      OH2            -5.7503887858        7.4424142980       -3.0154186337  W2        1966            0.0000000000
      5897      1966  TIP3      H1             -5.9459387858        8.0480942980       -3.7303586337  W2        1966            0.0000000000
      5898      1966  TIP3      H2             -5.5691287858        6.6089342980       -3.4497886337  W2        1966            0.0000000000
      5899      1967  TIP3      OH2           -14.5375687858        7.6796842980        2.3087313663  W2        1967            0.0000000000
      5900      1967  TIP3      H1            -14.5756287858        8.0798442980        3.1774413663  W2        1967            0.0000000000
      5901      1967  TIP3      H2            -15.0284587858        6.8629242980        2.3990213663  W2        1967            0.0000000000
      5902      1968  TIP3      OH2           -11.1718287858        5.0539142980      -10.8926686337  W2        1968            0.0000000000
      5903      1968  TIP3      H1            -11.6027587858        4.6089242980      -10.1629286337  W2        1968            0.0000000000
      5904      1968  TIP3      H2            -11.8899587858        5.4255442980      -11.4049186337  W2        1968            0.0000000000
      5905      1969  TIP3      OH2           -17.9294887858        4.7958642980       -3.8407986337  W2        1969            0.0000000000
      5906      1969  TIP3      H1            -17.2987187858        4.7670742980       -3.1214086337  W2        1969            0.0000000000
      5907      1969  TIP3      H2            -17.4800587858        4.3707342980       -4.5712086337  W2        1969            0.0000000000
      5908      1970  TIP3      OH2           -16.6552787858        5.5420642980       -8.4167586337  W2        1970            0.0000000000
      5909      1970  TIP3      H1            -16.1811087858        6.1330542980       -9.0016686337  W2        1970            0.0000000000
      5910      1970  TIP3      H2            -17.3726387858        6.0723542980       -8.0697486337  W2        1970            0.0000000000
      5911      1971  TIP3      OH2            -6.4864687858        9.0805442980        1.6558213663  W2        1971            0.0000000000
      5912      1971  TIP3      H1             -6.1629887858        8.4495142980        1.0128713663  W2        1971            0.0000000000
      5913      1971  TIP3      H2             -6.9265387858        8.5457642980        2.3165613663  W2        1971            0.0000000000
      5914      1972  TIP3      OH2            -9.7091787858        5.0080942980       -3.5600586337  W2        1972            0.0000000000
      5915      1972  TIP3      H1            -10.6200687858        5.0647742980       -3.2714586337  W2        1972            0.0000000000
      5916      1972  TIP3      H2             -9.2038887858        4.9476442980       -2.7493386337  W2        1972            0.0000000000
      5917      1973  TIP3      OH2           -14.8808387858        6.6367242980       -4.7332986337  W2        1973            0.0000000000
      5918      1973  TIP3      H1            -15.7700387858        6.7362742980       -5.0733386337  W2        1973            0.0000000000
      5919      1973  TIP3      H2            -14.5843487858        5.7950242980       -5.0795086337  W2        1973            0.0000000000
      5920      1974  TIP3      OH2           -11.2276587858        6.6369842980       -7.0768386337  W2        1974            0.0000000000
      5921      1974  TIP3      H1            -10.2961087858        6.7659842980       -6.8985286337  W2        1974            0.0000000000
      5922      1974  TIP3      H2            -11.4426287858        7.3064142980       -7.7263686337  W2        1974            0.0000000000
      5923      1975  TIP3      OH2            -5.3039887858        4.2427242980       -0.2958786337  W2        1975            0.0000000000
      5924      1975  TIP3      H1             -5.9808287858        4.3740342980        0.3680913663  W2        1975            0.0000000000
      5925      1975  TIP3      H2             -5.7894987858        4.0876742980       -1.1061086337  W2        1975            0.0000000000
      5926      1976  TIP3      OH2           -12.5536387858        7.8312042980       -9.5102286337  W2        1976            0.0000000000
      5927      1976  TIP3      H1            -13.0961287858        7.4515842980      -10.2014686337  W2        1976            0.0000000000
      5928      1976  TIP3      H2            -11.7201487858        8.0256742980       -9.9388186337  W2        1976            0.0000000000
      5929      1977  TIP3      OH2            -2.0164787858       19.9142642980        5.9808813663  W2        1977            0.0000000000
      5930      1977  TIP3      H1             -1.8166087858       20.3384542980        5.1464113663  W2        1977            0.0000000000
      5931      1977  TIP3      H2             -1.3611087858       20.2580842980        6.5879213663  W2        1977            0.0000000000
      5932      1978  TIP3      OH2           -14.4184987858       12.3883942980        5.5889313663  W2        1978            0.0000000000
      5933      1978  TIP3      H1            -13.6862587858       12.6429842980        6.1503813663  W2        1978            0.0000000000
      5934      1978  TIP3      H2            -15.1986287858       12.5929342980        6.1044713663  W2        1978            0.0000000000
      5935      1979  TIP3      OH2            -8.3892087858        7.7953942980       -1.6730986337  W2        1979            0.0000000000
      5936      1979  TIP3      H1             -7.8248687858        7.2490542980       -2.2201386337  W2        1979            0.0000000000
      5937      1979  TIP3      H2             -8.5368687858        7.2735842980       -0.8843386337  W2        1979            0.0000000000
      5938      1980  TIP3      OH2           -13.3872387858        3.9320042980       -5.2546186337  W2        1980            0.0000000000
      5939      1980  TIP3      H1            -13.7042887858        3.0295342980       -5.2900786337  W2        1980            0.0000000000
      5940      1980  TIP3      H2            -12.6058287858        3.9337442980       -5.8074586337  W2        1980            0.0000000000
      5941      1981  TIP3      OH2            -9.7626187858        6.1840042980        0.7409413663  W2        1981            0.0000000000
      5942      1981  TIP3      H1            -10.5980887858        6.6379542980        0.8511813663  W2        1981            0.0000000000
      5943      1981  TIP3      H2             -9.2385587858        6.4598542980        1.4929313663  W2        1981            0.0000000000
      5944      1982  TIP3      OH2            -9.2183587858       12.3967742980       -7.5744186337  W2        1982            0.0000000000
      5945      1982  TIP3      H1             -9.9632587858       11.8893042980       -7.8966286337  W2        1982            0.0000000000
      5946      1982  TIP3      H2             -9.3526387858       12.4455742980       -6.6279386337  W2        1982            0.0000000000
      5947      1983  TIP3      OH2            -2.0684687858       11.5295942980        1.2123413663  W2        1983            0.0000000000
      5948      1983  TIP3      H1             -1.4265887858       11.9862242980        0.6685613663  W2        1983            0.0000000000
      5949      1983  TIP3      H2             -2.8987787858       11.6428342980        0.7497513663  W2        1983            0.0000000000
      5950      1984  TIP3      OH2            -5.3206787858        5.2107642980       -9.3751586337  W2        1984            0.0000000000
      5951      1984  TIP3      H1             -6.2592587858        5.3223242980       -9.5262786337  W2        1984            0.0000000000
      5952      1984  TIP3      H2             -5.0234687858        6.0674542980       -9.0685886337  W2        1984            0.0000000000
      5953      1985  TIP3      OH2            -7.6991487858       12.5811042980        3.6624913663  W2        1985            0.0000000000
      5954      1985  TIP3      H1             -8.0445387858       12.1993442980        4.4694513663  W2        1985            0.0000000000
      5955      1985  TIP3      H2             -7.8991387858       13.5144642980        3.7337813663  W2        1985            0.0000000000
      5956      1986  TIP3      OH2            -4.6023287858        7.0780342980       -7.7144186337  W2        1986            0.0000000000
      5957      1986  TIP3      H1             -3.7104287858        6.9405342980       -7.3952986337  W2        1986            0.0000000000
      5958      1986  TIP3      H2             -4.5459687858        7.8686442980       -8.2510686337  W2        1986            0.0000000000
      5959      1987  TIP3      OH2           -14.0935287858       11.6917742980       -1.8046286337  W2        1987            0.0000000000
      5960      1987  TIP3      H1            -13.3488087858       11.6893442980       -2.4059786337  W2        1987            0.0000000000
      5961      1987  TIP3      H2            -14.0158687858       10.8681542980       -1.3231186337  W2        1987            0.0000000000
      5962      1988  TIP3      OH2            -7.0929487858       13.8552042980       -8.5489586337  W2        1988            0.0000000000
      5963      1988  TIP3      H1             -7.3881087858       14.6819942980       -8.1674786337  W2        1988            0.0000000000
      5964      1988  TIP3      H2             -7.7959487858       13.2358942980       -8.3528186337  W2        1988            0.0000000000
      5965      1989  TIP3      OH2           -17.0855587858       10.1524642980        3.5102213663  W2        1989            0.0000000000
      5966      1989  TIP3      H1            -16.8626987858        9.7344242980        4.3419713663  W2        1989            0.0000000000
      5967      1989  TIP3      H2            -17.6875487858        9.5399642980        3.0875013663  W2        1989            0.0000000000
      5968      1990  TIP3      OH2           -10.0690687858        9.6694542980        5.7231913663  W2        1990            0.0000000000
      5969      1990  TIP3      H1            -10.3649887858        9.5037542980        4.8281013663  W2        1990            0.0000000000
      5970      1990  TIP3      H2             -9.1375487858        9.4494842980        5.7125813663  W2        1990            0.0000000000
      5971      1991  TIP3      OH2            -5.4487887858       15.0426542980        3.6129913663  W2        1991            0.0000000000
      5972      1991  TIP3      H1             -6.3493587858       15.2259142980        3.3453813663  W2        1991            0.0000000000
      5973      1991  TIP3      H2             -5.4146787858       15.3015842980        4.5338713663  W2        1991            0.0000000000
      5974      1992  TIP3      OH2             0.2825412142        7.2874442980       -8.0197486337  W2        1992            0.0000000000
      5975      1992  TIP3      H1             -0.2718287858        6.8912442980       -8.6919986337  W2        1992            0.0000000000
      5976      1992  TIP3      H2              0.3829012142        8.1979642980       -8.2974186337  W2        1992            0.0000000000
      5977      1993  TIP3      OH2             0.2457412142       13.0876142980        4.8174013663  W2        1993            0.0000000000
      5978      1993  TIP3      H1             -0.6054087858       13.3259942980        4.4500413663  W2        1993            0.0000000000
      5979      1993  TIP3      H2              0.8360812142       13.0709342980        4.0641113663  W2        1993            0.0000000000
      5980      1994  TIP3      OH2            -1.4222887858       16.0734842980       -7.5545386337  W2        1994            0.0000000000
      5981      1994  TIP3      H1             -1.7951787858       15.2478642980       -7.2454786337  W2        1994            0.0000000000
      5982      1994  TIP3      H2             -1.1449387858       15.8904242980       -8.4521986337  W2        1994            0.0000000000
      5983      1995  TIP3      OH2            -4.2618987858       10.8814342980       -0.5333486337  W2        1995            0.0000000000
      5984      1995  TIP3      H1             -5.1902087858       10.6496242980       -0.5604186337  W2        1995            0.0000000000
      5985      1995  TIP3      H2             -3.8107887858       10.1044142980       -0.8634686337  W2        1995            0.0000000000
      5986      1996  TIP3      OH2           -11.7185887858       15.2095942980       -4.4004786337  W2        1996            0.0000000000
      5987      1996  TIP3      H1            -11.1913687858       15.9830342980       -4.6005986337  W2        1996            0.0000000000
      5988      1996  TIP3      H2            -12.5987387858       15.4345142980       -4.7020786337  W2        1996            0.0000000000
      5989      1997  TIP3      OH2           -15.9638187858       10.0720042980       -9.8132386337  W2        1997            0.0000000000
      5990      1997  TIP3      H1            -15.3478287858       10.6987242980       -9.4337586337  W2        1997            0.0000000000
      5991      1997  TIP3      H2            -16.8255587858       10.3879842980       -9.5415886337  W2        1997            0.0000000000
      5992      1998  TIP3      OH2           -10.2913587858       12.8725842980       -4.8240486337  W2        1998            0.0000000000
      5993      1998  TIP3      H1            -10.5323587858       13.7980242980       -4.7825186337  W2        1998            0.0000000000
      5994      1998  TIP3      H2            -11.0319987858       12.4137142980       -4.4276586337  W2        1998            0.0000000000
      5995      1999  TIP3      OH2            -9.7766987858       17.0219442980        1.4910613663  W2        1999            0.0000000000
      5996      1999  TIP3      H1             -9.4142287858       17.8765042980        1.2575013663  W2        1999            0.0000000000
      5997      1999  TIP3      H2             -9.2451787858       16.7301042980        2.2316913663  W2        1999            0.0000000000
      5998      2000  TIP3      OH2           -11.6082787858       17.8943442980       -5.2788286337  W2        2000            0.0000000000
      5999      2000  TIP3      H1            -12.5582287858       18.0000842980       -5.2274986337  W2        2000            0.0000000000
      6000      2000  TIP3      H2            -11.2564687858       18.7150842980       -4.9340786337  W2        2000            0.0000000000
      6001      2001  TIP3      OH2            -6.2326187858       13.1210142980        1.1916213663  W2        2001            0.0000000000
      6002      2001  TIP3      H1             -6.6584887858       12.8931842980        2.0180213663  W2        2001            0.0000000000
      6003      2001  TIP3      H2             -5.6520387858       12.3821942980        1.0091513663  W2        2001            0.0000000000
      6004      2002  TIP3      OH2            -4.0297287858       14.0500642980       -9.7344786337  W2        2002            0.0000000000
      6005      2002  TIP3      H1             -3.6764187858       13.6700442980       -8.9301286337  W2        2002            0.0000000000
      6006      2002  TIP3      H2             -4.9783787858       13.9565442980       -9.6475486337  W2        2002            0.0000000000
      6007      2003  TIP3      OH2            -3.5741987858       17.6729642980        3.6611013663  W2        2003            0.0000000000
      6008      2003  TIP3      H1             -4.1758787858       17.1172542980        3.1657313663  W2        2003            0.0000000000
      6009      2003  TIP3      H2             -3.2928287858       18.3399442980        3.0348413663  W2        2003            0.0000000000
      6010      2004  TIP3      OH2             0.4737112142       18.5293142980       -9.5334586337  W2        2004            0.0000000000
      6011      2004  TIP3      H1              1.2175012142       19.1153642980       -9.6732986337  W2        2004            0.0000000000
      6012      2004  TIP3      H2             -0.2204787858       19.0978942980       -9.2002186337  W2        2004            0.0000000000
      6013      2005  TIP3      OH2           -15.4516087858        4.9057342980        3.0683613663  W2        2005            0.0000000000
      6014      2005  TIP3      H1            -16.3443787858        5.2442742980        3.0007613663  W2        2005            0.0000000000
      6015      2005  TIP3      H2            -15.5503287858        4.0503442980        3.4864413663  W2        2005            0.0000000000
      6016      2006  TIP3      OH2            -3.1637987858       12.7222642980       -7.5076886337  W2        2006            0.0000000000
      6017      2006  TIP3      H1             -3.4410387858       11.9941942980       -6.9515786337  W2        2006            0.0000000000
      6018      2006  TIP3      H2             -2.2364987858       12.8414642980       -7.3024286337  W2        2006            0.0000000000
      6019      2007  TIP3      OH2           -15.8004087858       16.7101742980        1.5033013663  W2        2007            0.0000000000
      6020      2007  TIP3      H1            -15.5833787858       15.7784142980        1.4722713663  W2        2007            0.0000000000
      6021      2007  TIP3      H2            -15.5540587858       16.9846742980        2.3865813663  W2        2007            0.0000000000
      6022      2008  TIP3      OH2            -9.9389487858       15.1616742980      -11.2874786337  W2        2008            0.0000000000
      6023      2008  TIP3      H1             -9.6999687858       14.4134842980      -11.8345886337  W2        2008            0.0000000000
      6024      2008  TIP3      H2            -10.2078187858       14.7738442980      -10.4546986337  W2        2008            0.0000000000
      6025      2009  TIP3      OH2           -11.0018887858       14.7320542980       -8.8312186337  W2        2009            0.0000000000
      6026      2009  TIP3      H1            -10.8550887858       14.2120342980       -8.0411286337  W2        2009            0.0000000000
      6027      2009  TIP3      H2            -11.0047187858       15.6388142980       -8.5246286337  W2        2009            0.0000000000
      6028      2010  TIP3      OH2           -14.5487787858       11.9843842980       -8.3206786337  W2        2010            0.0000000000
      6029      2010  TIP3      H1            -15.2348487858       12.3366342980       -7.7537086337  W2        2010            0.0000000000
      6030      2010  TIP3      H2            -14.0259887858       12.7473442980       -8.5672486337  W2        2010            0.0000000000
      6031      2011  TIP3      OH2            -6.7172687858        4.6467642980        1.9582213663  W2        2011            0.0000000000
      6032      2011  TIP3      H1             -6.0184787858        4.7206342980        2.6081913663  W2        2011            0.0000000000
      6033      2011  TIP3      H2             -7.0981287858        3.7822642980        2.1125113663  W2        2011            0.0000000000
      6034      2012  TIP3      OH2            -5.9327787858        4.2989342980       -6.9445486337  W2        2012            0.0000000000
      6035      2012  TIP3      H1             -5.7129487858        4.7704742980       -7.7480086337  W2        2012            0.0000000000
      6036      2012  TIP3      H2             -5.3743787858        4.6931942980       -6.2744886337  W2        2012            0.0000000000
      6037      2013  TIP3      OH2            -8.2641687858       16.4294142980       -8.0817986337  W2        2013            0.0000000000
      6038      2013  TIP3      H1             -9.0805587858       16.9263842980       -8.0293686337  W2        2013            0.0000000000
      6039      2013  TIP3      H2             -7.7345387858       16.9047642980       -8.7219186337  W2        2013            0.0000000000
      6040      2014  TIP3      OH2            -8.7327887858        6.0268142980       -6.1097086337  W2        2014            0.0000000000
      6041      2014  TIP3      H1             -7.9205287858        6.5311342980       -6.0635386337  W2        2014            0.0000000000
      6042      2014  TIP3      H2             -8.9774887858        5.8817842980       -5.1957486337  W2        2014            0.0000000000
      6043      2015  TIP3      OH2            -8.1971487858        7.0130842980        3.0749513663  W2        2015            0.0000000000
      6044      2015  TIP3      H1             -8.0781187858        7.5866242980        3.8319913663  W2        2015            0.0000000000
      6045      2015  TIP3      H2             -7.5416887858        6.3250242980        3.1897313663  W2        2015            0.0000000000
      6046      2016  TIP3      OH2            -7.8491187858        3.1081142980       -5.1715986337  W2        2016            0.0000000000
      6047      2016  TIP3      H1             -8.1957687858        3.7251742980       -4.5271686337  W2        2016            0.0000000000
      6048      2016  TIP3      H2             -7.1904287858        3.6086842980       -5.6530486337  W2        2016            0.0000000000
      6049      2017  TIP3      OH2           -10.9258587858       17.4731342980       -8.1001086337  W2        2017            0.0000000000
      6050      2017  TIP3      H1            -10.7649887858       18.2728842980       -8.6008486337  W2        2017            0.0000000000
      6051      2017  TIP3      H2            -11.1230787858       17.7797342980       -7.2150486337  W2        2017            0.0000000000
      6052      2018  TIP3      OH2           -12.1914187858        4.1710542980       -8.4843486337  W2        2018            0.0000000000
      6053      2018  TIP3      H1            -12.2749387858        5.0593642980       -8.1377086337  W2        2018            0.0000000000
      6054      2018  TIP3      H2            -11.3013887858        3.9057242980       -8.2526686337  W2        2018            0.0000000000
      6055      2019  TIP3      OH2            -1.9925687858        4.9201142980        3.9099213663  W2        2019            0.0000000000
      6056      2019  TIP3      H1             -2.9089887858        5.1822842980        3.8222913663  W2        2019            0.0000000000
      6057      2019  TIP3      H2             -1.6570687858        4.9170142980        3.0134513663  W2        2019            0.0000000000
      6058      2020  TIP3      OH2            -3.3904687858        8.6702142980       -1.9943486337  W2        2020            0.0000000000
      6059      2020  TIP3      H1             -4.1880287858        8.2552342980       -2.3228486337  W2        2020            0.0000000000
      6060      2020  TIP3      H2             -2.9453587858        7.9795842980       -1.5032986337  W2        2020            0.0000000000
      6061      2021  TIP3      OH2           -13.9328887858       14.5982742980       -9.4238986337  W2        2021            0.0000000000
      6062      2021  TIP3      H1            -13.3407387858       15.2977542980       -9.1476586337  W2        2021            0.0000000000
      6063      2021  TIP3      H2            -13.4735887858       14.1652242980      -10.1434386337  W2        2021            0.0000000000
      6064      2022  TIP3      OH2           -15.6169687858        7.2625742980      -10.3079586337  W2        2022            0.0000000000
      6065      2022  TIP3      H1            -15.6617087858        8.2018842980      -10.1292586337  W2        2022            0.0000000000
      6066      2022  TIP3      H2            -16.5046487858        7.0270642980      -10.5777486337  W2        2022            0.0000000000
      6067      2023  TIP3      OH2            -2.3040087858       17.9264642980       -0.3719986337  W2        2023            0.0000000000
      6068      2023  TIP3      H1             -2.4595787858       18.6049042980       -1.0290686337  W2        2023            0.0000000000
      6069      2023  TIP3      H2             -1.3713687858       17.9983942980       -0.1689386337  W2        2023            0.0000000000
      6070      2024  TIP3      OH2           -14.8087687858        2.0442342980       -1.6348586337  W2        2024            0.0000000000
      6071      2024  TIP3      H1            -15.0377887858        2.1034842980       -2.5623586337  W2        2024            0.0000000000
      6072      2024  TIP3      H2            -15.2514287858        1.2527842980       -1.3284486337  W2        2024            0.0000000000
      6073      2025  TIP3      OH2           -15.8784387858       15.9849442980       -5.4742786337  W2        2025            0.0000000000
      6074      2025  TIP3      H1            -16.7105787858       16.4572142980       -5.4471386337  W2        2025            0.0000000000
      6075      2025  TIP3      H2            -15.3326087858       16.4947042980       -6.0729686337  W2        2025            0.0000000000
      6076      2026  TIP3      OH2           -16.5900687858       18.5973142980        5.8555213663  W2        2026            0.0000000000
      6077      2026  TIP3      H1            -16.0498487858       18.3807142980        6.6154413663  W2        2026            0.0000000000
      6078      2026  TIP3      H2            -17.0712687858       17.7919142980        5.6657713663  W2        2026            0.0000000000
      6079      2027  TIP3      OH2           -11.9927287858       17.5167542980        7.4759413663  W2        2027            0.0000000000
      6080      2027  TIP3      H1            -11.2250087858       17.0578342980        7.8168613663  W2        2027            0.0000000000
      6081      2027  TIP3      H2            -12.0141087858       17.2907342980        6.5460613663  W2        2027            0.0000000000
      6082      2028  TIP3      OH2            -7.9007687858       17.0248142980      -11.1488786337  W2        2028            0.0000000000
      6083      2028  TIP3      H1             -8.5446687858       16.3936742980      -10.8275086337  W2        2028            0.0000000000
      6084      2028  TIP3      H2             -7.1389387858       16.4936142980      -11.3805286337  W2        2028            0.0000000000
      6085      2029  TIP3      OH2            -5.4158587858       15.8968642980        6.2050913663  W2        2029            0.0000000000
      6086      2029  TIP3      H1             -5.7669087858       15.0401642980        6.4481313663  W2        2029            0.0000000000
      6087      2029  TIP3      H2             -4.6895387858       16.0395342980        6.8119913663  W2        2029            0.0000000000
      6088      2030  TIP3      OH2            -3.2964787858       16.8418042980      -10.9150786337  W2        2030            0.0000000000
      6089      2030  TIP3      H1             -3.0134387858       16.0473242980      -10.4623886337  W2        2030            0.0000000000
      6090      2030  TIP3      H2             -2.5566887858       17.0749042980      -11.4759686337  W2        2030            0.0000000000
      6091      2031  TIP3      OH2           -16.6831187858       12.4077242980        6.8099513663  W2        2031            0.0000000000
      6092      2031  TIP3      H1            -16.5390687858       11.5057942980        6.5236213663  W2        2031            0.0000000000
      6093      2031  TIP3      H2            -17.4553787858       12.6939342980        6.3221813663  W2        2031            0.0000000000
      6094      2032  TIP3      OH2           -12.3417487858       12.7512942980      -11.0575886337  W2        2032            0.0000000000
      6095      2032  TIP3      H1            -12.2773387858       11.9572542980      -10.5269486337  W2        2032            0.0000000000
      6096      2032  TIP3      H2            -11.6888287858       12.6325742980      -11.7473886337  W2        2032            0.0000000000
      6097      2033  TIP3      OH2           -10.0275087858       12.3775342980        6.2425913663  W2        2033            0.0000000000
      6098      2033  TIP3      H1            -10.3561287858       12.6483442980        5.3853313663  W2        2033            0.0000000000
      6099      2033  TIP3      H2             -9.8756887858       11.4365142980        6.1550913663  W2        2033            0.0000000000
      6100      2034  TIP3      OH2            -6.9894087858       13.7984642980      -11.3217886337  W2        2034            0.0000000000
      6101      2034  TIP3      H1             -7.2579987858       13.9786742980      -10.4208986337  W2        2034            0.0000000000
      6102      2034  TIP3      H2             -7.1958487858       12.8730842980      -11.4532086337  W2        2034            0.0000000000
      6103      2035  TIP3      OH2            -4.2929887858       12.2932642980        3.6258213663  W2        2035            0.0000000000
      6104      2035  TIP3      H1             -3.5475087858       12.8816342980        3.5062213663  W2        2035            0.0000000000
      6105      2035  TIP3      H2             -5.0503087858       12.8752342980        3.6891313663  W2        2035            0.0000000000
      6106      2036  TIP3      OH2           -15.8504687858        9.6080542980        6.2298813663  W2        2036            0.0000000000
      6107      2036  TIP3      H1            -15.4423487858        8.7507142980        6.1089413663  W2        2036            0.0000000000
      6108      2036  TIP3      H2            -16.1107087858        9.6221842980        7.1509113663  W2        2036            0.0000000000
      6109      2037  TIP3      OH2           -11.1923687858       10.7239142980       -8.7517886337  W2        2037            0.0000000000
      6110      2037  TIP3      H1            -11.6521687858       10.2397442980       -8.0659386337  W2        2037            0.0000000000
      6111      2037  TIP3      H2            -10.9374987858       10.0554542980       -9.3877386337  W2        2037            0.0000000000
      6112      2038  TIP3      OH2           -11.9034387858        8.6166242980        3.6041713663  W2        2038            0.0000000000
      6113      2038  TIP3      H1            -12.5218287858        9.2912842980        3.8846413663  W2        2038            0.0000000000
      6114      2038  TIP3      H2            -11.5593187858        8.9380142980        2.7707913663  W2        2038            0.0000000000
      6115      2039  TIP3      OH2           -10.1213287858        8.9670942980      -10.4894686337  W2        2039            0.0000000000
      6116      2039  TIP3      H1            -10.3018287858        8.8122142980      -11.4166386337  W2        2039            0.0000000000
      6117      2039  TIP3      H2             -9.1712787858        9.0749642980      -10.4446786337  W2        2039            0.0000000000
      6118      2040  TIP3      OH2            -6.8836187858       11.0881542980        6.8816513663  W2        2040            0.0000000000
      6119      2040  TIP3      H1             -5.9304987858       11.1720642980        6.8542513663  W2        2040            0.0000000000
      6120      2040  TIP3      H2             -7.0441587858       10.3763342980        7.5011413663  W2        2040            0.0000000000
      6121      2041  TIP3      OH2            -0.7314987858       11.3215142980      -11.0436586337  W2        2041            0.0000000000
      6122      2041  TIP3      H1             -1.0050187858       10.8970642980      -11.8568286337  W2        2041            0.0000000000
      6123      2041  TIP3      H2             -0.6920887858       12.2529642980      -11.2606186337  W2        2041            0.0000000000
      6124      2042  TIP3      OH2           -11.5640687858        5.9717042980        4.6864813663  W2        2042            0.0000000000
      6125      2042  TIP3      H1            -11.4139787858        5.2428342980        4.0844513663  W2        2042            0.0000000000
      6126      2042  TIP3      H2            -11.5618287858        6.7488742980        4.1277013663  W2        2042            0.0000000000
      6127      2043  TIP3      OH2           -11.1514987858        4.3412842980        2.1792213663  W2        2043            0.0000000000
      6128      2043  TIP3      H1            -10.6157487858        4.7929542980        1.5271513663  W2        2043            0.0000000000
      6129      2043  TIP3      H2            -12.0035387858        4.2332642980        1.7566313663  W2        2043            0.0000000000
      6130      2044  TIP3      OH2            -9.5696587858        9.7809042980        2.4187413663  W2        2044            0.0000000000
      6131      2044  TIP3      H1             -8.8191787858        9.6246542980        1.8455213663  W2        2044            0.0000000000
      6132      2044  TIP3      H2             -9.9088287858       10.6325642980        2.1432913663  W2        2044            0.0000000000
      6133      2045  TIP3      OH2            -5.1540387858        7.5960842980        7.4472713663  W2        2045            0.0000000000
      6134      2045  TIP3      H1             -4.9619087858        6.6650242980        7.3357213663  W2        2045            0.0000000000
      6135      2045  TIP3      H2             -4.2964087858        8.0210342980        7.4368113663  W2        2045            0.0000000000
      6136      2046  TIP3      OH2            -3.8373187858       10.3846042980        5.5245413663  W2        2046            0.0000000000
      6137      2046  TIP3      H1             -4.1188187858       11.0940642980        4.9469213663  W2        2046            0.0000000000
      6138      2046  TIP3      H2             -2.8948887858       10.3119042980        5.3736613663  W2        2046            0.0000000000
      6139      2047  TIP3      OH2           -13.0854387858        7.1700542980        6.5980413663  W2        2047            0.0000000000
      6140      2047  TIP3      H1            -13.8525387858        6.6375342980        6.3878013663  W2        2047            0.0000000000
      6141      2047  TIP3      H2            -12.4065387858        6.8600942980        5.9986713663  W2        2047            0.0000000000
      6142      2048  TIP3      OH2           -10.3459487858        1.7978542980        2.6105813663  W2        2048            0.0000000000
      6143      2048  TIP3      H1            -10.4439887858        2.7441742980        2.5052013663  W2        2048            0.0000000000
      6144      2048  TIP3      H2            -11.0883287858        1.4252342980        2.1349313663  W2        2048            0.0000000000
      6145      2049  TIP3      OH2            -9.0818987858        6.1193942980        6.1744213663  W2        2049            0.0000000000
      6146      2049  TIP3      H1             -9.3173587858        5.9000642980        7.0759113663  W2        2049            0.0000000000
      6147      2049  TIP3      H2             -9.8652087858        5.9125142980        5.6646713663  W2        2049            0.0000000000
      6148      2050  TIP3      OH2            -6.3662387858        5.2467442980        5.2497713663  W2        2050            0.0000000000
      6149      2050  TIP3      H1             -7.3136987858        5.2787142980        5.3821013663  W2        2050            0.0000000000
      6150      2050  TIP3      H2             -6.0535687858        4.6214542980        5.9035913663  W2        2050            0.0000000000
      6151      2051  TIP3      OH2            -4.7320887858        3.8808542980        7.2549613663  W2        2051            0.0000000000
      6152      2051  TIP3      H1             -4.8289087858        2.9285842980        7.2491513663  W2        2051            0.0000000000
      6153      2051  TIP3      H2             -5.0537787858        4.1495342980        8.1155113663  W2        2051            0.0000000000
      6154      2052  TIP3      OH2           -14.9051587858        5.0904342980        6.3025113663  W2        2052            0.0000000000
      6155      2052  TIP3      H1            -14.6934187858        4.3840442980        5.6922613663  W2        2052            0.0000000000
      6156      2052  TIP3      H2            -15.0164087858        4.6530342980        7.1466313663  W2        2052            0.0000000000
      6157      2053  TIP3      OH2           -10.1241387858        1.0915942980        5.2818613663  W2        2053            0.0000000000
      6158      2053  TIP3      H1             -9.4122987858        0.4518142980        5.2677713663  W2        2053            0.0000000000
      6159      2053  TIP3      H2            -10.2250987858        1.3584242980        4.3681713663  W2        2053            0.0000000000
      6160      2054  TIP3      OH2            -9.7703887858        2.7744342980        7.3354913663  W2        2054            0.0000000000
      6161      2054  TIP3      H1             -9.9021687858        2.2988142980        6.5153413663  W2        2054            0.0000000000
      6162      2054  TIP3      H2            -10.3696487858        3.5187942980        7.2802013663  W2        2054            0.0000000000
      6163      2055  TIP3      OH2           -10.2241587858       19.6574642980       -9.4881086337  W2        2055            0.0000000000
      6164      2055  TIP3      H1             -9.2910887858       19.8153342980       -9.3442686337  W2        2055            0.0000000000
      6165      2055  TIP3      H2            -10.4882787858       20.3327642980      -10.1129586337  W2        2055            0.0000000000
      6166      2056  TIP3      OH2           -16.6556687858       14.2938442980      -10.0052986337  W2        2056            0.0000000000
      6167      2056  TIP3      H1            -15.7417487858       14.3727342980       -9.7319086337  W2        2056            0.0000000000
      6168      2056  TIP3      H2            -16.6483587858       13.6068042980      -10.6717386337  W2        2056            0.0000000000
      6169      2057  TIP3      OH2           -18.0066087858       19.6866942980       -4.9279086337  W2        2057            0.0000000000
      6170      2057  TIP3      H1            -18.6538987858       19.2248642980       -5.4607886337  W2        2057            0.0000000000
      6171      2057  TIP3      H2            -17.6521487858       19.0150242980       -4.3452886337  W2        2057            0.0000000000
      6172      2058  TIP3      OH2           -17.1366887858       17.7673942980       -3.1232886337  W2        2058            0.0000000000
      6173      2058  TIP3      H1            -17.4710087858       16.8871242980       -2.9512686337  W2        2058            0.0000000000
      6174      2058  TIP3      H2            -16.9144487858       18.1128942980       -2.2587286337  W2        2058            0.0000000000
      6175      2059  TIP3      OH2             0.4117912142       18.5770342980       -0.1428086337  W2        2059            0.0000000000
      6176      2059  TIP3      H1              0.3904612142       18.7618742980        0.7961313663  W2        2059            0.0000000000
      6177      2059  TIP3      H2              1.1024112142       19.1454342980       -0.4836686337  W2        2059            0.0000000000
      6178      2060  TIP3      OH2            -0.0249187858       18.1441442980        2.7791013663  W2        2060            0.0000000000
      6179      2060  TIP3      H1             -0.5120487858       17.4085542980        2.4078413663  W2        2060            0.0000000000
      6180      2060  TIP3      H2              0.5243512142       17.7505342980        3.4570413663  W2        2060            0.0000000000
      6181      2061  TIP3      OH2            -1.5741887858       13.9339542980        7.4171313663  W2        2061            0.0000000000
      6182      2061  TIP3      H1             -2.4400787858       13.8289242980        7.8113613663  W2        2061            0.0000000000
      6183      2061  TIP3      H2             -1.1975987858       14.6922842980        7.8636013663  W2        2061            0.0000000000
      6184      2062  TIP3      OH2            -0.2732187858       12.1903242980       -7.0686186337  W2        2062            0.0000000000
      6185      2062  TIP3      H1              0.5769212142       12.6114142980       -6.9414586337  W2        2062            0.0000000000
      6186      2062  TIP3      H2             -0.2677087858       11.4503342980       -6.4614786337  W2        2062            0.0000000000
      6187      2063  TIP3      OH2             0.1213412142       10.2440642980       -5.2450486337  W2        2063            0.0000000000
      6188      2063  TIP3      H1             -0.6051987858        9.7643242980       -4.8472886337  W2        2063            0.0000000000
      6189      2063  TIP3      H2              0.7026712142       10.4495342980       -4.5128886337  W2        2063            0.0000000000
      6190      2064  TIP3      OH2            -0.1195387858       13.0288142980       -0.2972886337  W2        2064            0.0000000000
      6191      2064  TIP3      H1              0.7138812142       12.6508142980       -0.5779286337  W2        2064            0.0000000000
      6192      2064  TIP3      H2             -0.0075087858       13.9719342980       -0.4163786337  W2        2064            0.0000000000
      6193      2065  TIP3      OH2            -1.6333087858       15.9065642980        2.0095513663  W2        2065            0.0000000000
      6194      2065  TIP3      H1             -2.2807787858       16.2317142980        2.6350713663  W2        2065            0.0000000000
      6195      2065  TIP3      H2             -2.1509087858       15.4663342980        1.3353813663  W2        2065            0.0000000000
      6196      2066  TIP3      OH2             0.3896512142       10.1449142980       -8.8539186337  W2        2066            0.0000000000
      6197      2066  TIP3      H1             -0.1322387858       10.5013242980       -9.5728286337  W2        2066            0.0000000000
      6198      2066  TIP3      H2              0.3565712142       10.8196942980       -8.1758286337  W2        2066            0.0000000000
      6199      2067  TIP3      OH2            -1.2614487858        7.3844742980      -10.3032086337  W2        2067            0.0000000000
      6200      2067  TIP3      H1             -1.1650087858        8.0511742980      -10.9832386337  W2        2067            0.0000000000
      6201      2067  TIP3      H2             -1.4014887858        6.5691042980      -10.7846586337  W2        2067            0.0000000000
      6202      2068  TIP3      OH2            -2.0919787858        8.7647142980       -4.6821786337  W2        2068            0.0000000000
      6203      2068  TIP3      H1             -2.2420987858        7.8195742980       -4.7023986337  W2        2068            0.0000000000
      6204      2068  TIP3      H2             -2.4455287858        9.0458542980       -3.8382686337  W2        2068            0.0000000000
      6205      2069  TIP3      OH2           -17.0567387858       10.8429342980       -0.6717986337  W2        2069            0.0000000000
      6206      2069  TIP3      H1            -16.8724487858       10.7611042980       -1.6075086337  W2        2069            0.0000000000
      6207      2069  TIP3      H2            -16.2074487858       10.7186342980       -0.2481586337  W2        2069            0.0000000000
      6208      2070  TIP3      OH2            -1.2356887858       10.7350442980        4.9566513663  W2        2070            0.0000000000
      6209      2070  TIP3      H1             -0.6529587858       10.0002742980        5.1483713663  W2        2070            0.0000000000
      6210      2070  TIP3      H2             -0.6717587858       11.5070742980        5.0032313663  W2        2070            0.0000000000
      6211      2071  TIP3      OH2             0.2610212142        8.6376242980        5.6411913663  W2        2071            0.0000000000
      6212      2071  TIP3      H1             -0.6023087858        8.2588342980        5.4756613663  W2        2071            0.0000000000
      6213      2071  TIP3      H2              0.8653912142        7.8991042980        5.5667713663  W2        2071            0.0000000000
      6214      2072  TIP3      OH2            -2.0140687858        4.7924542980      -11.1856586337  W2        2072            0.0000000000
      6215      2072  TIP3      H1             -1.4034887858        4.4211342980      -10.5488386337  W2        2072            0.0000000000
      6216      2072  TIP3      H2             -2.8509187858        4.3711442980      -10.9896586337  W2        2072            0.0000000000
      6217      2073  TIP3      OH2            -2.3814987858        6.3472942980       -6.2196686337  W2        2073            0.0000000000
      6218      2073  TIP3      H1             -2.1017887858        5.4403342980       -6.0954986337  W2        2073            0.0000000000
      6219      2073  TIP3      H2             -1.6223287858        6.7814442980       -6.6087486337  W2        2073            0.0000000000
      6220      2074  TIP3      OH2            -1.7696687858        6.9290342980       -0.7837786337  W2        2074            0.0000000000
      6221      2074  TIP3      H1             -0.8368687858        7.1410242980       -0.8181786337  W2        2074            0.0000000000
      6222      2074  TIP3      H2             -2.0049187858        7.0302442980        0.1385213663  W2        2074            0.0000000000
      6223      2075  TIP3      OH2            -1.7404787858        7.6655642980        1.9921613663  W2        2075            0.0000000000
      6224      2075  TIP3      H1             -2.5833487858        7.9336042980        2.3581413663  W2        2075            0.0000000000
      6225      2075  TIP3      H2             -1.2980487858        8.4877542980        1.7812713663  W2        2075            0.0000000000
      6226      2076  TIP3      OH2           -17.4592587858        6.1134342980        5.4690813663  W2        2076            0.0000000000
      6227      2076  TIP3      H1            -16.5397687858        5.9912642980        5.7053913663  W2        2076            0.0000000000
      6228      2076  TIP3      H2            -17.9088087858        5.3634042980        5.8584313663  W2        2076            0.0000000000
      6229      2077  TIP3      OH2             0.5426812142        1.6455842980        7.3456613663  W2        2077            0.0000000000
      6230      2077  TIP3      H1              0.8923812142        0.9919342980        6.7401313663  W2        2077            0.0000000000
      6231      2077  TIP3      H2              0.6896312142        2.4829942980        6.9059213663  W2        2077            0.0000000000
      6232      2078  TIP3      OH2            -1.7680187858        3.6102242980       -6.1714686337  W2        2078            0.0000000000
      6233      2078  TIP3      H1             -1.5855187858        3.1613742980       -5.3459686337  W2        2078            0.0000000000
      6234      2078  TIP3      H2             -2.3677287858        3.0256642980       -6.6350086337  W2        2078            0.0000000000
      6235      2079  TIP3      OH2           -16.2380087858        4.4255942980       -1.6396286337  W2        2079            0.0000000000
      6236      2079  TIP3      H1            -15.7928487858        3.6338442980       -1.3376586337  W2        2079            0.0000000000
      6237      2079  TIP3      H2            -15.7717087858        5.1421142980       -1.2090686337  W2        2079            0.0000000000
      6238      2080  TIP3      OH2           -17.9339787858        7.4248942980       -0.5706086337  W2        2080            0.0000000000
      6239      2080  TIP3      H1            -17.4419987858        7.2039442980       -1.3614086337  W2        2080            0.0000000000
      6240      2080  TIP3      H2            -17.5718887858        8.2652342980       -0.2896586337  W2        2080            0.0000000000
      6241      2081  TIP3      OH2             0.0624012142        3.7550442980        5.6947913663  W2        2081            0.0000000000
      6242      2081  TIP3      H1             -0.8550287858        4.0257542980        5.6591413663  W2        2081            0.0000000000
      6243      2081  TIP3      H2              0.1853412142        3.2198842980        4.9107613663  W2        2081            0.0000000000
      6244      2082  TIP3      OH2             0.0986012142        3.6780342980       -9.6434386337  W2        2082            0.0000000000
      6245      2082  TIP3      H1              0.5108612142        2.9566042980      -10.1186386337  W2        2082            0.0000000000
      6246      2082  TIP3      H2              0.7802512142        4.3474942980       -9.5850086337  W2        2082            0.0000000000
      6247      2083  TIP3      OH2           -17.6203287858        3.6828042980       -6.5163686337  W2        2083            0.0000000000
      6248      2083  TIP3      H1            -18.5454887858        3.8914642980       -6.6458186337  W2        2083            0.0000000000
      6249      2083  TIP3      H2            -17.1663387858        4.1668842980       -7.2061386337  W2        2083            0.0000000000
      6250      2084  TIP3      OH2            -2.8496087858       18.6669742980       -4.5706286337  W2        2084            0.0000000000
      6251      2084  TIP3      H1             -2.1973187858       18.3191842980       -5.1787186337  W2        2084            0.0000000000
      6252      2084  TIP3      H2             -2.3392287858       19.1552942980       -3.9246586337  W2        2084            0.0000000000
      6253      2085  TIP3      OH2           -17.6567887858        2.4207042980        1.8278813663  W2        2085            0.0000000000
      6254      2085  TIP3      H1            -18.3217387858        2.1747342980        2.4709713663  W2        2085            0.0000000000
      6255      2085  TIP3      H2            -18.0996587858        3.0427442980        1.2506813663  W2        2085            0.0000000000
      6256      2086  TIP3      OH2           -15.4648587858       15.5961142980        5.9724613663  W2        2086            0.0000000000
      6257      2086  TIP3      H1            -16.2856087858       15.7707642980        5.5119313663  W2        2086            0.0000000000
      6258      2086  TIP3      H2            -15.7170787858       15.5225842980        6.8929013663  W2        2086            0.0000000000
      6259      2087  TIP3      OH2           -12.5105687858       16.5702342980        2.2308613663  W2        2087            0.0000000000
      6260      2087  TIP3      H1            -12.9354587858       17.3800842980        1.9483213663  W2        2087            0.0000000000
      6261      2087  TIP3      H2            -11.6062887858       16.6556442980        1.9288413663  W2        2087            0.0000000000
      6262      2088  TIP3      OH2            -8.1994287858       17.9692342980        5.1902313663  W2        2088            0.0000000000
      6263      2088  TIP3      H1             -8.0146787858       17.6358442980        6.0682613663  W2        2088            0.0000000000
      6264      2088  TIP3      H2             -7.3529787858       18.2790942980        4.8681513663  W2        2088            0.0000000000
      6265      2089  TIP3      OH2            -5.8543887858       19.2551242980        4.4343713663  W2        2089            0.0000000000
      6266      2089  TIP3      H1             -5.1774987858       18.6223542980        4.1942913663  W2        2089            0.0000000000
      6267      2089  TIP3      H2             -5.5325087858       19.6561742980        5.2417013663  W2        2089            0.0000000000
      6268      2090  TIP3      OH2            -0.9370087858        1.8446742980        3.5138713663  W2        2090            0.0000000000
      6269      2090  TIP3      H1             -1.7496587858        2.1697042980        3.1263413663  W2        2090            0.0000000000
      6270      2090  TIP3      H2             -0.7041587858        1.0845242980        2.9807813663  W2        2090            0.0000000000
      6271      2091  TIP3      OH2           -15.1088987858       19.8266242980        2.2783913663  W2        2091            0.0000000000
      6272      2091  TIP3      H1            -15.8292587858       20.2667242980        1.8271613663  W2        2091            0.0000000000
      6273      2091  TIP3      H2            -15.4744987858       19.5760942980        3.1267913663  W2        2091            0.0000000000
      6274      2092  TIP3      OH2           -12.6416387858       19.4270142980        1.3081113663  W2        2092            0.0000000000
      6275      2092  TIP3      H1            -13.5064187858       19.4988642980        1.7121213663  W2        2092            0.0000000000
      6276      2092  TIP3      H2            -12.6967387858       19.9737442980        0.5243613663  W2        2092            0.0000000000
      6277      2093  TIP3      OH2            -7.9310787858       19.3149042980        0.4837113663  W2        2093            0.0000000000
      6278      2093  TIP3      H1             -8.3876787858       19.8438742980       -0.1704486337  W2        2093            0.0000000000
      6279      2093  TIP3      H2             -7.7682787858       19.9180442980        1.2089413663  W2        2093            0.0000000000
      6280      2094  TIP3      OH2            -5.6034487858       18.1928642980        1.4287413663  W2        2094            0.0000000000
      6281      2094  TIP3      H1             -6.5080787858       18.3578842980        1.1629513663  W2        2094            0.0000000000
      6282      2094  TIP3      H2             -5.1745887858       19.0460842980        1.3630813663  W2        2094            0.0000000000
      6283      2095  TIP3      OH2            -2.9992587858       19.7627742980        1.7235213663  W2        2095            0.0000000000
      6284      2095  TIP3      H1             -3.1810587858       20.6786642980        1.5130113663  W2        2095            0.0000000000
      6285      2095  TIP3      H2             -2.8224787858       19.3524842980        0.8769813663  W2        2095            0.0000000000
      6286      2096  TIP3      OH2           -15.6940887858       18.4498742980       -0.8114286337  W2        2096            0.0000000000
      6287      2096  TIP3      H1            -15.7124887858       18.0243842980        0.0458013663  W2        2096            0.0000000000
      6288      2096  TIP3      H2            -14.8892987858       18.1313742980       -1.2202086337  W2        2096            0.0000000000
      6289      2097  TIP3      OH2           -13.5527787858       17.1597442980       -2.1564386337  W2        2097            0.0000000000
      6290      2097  TIP3      H1            -13.7717087858       16.2434842980       -1.9868386337  W2        2097            0.0000000000
      6291      2097  TIP3      H2            -12.7285587858       17.2997842980       -1.6902986337  W2        2097            0.0000000000
      6292      2098  TIP3      OH2           -11.0155287858       17.6296742980       -1.3076386337  W2        2098            0.0000000000
      6293      2098  TIP3      H1            -10.8029587858       16.7415742980       -1.5945486337  W2        2098            0.0000000000
      6294      2098  TIP3      H2            -10.9510187858       17.5954442980       -0.3532386337  W2        2098            0.0000000000
      6295      2099  TIP3      OH2            -7.5071587858        3.2937342980       -2.1633086337  W2        2099            0.0000000000
      6296      2099  TIP3      H1             -8.1814787858        2.6642942980       -1.9077286337  W2        2099            0.0000000000
      6297      2099  TIP3      H2             -6.9432387858        2.8096242980       -2.7665186337  W2        2099            0.0000000000
      6298      2100  TIP3      OH2            -2.3644387858        1.4011342980       -2.0505986337  W2        2100            0.0000000000
      6299      2100  TIP3      H1             -1.7606787858        1.9486742980       -2.5524986337  W2        2100            0.0000000000
      6300      2100  TIP3      H2             -3.2342387858        1.7201742980       -2.2911886337  W2        2100            0.0000000000
      6301      2101  TIP3      OH2            -0.6373987858        2.5400042980       -3.7175086337  W2        2101            0.0000000000
      6302      2101  TIP3      H1             -0.0256487858        2.0255742980       -4.2441486337  W2        2101            0.0000000000
      6303      2101  TIP3      H2             -0.2550587858        3.4172142980       -3.6940686337  W2        2101            0.0000000000
      6304      2102  TIP3      OH2           -15.1804087858        1.9277642980       -4.3413186337  W2        2102            0.0000000000
      6305      2102  TIP3      H1            -15.9574287858        1.6932542980       -4.8487286337  W2        2102            0.0000000000
      6306      2102  TIP3      H2            -14.6500487858        1.1309742980       -4.3325186337  W2        2102            0.0000000000
      6307      2103  TIP3      OH2           -16.3440687858        1.7255742980       -8.5377086337  W2        2103            0.0000000000
      6308      2103  TIP3      H1            -15.9049987858        2.3366242980       -9.1293586337  W2        2103            0.0000000000
      6309      2103  TIP3      H2            -16.9778287858        2.2639842980       -8.0637086337  W2        2103            0.0000000000
      6310      2104  TIP3      OH2           -10.6011487858        1.8544742980       -4.5280086337  W2        2104            0.0000000000
      6311      2104  TIP3      H1             -9.7268087858        2.2429042980       -4.5575786337  W2        2104            0.0000000000
      6312      2104  TIP3      H2            -10.7370687858        1.6392542980       -3.6052886337  W2        2104            0.0000000000
      6313      2105  TIP3      OH2            -5.0443087858        1.8844542980       -2.8788386337  W2        2105            0.0000000000
      6314      2105  TIP3      H1             -4.9681487858        1.9796142980       -3.8282386337  W2        2105            0.0000000000
      6315      2105  TIP3      H2             -5.3193887858        0.9767442980       -2.7499286337  W2        2105            0.0000000000
      6316      2106  TIP3      OH2            -3.6910487858        1.9102342980       -7.1863386337  W2        2106            0.0000000000
      6317      2106  TIP3      H1             -4.3939387858        2.5251542980       -7.3961986337  W2        2106            0.0000000000
      6318      2106  TIP3      H2             -4.1359087858        1.0729042980       -7.0552486337  W2        2106            0.0000000000
      6319      2107  TIP3      OH2           -16.4431187858       17.6737942980       -7.6401986337  W2        2107            0.0000000000
      6320      2107  TIP3      H1            -17.1281287858       17.6356842980       -8.3076886337  W2        2107            0.0000000000
      6321      2107  TIP3      H2            -16.4393987858       18.5865542980       -7.3519886337  W2        2107            0.0000000000
      6322      2108  TIP3      OH2           -14.4831587858        3.6417242980      -10.0952986337  W2        2108            0.0000000000
      6323      2108  TIP3      H1            -13.9918187858        3.0119642980      -10.6227486337  W2        2108            0.0000000000
      6324      2108  TIP3      H2            -13.8595287858        3.9376642980       -9.4321786337  W2        2108            0.0000000000
      6325      2109  TIP3      OH2            -9.4571487858        3.9348742980       -7.6382486337  W2        2109            0.0000000000
      6326      2109  TIP3      H1             -9.2790187858        3.2881942980       -6.9553886337  W2        2109            0.0000000000
      6327      2109  TIP3      H2             -9.5105287858        4.7686442980       -7.1711386337  W2        2109            0.0000000000
      6328      2110  TIP3      OH2            -7.5787687858       18.8832842980       -9.2425786337  W2        2110            0.0000000000
      6329      2110  TIP3      H1             -6.7127487858       19.2500242980       -9.4207586337  W2        2110            0.0000000000
      6330      2110  TIP3      H2             -7.8254887858       18.4440842980      -10.0564986337  W2        2110            0.0000000000
      6331      2111  TIP3      OH2            -0.8698087858       18.4463142980       -6.5634686337  W2        2111            0.0000000000
      6332      2111  TIP3      H1             -1.0640987858       17.6985242980       -7.1285086337  W2        2111            0.0000000000
      6333      2111  TIP3      H2             -0.9087987858       19.2043242980       -7.1466786337  W2        2111            0.0000000000
      6334      2112  TIP3      OH2           -15.2226087858        2.4419542980        5.1763013663  W2        2112            0.0000000000
      6335      2112  TIP3      H1            -15.5887887858        1.6762142980        5.6187713663  W2        2112            0.0000000000
      6336      2112  TIP3      H2            -14.3097587858        2.4709742980        5.4628113663  W2        2112            0.0000000000
      6337      2113  TIP3      OH2           -13.2495287858        1.7923942980        6.7120113663  W2        2113            0.0000000000
      6338      2113  TIP3      H1            -12.3511687858        1.5184142980        6.5273513663  W2        2113            0.0000000000
      6339      2113  TIP3      H2            -13.6362187858        1.0499942980        7.1762713663  W2        2113            0.0000000000
      6340      2114  TIP3      OH2           -14.6249987858       18.5938742980      -10.6149886337  W2        2114            0.0000000000
      6341      2114  TIP3      H1            -14.8925387858       18.8801642980       -9.7416786337  W2        2114            0.0000000000
      6342      2114  TIP3      H2            -13.8537387858       18.0477942980      -10.4627386337  W2        2114            0.0000000000
      6343      2115  TIP3      OH2            -4.8282987858        1.1249242980        6.8942913663  W2        2115            0.0000000000
      6344      2115  TIP3      H1             -4.7515787858        0.6989942980        7.7480613663  W2        2115            0.0000000000
      6345      2115  TIP3      H2             -3.9346387858        1.1383942980        6.5516413663  W2        2115            0.0000000000
      6346      2116  TIP3      OH2            -1.6521887858       17.1975542980        5.5867113663  W2        2116            0.0000000000
      6347      2116  TIP3      H1             -2.4339987858       17.0113542980        5.0667713663  W2        2116            0.0000000000
      6348      2116  TIP3      H2             -1.7241987858       18.1269842980        5.8039613663  W2        2116            0.0000000000
      6349      2117  TIP3      OH2            12.7538512142       11.0839942980       -4.3825686337  W2        2117            0.0000000000
      6350      2117  TIP3      H1             12.8429612142       12.0278142980       -4.5148586337  W2        2117            0.0000000000
      6351      2117  TIP3      H2             12.1156112142       10.8086342980       -5.0406286337  W2        2117            0.0000000000
      6352      2118  TIP3      OH2            11.6869812142       10.3390642980       -0.9637486337  W2        2118            0.0000000000
      6353      2118  TIP3      H1             11.6487312142        9.6926942980       -0.2587886337  W2        2118            0.0000000000
      6354      2118  TIP3      H2             11.3646312142        9.8725042980       -1.7348786337  W2        2118            0.0000000000
      6355      2119  TIP3      OH2             4.0554812142        9.9532742980        0.6292413663  W2        2119            0.0000000000
      6356      2119  TIP3      H1              4.0966912142        9.3276042980        1.3524813663  W2        2119            0.0000000000
      6357      2119  TIP3      H2              4.7582512142       10.5771342980        0.8112813663  W2        2119            0.0000000000
      6358      2120  TIP3      OH2            15.3930012142       13.2781042980       -2.6622386337  W2        2120            0.0000000000
      6359      2120  TIP3      H1             14.9522712142       12.5577042980       -2.2116786337  W2        2120            0.0000000000
      6360      2120  TIP3      H2             15.3799712142       13.9988242980       -2.0324686337  W2        2120            0.0000000000
      6361      2121  TIP3      OH2             4.9787912142       14.4031642980       -0.8358486337  W2        2121            0.0000000000
      6362      2121  TIP3      H1              4.6093112142       13.6012142980       -1.2054186337  W2        2121            0.0000000000
      6363      2121  TIP3      H2              5.9199012142       14.2346542980       -0.7895086337  W2        2121            0.0000000000
      6364      2122  TIP3      OH2             1.5888412142        8.0634242980       -5.4429686337  W2        2122            0.0000000000
      6365      2122  TIP3      H1              1.1411812142        8.9092942980       -5.4613186337  W2        2122            0.0000000000
      6366      2122  TIP3      H2              1.0279612142        7.4838442980       -5.9584586337  W2        2122            0.0000000000
      6367      2123  TIP3      OH2             2.2994512142       10.2253842980       -3.3171686337  W2        2123            0.0000000000
      6368      2123  TIP3      H1              2.5128012142        9.4555442980       -2.7898686337  W2        2123            0.0000000000
      6369      2123  TIP3      H2              3.0372112142       10.3150542980       -3.9204086337  W2        2123            0.0000000000
      6370      2124  TIP3      OH2            12.5045512142       18.3822742980       -2.4501986337  W2        2124            0.0000000000
      6371      2124  TIP3      H1             13.1241912142       17.7057442980       -2.7232786337  W2        2124            0.0000000000
      6372      2124  TIP3      H2             12.2962912142       18.1643542980       -1.5417086337  W2        2124            0.0000000000
      6373      2125  TIP3      OH2            10.0764212142       12.7712042980       -0.5576486337  W2        2125            0.0000000000
      6374      2125  TIP3      H1             10.3802112142       12.0853442980       -1.1522386337  W2        2125            0.0000000000
      6375      2125  TIP3      H2             10.7978212142       12.8900742980        0.0601513663  W2        2125            0.0000000000
      6376      2126  TIP3      OH2            18.7394012142        4.3727342980        0.3029713663  W2        2126            0.0000000000
      6377      2126  TIP3      H1             18.7886212142        4.9828542980        1.0388813663  W2        2126            0.0000000000
      6378      2126  TIP3      H2             19.1649112142        4.8338242980       -0.4199186337  W2        2126            0.0000000000
      6379      2127  TIP3      OH2            13.2171212142        7.1654442980       -0.2301686337  W2        2127            0.0000000000
      6380      2127  TIP3      H1             13.3597112142        6.2191442980       -0.2100086337  W2        2127            0.0000000000
      6381      2127  TIP3      H2             13.1110212142        7.3724242980       -1.1586786337  W2        2127            0.0000000000
      6382      2128  TIP3      OH2             6.3719512142        5.2670842980       -2.9576886337  W2        2128            0.0000000000
      6383      2128  TIP3      H1              6.4150612142        6.1269342980       -3.3760586337  W2        2128            0.0000000000
      6384      2128  TIP3      H2              5.9143612142        4.7145542980       -3.5913686337  W2        2128            0.0000000000
      6385      2129  TIP3      OH2            14.0942212142        5.3976442980       -4.5568586337  W2        2129            0.0000000000
      6386      2129  TIP3      H1             14.7406512142        5.0689642980       -3.9320986337  W2        2129            0.0000000000
      6387      2129  TIP3      H2             14.6041612142        5.9155442980       -5.1797186337  W2        2129            0.0000000000
      6388      2130  TIP3      OH2             2.9921012142        7.6636642980       -2.1955486337  W2        2130            0.0000000000
      6389      2130  TIP3      H1              3.6457612142        7.1138342980       -1.7635386337  W2        2130            0.0000000000
      6390      2130  TIP3      H2              3.0160312142        7.3895642980       -3.1123486337  W2        2130            0.0000000000
      6391      2131  TIP3      OH2             8.1485512142        9.2137942980       -2.9803986337  W2        2131            0.0000000000
      6392      2131  TIP3      H1              8.7646512142        8.6873342980       -2.4709986337  W2        2131            0.0000000000
      6393      2131  TIP3      H2              7.5624312142        8.5736642980       -3.3840386337  W2        2131            0.0000000000
      6394      2132  TIP3      OH2            19.1308612142        5.8506542980        2.5389513663  W2        2132            0.0000000000
      6395      2132  TIP3      H1             18.4423212142        6.5087242980        2.4436113663  W2        2132            0.0000000000
      6396      2132  TIP3      H2             19.1463212142        5.6534442980        3.4754913663  W2        2132            0.0000000000
      6397      2133  TIP3      OH2             5.1821412142        4.1849242980        1.1163913663  W2        2133            0.0000000000
      6398      2133  TIP3      H1              4.9633112142        4.7149842980        0.3499913663  W2        2133            0.0000000000
      6399      2133  TIP3      H2              4.5142312142        4.4114742980        1.7635313663  W2        2133            0.0000000000
      6400      2134  TIP3      OH2            12.5511212142       13.6850342980       -5.3396986337  W2        2134            0.0000000000
      6401      2134  TIP3      H1             12.2556312142       13.3622642980       -6.1910086337  W2        2134            0.0000000000
      6402      2134  TIP3      H2             12.2269012142       14.5847042980       -5.2984386337  W2        2134            0.0000000000
      6403      2135  TIP3      OH2             7.7512812142       11.8604942980        1.4037613663  W2        2135            0.0000000000
      6404      2135  TIP3      H1              7.0111912142       12.4586442980        1.5072813663  W2        2135            0.0000000000
      6405      2135  TIP3      H2              8.4652312142       12.4144542980        1.0881213663  W2        2135            0.0000000000
      6406      2136  TIP3      OH2            15.8580612142        4.6885742980       -2.5762686337  W2        2136            0.0000000000
      6407      2136  TIP3      H1             15.6428612142        3.9229142980       -2.0436686337  W2        2136            0.0000000000
      6408      2136  TIP3      H2             16.5138012142        5.1610342980       -2.0634186337  W2        2136            0.0000000000
      6409      2137  TIP3      OH2             4.7758712142        6.0771042980       -0.9313886337  W2        2137            0.0000000000
      6410      2137  TIP3      H1              5.3895012142        6.7098642980       -0.5581486337  W2        2137            0.0000000000
      6411      2137  TIP3      H2              5.2879412142        5.6046042980       -1.5876986337  W2        2137            0.0000000000
      6412      2138  TIP3      OH2             6.1587112142       13.8247942980        2.1909113663  W2        2138            0.0000000000
      6413      2138  TIP3      H1              6.1534712142       14.7041442980        1.8128413663  W2        2138            0.0000000000
      6414      2138  TIP3      H2              5.3051212142       13.7412042980        2.6159013663  W2        2138            0.0000000000
      6415      2139  TIP3      OH2             2.2798012142       13.4955842980       -7.0271586337  W2        2139            0.0000000000
      6416      2139  TIP3      H1              2.0078912142       13.7246842980       -7.9158686337  W2        2139            0.0000000000
      6417      2139  TIP3      H2              2.3253712142       14.3334642980       -6.5666286337  W2        2139            0.0000000000
      6418      2140  TIP3      OH2            15.9047712142       15.1171742980       -0.3143086337  W2        2140            0.0000000000
      6419      2140  TIP3      H1             14.9631412142       15.1755642980       -0.1526186337  W2        2140            0.0000000000
      6420      2140  TIP3      H2             16.1813812142       16.0232242980       -0.4513386337  W2        2140            0.0000000000
      6421      2141  TIP3      OH2            16.2054712142        3.4037042980        1.1030813663  W2        2141            0.0000000000
      6422      2141  TIP3      H1             15.4693912142        4.0144142980        1.0652113663  W2        2141            0.0000000000
      6423      2141  TIP3      H2             16.8888712142        3.8186042980        0.5767213663  W2        2141            0.0000000000
      6424      2142  TIP3      OH2             9.2086112142        1.4904342980       -1.4311186337  W2        2142            0.0000000000
      6425      2142  TIP3      H1              9.0910312142        0.5420342980       -1.4852886337  W2        2142            0.0000000000
      6426      2142  TIP3      H2              8.3536212142        1.8230442980       -1.1580086337  W2        2142            0.0000000000
      6427      2143  TIP3      OH2            14.1568912142       16.8985242980       -3.6891486337  W2        2143            0.0000000000
      6428      2143  TIP3      H1             14.5821212142       16.1913142980       -4.1741886337  W2        2143            0.0000000000
      6429      2143  TIP3      H2             14.4738912142       17.6997942980       -4.1059286337  W2        2143            0.0000000000
      6430      2144  TIP3      OH2            15.3165412142       14.7993742980       -5.1804886337  W2        2144            0.0000000000
      6431      2144  TIP3      H1             15.0590212142       14.1093842980       -5.7918986337  W2        2144            0.0000000000
      6432      2144  TIP3      H2             15.3876212142       14.3564942980       -4.3348986337  W2        2144            0.0000000000
      6433      2145  TIP3      OH2            17.0025612142       13.3660442980        3.2968613663  W2        2145            0.0000000000
      6434      2145  TIP3      H1             17.1421912142       12.7742942980        2.5575613663  W2        2145            0.0000000000
      6435      2145  TIP3      H2             17.1698412142       14.2386342980        2.9407413663  W2        2145            0.0000000000
      6436      2146  TIP3      OH2            11.4751012142       10.3279942980       -6.9305386337  W2        2146            0.0000000000
      6437      2146  TIP3      H1             10.7636512142       10.8629642980       -7.2824886337  W2        2146            0.0000000000
      6438      2146  TIP3      H2             12.1660612142       10.3832042980       -7.5906486337  W2        2146            0.0000000000
      6439      2147  TIP3      OH2            11.5290212142        8.7854242980       -9.8920386337  W2        2147            0.0000000000
      6440      2147  TIP3      H1             12.2300112142        8.8081142980       -9.2406386337  W2        2147            0.0000000000
      6441      2147  TIP3      H2             11.8313112142        8.1573942980      -10.5481086337  W2        2147            0.0000000000
      6442      2148  TIP3      OH2            18.8444912142        9.7058442980        1.3629013663  W2        2148            0.0000000000
      6443      2148  TIP3      H1             18.1919012142       10.4004042980        1.4519913663  W2        2148            0.0000000000
      6444      2148  TIP3      H2             19.3095212142        9.9159342980        0.5530613663  W2        2148            0.0000000000
      6445      2149  TIP3      OH2            14.8808712142       10.5373242980       -5.9789486337  W2        2149            0.0000000000
      6446      2149  TIP3      H1             14.1489712142       10.7656942980       -5.4058886337  W2        2149            0.0000000000
      6447      2149  TIP3      H2             15.3280912142        9.8235942980       -5.5241986337  W2        2149            0.0000000000
      6448      2150  TIP3      OH2            14.7782212142        8.7115842980        3.0887513663  W2        2150            0.0000000000
      6449      2150  TIP3      H1             14.8581312142        9.4750242980        3.6606013663  W2        2150            0.0000000000
      6450      2150  TIP3      H2             14.1769912142        8.9908242980        2.3982613663  W2        2150            0.0000000000
      6451      2151  TIP3      OH2             6.5262412142       11.1679442980       -4.0964486337  W2        2151            0.0000000000
      6452      2151  TIP3      H1              6.1957612142       10.7972842980       -4.9147486337  W2        2151            0.0000000000
      6453      2151  TIP3      H2              7.1146512142       10.4973442980       -3.7496186337  W2        2151            0.0000000000
      6454      2152  TIP3      OH2             7.8929912142       14.5960042980       -1.4152286337  W2        2152            0.0000000000
      6455      2152  TIP3      H1              7.7981212142       14.0173142980       -2.1717686337  W2        2152            0.0000000000
      6456      2152  TIP3      H2              8.6223512142       14.2245742980       -0.9189486337  W2        2152            0.0000000000
      6457      2153  TIP3      OH2             6.8927912142        9.9365042980       -0.4629486337  W2        2153            0.0000000000
      6458      2153  TIP3      H1              7.4580412142       10.0579242980       -1.2258286337  W2        2153            0.0000000000
      6459      2153  TIP3      H2              7.2116812142       10.5740042980        0.1759013663  W2        2153            0.0000000000
      6460      2154  TIP3      OH2            13.2020112142       15.4396942980        0.2711013663  W2        2154            0.0000000000
      6461      2154  TIP3      H1             12.9616712142       16.1020042980        0.9190213663  W2        2154            0.0000000000
      6462      2154  TIP3      H2             13.0038312142       14.6052142980        0.6960613663  W2        2154            0.0000000000
      6463      2155  TIP3      OH2             7.7728612142       14.3357742980        4.2542413663  W2        2155            0.0000000000
      6464      2155  TIP3      H1              7.4616112142       15.1180942980        4.7095613663  W2        2155            0.0000000000
      6465      2155  TIP3      H2              7.1228812142       14.1826842980        3.5684413663  W2        2155            0.0000000000
      6466      2156  TIP3      OH2            13.7518212142        9.6996142980       -8.2938286337  W2        2156            0.0000000000
      6467      2156  TIP3      H1             14.3313712142        9.8496442980       -7.5469386337  W2        2156            0.0000000000
      6468      2156  TIP3      H2             14.1658212142       10.1703542980       -9.0171886337  W2        2156            0.0000000000
      6469      2157  TIP3      OH2             4.6928512142       10.5338842980        3.4828113663  W2        2157            0.0000000000
      6470      2157  TIP3      H1              4.7631712142       11.1845642980        4.1813113663  W2        2157            0.0000000000
      6471      2157  TIP3      H2              3.8020712142       10.6366342980        3.1479013663  W2        2157            0.0000000000
      6472      2158  TIP3      OH2            11.4783112142       16.4364642980       -4.8585186337  W2        2158            0.0000000000
      6473      2158  TIP3      H1             11.9520712142       16.7320942980       -4.0810986337  W2        2158            0.0000000000
      6474      2158  TIP3      H2             10.9152412142       17.1746242980       -5.0915586337  W2        2158            0.0000000000
      6475      2159  TIP3      OH2             6.0124512142       16.4072742980        5.0176213663  W2        2159            0.0000000000
      6476      2159  TIP3      H1              6.0199812142       16.2712442980        4.0701713663  W2        2159            0.0000000000
      6477      2159  TIP3      H2              5.0964912142       16.2900842980        5.2696213663  W2        2159            0.0000000000
      6478      2160  TIP3      OH2            17.4506612142        1.4496542980       -8.4808586337  W2        2160            0.0000000000
      6479      2160  TIP3      H1             16.5507312142        1.5885542980       -8.1857986337  W2        2160            0.0000000000
      6480      2160  TIP3      H2             17.7025012142        2.2811142980       -8.8826886337  W2        2160            0.0000000000
      6481      2161  TIP3      OH2             5.5165112142       10.2373742980       -6.5071686337  W2        2161            0.0000000000
      6482      2161  TIP3      H1              5.2246412142       11.0055442980       -6.9980386337  W2        2161            0.0000000000
      6483      2161  TIP3      H2              4.8420312142        9.5779942980       -6.6700286337  W2        2161            0.0000000000
      6484      2162  TIP3      OH2            18.6398012142       15.8158942980      -10.1044686337  W2        2162            0.0000000000
      6485      2162  TIP3      H1             18.7131512142       16.7549142980       -9.9339386337  W2        2162            0.0000000000
      6486      2162  TIP3      H2             19.5453112142       15.5107542980      -10.1607386337  W2        2162            0.0000000000
      6487      2163  TIP3      OH2             1.6095212142       12.6002942980        2.3078113663  W2        2163            0.0000000000
      6488      2163  TIP3      H1              1.1083612142       12.5722342980        1.4927813663  W2        2163            0.0000000000
      6489      2163  TIP3      H2              1.6148912142       11.6946142980        2.6175413663  W2        2163            0.0000000000
      6490      2164  TIP3      OH2             1.3597912142       15.3806742980       -0.8081686337  W2        2164            0.0000000000
      6491      2164  TIP3      H1              2.3058512142       15.2363742980       -0.8272186337  W2        2164            0.0000000000
      6492      2164  TIP3      H2              1.2474212142       16.1649542980       -0.2710486337  W2        2164            0.0000000000
      6493      2165  TIP3      OH2            19.5576412142       16.0466442980        4.8742013663  W2        2165            0.0000000000
      6494      2165  TIP3      H1             19.5083212142       15.0914542980        4.8369613663  W2        2165            0.0000000000
      6495      2165  TIP3      H2             18.7308712142       16.3141742980        5.2755813663  W2        2165            0.0000000000
      6496      2166  TIP3      OH2            10.5360412142       15.6205642980        3.7503413663  W2        2166            0.0000000000
      6497      2166  TIP3      H1             10.6235012142       16.4470242980        4.2252513663  W2        2166            0.0000000000
      6498      2166  TIP3      H2              9.6725512142       15.2909442980        3.9992713663  W2        2166            0.0000000000
      6499      2167  TIP3      OH2            10.9506212142       19.3929342980       -6.4435986337  W2        2167            0.0000000000
      6500      2167  TIP3      H1             10.8752212142       19.2716542980       -7.3900786337  W2        2167            0.0000000000
      6501      2167  TIP3      H2             10.9834912142       20.3422042980       -6.3251386337  W2        2167            0.0000000000
      6502      2168  TIP3      OH2             4.6040012142       18.1816342980       -4.6626986337  W2        2168            0.0000000000
      6503      2168  TIP3      H1              4.7560412142       17.8336742980       -3.7840486337  W2        2168            0.0000000000
      6504      2168  TIP3      H2              3.7530412142       17.8253642980       -4.9179786337  W2        2168            0.0000000000
      6505      2169  TIP3      OH2            14.0522212142       18.5469542980       -9.4413586337  W2        2169            0.0000000000
      6506      2169  TIP3      H1             14.4270612142       17.8025642980       -9.9120986337  W2        2169            0.0000000000
      6507      2169  TIP3      H2             14.0565912142       18.2770142980       -8.5230286337  W2        2169            0.0000000000
      6508      2170  TIP3      OH2            13.7210312142       18.4726642980       -6.6921386337  W2        2170            0.0000000000
      6509      2170  TIP3      H1             12.7860112142       18.5728542980       -6.5134386337  W2        2170            0.0000000000
      6510      2170  TIP3      H2             14.0012212142       17.7632642980       -6.1138186337  W2        2170            0.0000000000
      6511      2171  TIP3      OH2            16.7096212142        7.5398942980        5.3544213663  W2        2171            0.0000000000
      6512      2171  TIP3      H1             16.3023012142        8.0204542980        4.6337513663  W2        2171            0.0000000000
      6513      2171  TIP3      H2             16.7501912142        6.6344942980        5.0465013663  W2        2171            0.0000000000
      6514      2172  TIP3      OH2             3.8585712142       13.9238342980        3.3510913663  W2        2172            0.0000000000
      6515      2172  TIP3      H1              4.0747012142       13.5623942980        4.2106713663  W2        2172            0.0000000000
      6516      2172  TIP3      H2              3.0030412142       13.5492142980        3.1414413663  W2        2172            0.0000000000
      6517      2173  TIP3      OH2             6.4773712142        2.3938842980       -0.6534886337  W2        2173            0.0000000000
      6518      2173  TIP3      H1              5.6157412142        2.3067042980       -1.0611986337  W2        2173            0.0000000000
      6519      2173  TIP3      H2              6.4549412142        3.2498942980       -0.2257286337  W2        2173            0.0000000000
      6520      2174  TIP3      OH2            11.1401512142        2.1159242980        2.7212113663  W2        2174            0.0000000000
      6521      2174  TIP3      H1             11.5604612142        1.7006342980        3.4742713663  W2        2174            0.0000000000
      6522      2174  TIP3      H2             10.2071112142        1.9372542980        2.8384113663  W2        2174            0.0000000000
      6523      2175  TIP3      OH2            14.4666412142        5.8714442980        3.5746613663  W2        2175            0.0000000000
      6524      2175  TIP3      H1             13.9525912142        5.7456642980        4.3722613663  W2        2175            0.0000000000
      6525      2175  TIP3      H2             14.3111112142        6.7837542980        3.3302813663  W2        2175            0.0000000000
      6526      2176  TIP3      OH2            15.2291312142       10.7324442980      -10.6640386337  W2        2176            0.0000000000
      6527      2176  TIP3      H1             15.2712112142       10.5098342980      -11.5940386337  W2        2176            0.0000000000
      6528      2176  TIP3      H2             16.0783412142       11.1311542980      -10.4740486337  W2        2176            0.0000000000
      6529      2177  TIP3      OH2            10.8018812142        4.6082642980       -9.9937086337  W2        2177            0.0000000000
      6530      2177  TIP3      H1             10.5483612142        4.6274242980       -9.0708986337  W2        2177            0.0000000000
      6531      2177  TIP3      H2             10.5450912142        3.7368042980      -10.2950886337  W2        2177            0.0000000000
      6532      2178  TIP3      OH2             6.5683812142        7.3593342980        0.4415313663  W2        2178            0.0000000000
      6533      2178  TIP3      H1              5.9265912142        7.3190642980        1.1505413663  W2        2178            0.0000000000
      6534      2178  TIP3      H2              6.6055812142        8.2858042980        0.2038313663  W2        2178            0.0000000000
      6535      2179  TIP3      OH2             6.5652912142        7.5803442980       -4.6464686337  W2        2179            0.0000000000
      6536      2179  TIP3      H1              5.6725812142        7.2399542980       -4.7050886337  W2        2179            0.0000000000
      6537      2179  TIP3      H2              7.0159512142        7.2034342980       -5.4021486337  W2        2179            0.0000000000
      6538      2180  TIP3      OH2            12.1008412142        7.9963742980       -5.8293886337  W2        2180            0.0000000000
      6539      2180  TIP3      H1             11.6918712142        8.8112342980       -6.1209086337  W2        2180            0.0000000000
      6540      2180  TIP3      H2             12.8214612142        7.8563842980       -6.4436786337  W2        2180            0.0000000000
      6541      2181  TIP3      OH2            11.2030012142        8.1720142980        5.6586813663  W2        2181            0.0000000000
      6542      2181  TIP3      H1             10.6403812142        7.4671742980        5.9794613663  W2        2181            0.0000000000
      6543      2181  TIP3      H2             12.0293412142        8.0512042980        6.1264413663  W2        2181            0.0000000000
      6544      2182  TIP3      OH2            13.1056112142        7.4424142980       -3.0154186337  W2        2182            0.0000000000
      6545      2182  TIP3      H1             12.9100612142        8.0480942980       -3.7303586337  W2        2182            0.0000000000
      6546      2182  TIP3      H2             13.2868712142        6.6089342980       -3.4497886337  W2        2182            0.0000000000
      6547      2183  TIP3      OH2             4.3184312142        7.6796842980        2.3087313663  W2        2183            0.0000000000
      6548      2183  TIP3      H1              4.2803712142        8.0798442980        3.1774413663  W2        2183            0.0000000000
      6549      2183  TIP3      H2              3.8275412142        6.8629242980        2.3990213663  W2        2183            0.0000000000
      6550      2184  TIP3      OH2             7.6841712142        5.0539142980      -10.8926686337  W2        2184            0.0000000000
      6551      2184  TIP3      H1              7.2532412142        4.6089242980      -10.1629286337  W2        2184            0.0000000000
      6552      2184  TIP3      H2              6.9660412142        5.4255442980      -11.4049186337  W2        2184            0.0000000000
      6553      2185  TIP3      OH2             0.9265112142        4.7958642980       -3.8407986337  W2        2185            0.0000000000
      6554      2185  TIP3      H1              1.5572812142        4.7670742980       -3.1214086337  W2        2185            0.0000000000
      6555      2185  TIP3      H2              1.3759412142        4.3707342980       -4.5712086337  W2        2185            0.0000000000
      6556      2186  TIP3      OH2             2.2007212142        5.5420642980       -8.4167586337  W2        2186            0.0000000000
      6557      2186  TIP3      H1              2.6748912142        6.1330542980       -9.0016686337  W2        2186            0.0000000000
      6558      2186  TIP3      H2              1.4833612142        6.0723542980       -8.0697486337  W2        2186            0.0000000000
      6559      2187  TIP3      OH2            12.3695312142        9.0805442980        1.6558213663  W2        2187            0.0000000000
      6560      2187  TIP3      H1             12.6930112142        8.4495142980        1.0128713663  W2        2187            0.0000000000
      6561      2187  TIP3      H2             11.9294612142        8.5457642980        2.3165613663  W2        2187            0.0000000000
      6562      2188  TIP3      OH2             9.1468212142        5.0080942980       -3.5600586337  W2        2188            0.0000000000
      6563      2188  TIP3      H1              8.2359312142        5.0647742980       -3.2714586337  W2        2188            0.0000000000
      6564      2188  TIP3      H2              9.6521112142        4.9476442980       -2.7493386337  W2        2188            0.0000000000
      6565      2189  TIP3      OH2             3.9751612142        6.6367242980       -4.7332986337  W2        2189            0.0000000000
      6566      2189  TIP3      H1              3.0859612142        6.7362742980       -5.0733386337  W2        2189            0.0000000000
      6567      2189  TIP3      H2              4.2716512142        5.7950242980       -5.0795086337  W2        2189            0.0000000000
      6568      2190  TIP3      OH2             7.6283412142        6.6369842980       -7.0768386337  W2        2190            0.0000000000
      6569      2190  TIP3      H1              8.5598912142        6.7659842980       -6.8985286337  W2        2190            0.0000000000
      6570      2190  TIP3      H2              7.4133712142        7.3064142980       -7.7263686337  W2        2190            0.0000000000
      6571      2191  TIP3      OH2            13.5520112142        4.2427242980       -0.2958786337  W2        2191            0.0000000000
      6572      2191  TIP3      H1             12.8751712142        4.3740342980        0.3680913663  W2        2191            0.0000000000
      6573      2191  TIP3      H2             13.0665012142        4.0876742980       -1.1061086337  W2        2191            0.0000000000
      6574      2192  TIP3      OH2             6.3023612142        7.8312042980       -9.5102286337  W2        2192            0.0000000000
      6575      2192  TIP3      H1              5.7598712142        7.4515842980      -10.2014686337  W2        2192            0.0000000000
      6576      2192  TIP3      H2              7.1358512142        8.0256742980       -9.9388186337  W2        2192            0.0000000000
      6577      2193  TIP3      OH2            16.8395212142       19.9142642980        5.9808813663  W2        2193            0.0000000000
      6578      2193  TIP3      H1             17.0393912142       20.3384542980        5.1464113663  W2        2193            0.0000000000
      6579      2193  TIP3      H2             17.4948912142       20.2580842980        6.5879213663  W2        2193            0.0000000000
      6580      2194  TIP3      OH2             4.4375012142       12.3883942980        5.5889313663  W2        2194            0.0000000000
      6581      2194  TIP3      H1              5.1697412142       12.6429842980        6.1503813663  W2        2194            0.0000000000
      6582      2194  TIP3      H2              3.6573712142       12.5929342980        6.1044713663  W2        2194            0.0000000000
      6583      2195  TIP3      OH2            10.4667912142        7.7953942980       -1.6730986337  W2        2195            0.0000000000
      6584      2195  TIP3      H1             11.0311312142        7.2490542980       -2.2201386337  W2        2195            0.0000000000
      6585      2195  TIP3      H2             10.3191312142        7.2735842980       -0.8843386337  W2        2195            0.0000000000
      6586      2196  TIP3      OH2             5.4687612142        3.9320042980       -5.2546186337  W2        2196            0.0000000000
      6587      2196  TIP3      H1              5.1517112142        3.0295342980       -5.2900786337  W2        2196            0.0000000000
      6588      2196  TIP3      H2              6.2501712142        3.9337442980       -5.8074586337  W2        2196            0.0000000000
      6589      2197  TIP3      OH2             9.0933812142        6.1840042980        0.7409413663  W2        2197            0.0000000000
      6590      2197  TIP3      H1              8.2579112142        6.6379542980        0.8511813663  W2        2197            0.0000000000
      6591      2197  TIP3      H2              9.6174412142        6.4598542980        1.4929313663  W2        2197            0.0000000000
      6592      2198  TIP3      OH2             9.6376412142       12.3967742980       -7.5744186337  W2        2198            0.0000000000
      6593      2198  TIP3      H1              8.8927412142       11.8893042980       -7.8966286337  W2        2198            0.0000000000
      6594      2198  TIP3      H2              9.5033612142       12.4455742980       -6.6279386337  W2        2198            0.0000000000
      6595      2199  TIP3      OH2            16.7875312142       11.5295942980        1.2123413663  W2        2199            0.0000000000
      6596      2199  TIP3      H1             17.4294112142       11.9862242980        0.6685613663  W2        2199            0.0000000000
      6597      2199  TIP3      H2             15.9572212142       11.6428342980        0.7497513663  W2        2199            0.0000000000
      6598      2200  TIP3      OH2            13.5353212142        5.2107642980       -9.3751586337  W2        2200            0.0000000000
      6599      2200  TIP3      H1             12.5967412142        5.3223242980       -9.5262786337  W2        2200            0.0000000000
      6600      2200  TIP3      H2             13.8325312142        6.0674542980       -9.0685886337  W2        2200            0.0000000000
      6601      2201  TIP3      OH2            11.1568512142       12.5811042980        3.6624913663  W2        2201            0.0000000000
      6602      2201  TIP3      H1             10.8114612142       12.1993442980        4.4694513663  W2        2201            0.0000000000
      6603      2201  TIP3      H2             10.9568612142       13.5144642980        3.7337813663  W2        2201            0.0000000000
      6604      2202  TIP3      OH2            14.2536712142        7.0780342980       -7.7144186337  W2        2202            0.0000000000
      6605      2202  TIP3      H1             15.1455712142        6.9405342980       -7.3952986337  W2        2202            0.0000000000
      6606      2202  TIP3      H2             14.3100312142        7.8686442980       -8.2510686337  W2        2202            0.0000000000
      6607      2203  TIP3      OH2             4.7624712142       11.6917742980       -1.8046286337  W2        2203            0.0000000000
      6608      2203  TIP3      H1              5.5071912142       11.6893442980       -2.4059786337  W2        2203            0.0000000000
      6609      2203  TIP3      H2              4.8401312142       10.8681542980       -1.3231186337  W2        2203            0.0000000000
      6610      2204  TIP3      OH2            11.7630512142       13.8552042980       -8.5489586337  W2        2204            0.0000000000
      6611      2204  TIP3      H1             11.4678912142       14.6819942980       -8.1674786337  W2        2204            0.0000000000
      6612      2204  TIP3      H2             11.0600512142       13.2358942980       -8.3528186337  W2        2204            0.0000000000
      6613      2205  TIP3      OH2             1.7704412142       10.1524642980        3.5102213663  W2        2205            0.0000000000
      6614      2205  TIP3      H1              1.9933012142        9.7344242980        4.3419713663  W2        2205            0.0000000000
      6615      2205  TIP3      H2              1.1684512142        9.5399642980        3.0875013663  W2        2205            0.0000000000
      6616      2206  TIP3      OH2             8.7869312142        9.6694542980        5.7231913663  W2        2206            0.0000000000
      6617      2206  TIP3      H1              8.4910112142        9.5037542980        4.8281013663  W2        2206            0.0000000000
      6618      2206  TIP3      H2              9.7184512142        9.4494842980        5.7125813663  W2        2206            0.0000000000
      6619      2207  TIP3      OH2            13.4072112142       15.0426542980        3.6129913663  W2        2207            0.0000000000
      6620      2207  TIP3      H1             12.5066412142       15.2259142980        3.3453813663  W2        2207            0.0000000000
      6621      2207  TIP3      H2             13.4413212142       15.3015842980        4.5338713663  W2        2207            0.0000000000
      6622      2208  TIP3      OH2            19.1385412142        7.2874442980       -8.0197486337  W2        2208            0.0000000000
      6623      2208  TIP3      H1             18.5841712142        6.8912442980       -8.6919986337  W2        2208            0.0000000000
      6624      2208  TIP3      H2             19.2389012142        8.1979642980       -8.2974186337  W2        2208            0.0000000000
      6625      2209  TIP3      OH2            19.1017412142       13.0876142980        4.8174013663  W2        2209            0.0000000000
      6626      2209  TIP3      H1             18.2505912142       13.3259942980        4.4500413663  W2        2209            0.0000000000
      6627      2209  TIP3      H2             19.6920812142       13.0709342980        4.0641113663  W2        2209            0.0000000000
      6628      2210  TIP3      OH2            17.4337112142       16.0734842980       -7.5545386337  W2        2210            0.0000000000
      6629      2210  TIP3      H1             17.0608212142       15.2478642980       -7.2454786337  W2        2210            0.0000000000
      6630      2210  TIP3      H2             17.7110612142       15.8904242980       -8.4521986337  W2        2210            0.0000000000
      6631      2211  TIP3      OH2            14.5941012142       10.8814342980       -0.5333486337  W2        2211            0.0000000000
      6632      2211  TIP3      H1             13.6657912142       10.6496242980       -0.5604186337  W2        2211            0.0000000000
      6633      2211  TIP3      H2             15.0452112142       10.1044142980       -0.8634686337  W2        2211            0.0000000000
      6634      2212  TIP3      OH2             7.1374112142       15.2095942980       -4.4004786337  W2        2212            0.0000000000
      6635      2212  TIP3      H1              7.6646312142       15.9830342980       -4.6005986337  W2        2212            0.0000000000
      6636      2212  TIP3      H2              6.2572612142       15.4345142980       -4.7020786337  W2        2212            0.0000000000
      6637      2213  TIP3      OH2             2.8921812142       10.0720042980       -9.8132386337  W2        2213            0.0000000000
      6638      2213  TIP3      H1              3.5081712142       10.6987242980       -9.4337586337  W2        2213            0.0000000000
      6639      2213  TIP3      H2              2.0304412142       10.3879842980       -9.5415886337  W2        2213            0.0000000000
      6640      2214  TIP3      OH2             8.5646412142       12.8725842980       -4.8240486337  W2        2214            0.0000000000
      6641      2214  TIP3      H1              8.3236412142       13.7980242980       -4.7825186337  W2        2214            0.0000000000
      6642      2214  TIP3      H2              7.8240012142       12.4137142980       -4.4276586337  W2        2214            0.0000000000
      6643      2215  TIP3      OH2             9.0793012142       17.0219442980        1.4910613663  W2        2215            0.0000000000
      6644      2215  TIP3      H1              9.4417712142       17.8765042980        1.2575013663  W2        2215            0.0000000000
      6645      2215  TIP3      H2              9.6108212142       16.7301042980        2.2316913663  W2        2215            0.0000000000
      6646      2216  TIP3      OH2             7.2477212142       17.8943442980       -5.2788286337  W2        2216            0.0000000000
      6647      2216  TIP3      H1              6.2977712142       18.0000842980       -5.2274986337  W2        2216            0.0000000000
      6648      2216  TIP3      H2              7.5995312142       18.7150842980       -4.9340786337  W2        2216            0.0000000000
      6649      2217  TIP3      OH2            12.6233812142       13.1210142980        1.1916213663  W2        2217            0.0000000000
      6650      2217  TIP3      H1             12.1975112142       12.8931842980        2.0180213663  W2        2217            0.0000000000
      6651      2217  TIP3      H2             13.2039612142       12.3821942980        1.0091513663  W2        2217            0.0000000000
      6652      2218  TIP3      OH2            14.8262712142       14.0500642980       -9.7344786337  W2        2218            0.0000000000
      6653      2218  TIP3      H1             15.1795812142       13.6700442980       -8.9301286337  W2        2218            0.0000000000
      6654      2218  TIP3      H2             13.8776212142       13.9565442980       -9.6475486337  W2        2218            0.0000000000
      6655      2219  TIP3      OH2            15.2818012142       17.6729642980        3.6611013663  W2        2219            0.0000000000
      6656      2219  TIP3      H1             14.6801212142       17.1172542980        3.1657313663  W2        2219            0.0000000000
      6657      2219  TIP3      H2             15.5631712142       18.3399442980        3.0348413663  W2        2219            0.0000000000
      6658      2220  TIP3      OH2            19.3297112142       18.5293142980       -9.5334586337  W2        2220            0.0000000000
      6659      2220  TIP3      H1             20.0735012142       19.1153642980       -9.6732986337  W2        2220            0.0000000000
      6660      2220  TIP3      H2             18.6355212142       19.0978942980       -9.2002186337  W2        2220            0.0000000000
      6661      2221  TIP3      OH2             3.4043912142        4.9057342980        3.0683613663  W2        2221            0.0000000000
      6662      2221  TIP3      H1              2.5116212142        5.2442742980        3.0007613663  W2        2221            0.0000000000
      6663      2221  TIP3      H2              3.3056712142        4.0503442980        3.4864413663  W2        2221            0.0000000000
      6664      2222  TIP3      OH2            15.6922012142       12.7222642980       -7.5076886337  W2        2222            0.0000000000
      6665      2222  TIP3      H1             15.4149612142       11.9941942980       -6.9515786337  W2        2222            0.0000000000
      6666      2222  TIP3      H2             16.6195012142       12.8414642980       -7.3024286337  W2        2222            0.0000000000
      6667      2223  TIP3      OH2             3.0555912142       16.7101742980        1.5033013663  W2        2223            0.0000000000
      6668      2223  TIP3      H1              3.2726212142       15.7784142980        1.4722713663  W2        2223            0.0000000000
      6669      2223  TIP3      H2              3.3019412142       16.9846742980        2.3865813663  W2        2223            0.0000000000
      6670      2224  TIP3      OH2             8.9170512142       15.1616742980      -11.2874786337  W2        2224            0.0000000000
      6671      2224  TIP3      H1              9.1560312142       14.4134842980      -11.8345886337  W2        2224            0.0000000000
      6672      2224  TIP3      H2              8.6481812142       14.7738442980      -10.4546986337  W2        2224            0.0000000000
      6673      2225  TIP3      OH2             7.8541112142       14.7320542980       -8.8312186337  W2        2225            0.0000000000
      6674      2225  TIP3      H1              8.0009112142       14.2120342980       -8.0411286337  W2        2225            0.0000000000
      6675      2225  TIP3      H2              7.8512812142       15.6388142980       -8.5246286337  W2        2225            0.0000000000
      6676      2226  TIP3      OH2             4.3072212142       11.9843842980       -8.3206786337  W2        2226            0.0000000000
      6677      2226  TIP3      H1              3.6211512142       12.3366342980       -7.7537086337  W2        2226            0.0000000000
      6678      2226  TIP3      H2              4.8300112142       12.7473442980       -8.5672486337  W2        2226            0.0000000000
      6679      2227  TIP3      OH2            12.1387312142        4.6467642980        1.9582213663  W2        2227            0.0000000000
      6680      2227  TIP3      H1             12.8375212142        4.7206342980        2.6081913663  W2        2227            0.0000000000
      6681      2227  TIP3      H2             11.7578712142        3.7822642980        2.1125113663  W2        2227            0.0000000000
      6682      2228  TIP3      OH2            12.9232212142        4.2989342980       -6.9445486337  W2        2228            0.0000000000
      6683      2228  TIP3      H1             13.1430512142        4.7704742980       -7.7480086337  W2        2228            0.0000000000
      6684      2228  TIP3      H2             13.4816212142        4.6931942980       -6.2744886337  W2        2228            0.0000000000
      6685      2229  TIP3      OH2            10.5918312142       16.4294142980       -8.0817986337  W2        2229            0.0000000000
      6686      2229  TIP3      H1              9.7754412142       16.9263842980       -8.0293686337  W2        2229            0.0000000000
      6687      2229  TIP3      H2             11.1214612142       16.9047642980       -8.7219186337  W2        2229            0.0000000000
      6688      2230  TIP3      OH2            10.1232112142        6.0268142980       -6.1097086337  W2        2230            0.0000000000
      6689      2230  TIP3      H1             10.9354712142        6.5311342980       -6.0635386337  W2        2230            0.0000000000
      6690      2230  TIP3      H2              9.8785112142        5.8817842980       -5.1957486337  W2        2230            0.0000000000
      6691      2231  TIP3      OH2            10.6588512142        7.0130842980        3.0749513663  W2        2231            0.0000000000
      6692      2231  TIP3      H1             10.7778812142        7.5866242980        3.8319913663  W2        2231            0.0000000000
      6693      2231  TIP3      H2             11.3143112142        6.3250242980        3.1897313663  W2        2231            0.0000000000
      6694      2232  TIP3      OH2            11.0068812142        3.1081142980       -5.1715986337  W2        2232            0.0000000000
      6695      2232  TIP3      H1             10.6602312142        3.7251742980       -4.5271686337  W2        2232            0.0000000000
      6696      2232  TIP3      H2             11.6655712142        3.6086842980       -5.6530486337  W2        2232            0.0000000000
      6697      2233  TIP3      OH2             7.9301412142       17.4731342980       -8.1001086337  W2        2233            0.0000000000
      6698      2233  TIP3      H1              8.0910112142       18.2728842980       -8.6008486337  W2        2233            0.0000000000
      6699      2233  TIP3      H2              7.7329212142       17.7797342980       -7.2150486337  W2        2233            0.0000000000
      6700      2234  TIP3      OH2             6.6645812142        4.1710542980       -8.4843486337  W2        2234            0.0000000000
      6701      2234  TIP3      H1              6.5810612142        5.0593642980       -8.1377086337  W2        2234            0.0000000000
      6702      2234  TIP3      H2              7.5546112142        3.9057242980       -8.2526686337  W2        2234            0.0000000000
      6703      2235  TIP3      OH2            16.8634312142        4.9201142980        3.9099213663  W2        2235            0.0000000000
      6704      2235  TIP3      H1             15.9470112142        5.1822842980        3.8222913663  W2        2235            0.0000000000
      6705      2235  TIP3      H2             17.1989312142        4.9170142980        3.0134513663  W2        2235            0.0000000000
      6706      2236  TIP3      OH2            15.4655312142        8.6702142980       -1.9943486337  W2        2236            0.0000000000
      6707      2236  TIP3      H1             14.6679712142        8.2552342980       -2.3228486337  W2        2236            0.0000000000
      6708      2236  TIP3      H2             15.9106412142        7.9795842980       -1.5032986337  W2        2236            0.0000000000
      6709      2237  TIP3      OH2             4.9231112142       14.5982742980       -9.4238986337  W2        2237            0.0000000000
      6710      2237  TIP3      H1              5.5152612142       15.2977542980       -9.1476586337  W2        2237            0.0000000000
      6711      2237  TIP3      H2              5.3824112142       14.1652242980      -10.1434386337  W2        2237            0.0000000000
      6712      2238  TIP3      OH2             3.2390312142        7.2625742980      -10.3079586337  W2        2238            0.0000000000
      6713      2238  TIP3      H1              3.1942912142        8.2018842980      -10.1292586337  W2        2238            0.0000000000
      6714      2238  TIP3      H2              2.3513512142        7.0270642980      -10.5777486337  W2        2238            0.0000000000
      6715      2239  TIP3      OH2            16.5519912142       17.9264642980       -0.3719986337  W2        2239            0.0000000000
      6716      2239  TIP3      H1             16.3964212142       18.6049042980       -1.0290686337  W2        2239            0.0000000000
      6717      2239  TIP3      H2             17.4846312142       17.9983942980       -0.1689386337  W2        2239            0.0000000000
      6718      2240  TIP3      OH2             4.0472312142        2.0442342980       -1.6348586337  W2        2240            0.0000000000
      6719      2240  TIP3      H1              3.8182112142        2.1034842980       -2.5623586337  W2        2240            0.0000000000
      6720      2240  TIP3      H2              3.6045712142        1.2527842980       -1.3284486337  W2        2240            0.0000000000
      6721      2241  TIP3      OH2             2.9775612142       15.9849442980       -5.4742786337  W2        2241            0.0000000000
      6722      2241  TIP3      H1              2.1454212142       16.4572142980       -5.4471386337  W2        2241            0.0000000000
      6723      2241  TIP3      H2              3.5233912142       16.4947042980       -6.0729686337  W2        2241            0.0000000000
      6724      2242  TIP3      OH2             2.2659312142       18.5973142980        5.8555213663  W2        2242            0.0000000000
      6725      2242  TIP3      H1              2.8061512142       18.3807142980        6.6154413663  W2        2242            0.0000000000
      6726      2242  TIP3      H2              1.7847312142       17.7919142980        5.6657713663  W2        2242            0.0000000000
      6727      2243  TIP3      OH2             6.8632712142       17.5167542980        7.4759413663  W2        2243            0.0000000000
      6728      2243  TIP3      H1              7.6309912142       17.0578342980        7.8168613663  W2        2243            0.0000000000
      6729      2243  TIP3      H2              6.8418912142       17.2907342980        6.5460613663  W2        2243            0.0000000000
      6730      2244  TIP3      OH2            10.9552312142       17.0248142980      -11.1488786337  W2        2244            0.0000000000
      6731      2244  TIP3      H1             10.3113312142       16.3936742980      -10.8275086337  W2        2244            0.0000000000
      6732      2244  TIP3      H2             11.7170612142       16.4936142980      -11.3805286337  W2        2244            0.0000000000
      6733      2245  TIP3      OH2            13.4401412142       15.8968642980        6.2050913663  W2        2245            0.0000000000
      6734      2245  TIP3      H1             13.0890912142       15.0401642980        6.4481313663  W2        2245            0.0000000000
      6735      2245  TIP3      H2             14.1664612142       16.0395342980        6.8119913663  W2        2245            0.0000000000
      6736      2246  TIP3      OH2            15.5595212142       16.8418042980      -10.9150786337  W2        2246            0.0000000000
      6737      2246  TIP3      H1             15.8425612142       16.0473242980      -10.4623886337  W2        2246            0.0000000000
      6738      2246  TIP3      H2             16.2993112142       17.0749042980      -11.4759686337  W2        2246            0.0000000000
      6739      2247  TIP3      OH2             2.1728812142       12.4077242980        6.8099513663  W2        2247            0.0000000000
      6740      2247  TIP3      H1              2.3169312142       11.5057942980        6.5236213663  W2        2247            0.0000000000
      6741      2247  TIP3      H2              1.4006212142       12.6939342980        6.3221813663  W2        2247            0.0000000000
      6742      2248  TIP3      OH2             6.5142512142       12.7512942980      -11.0575886337  W2        2248            0.0000000000
      6743      2248  TIP3      H1              6.5786612142       11.9572542980      -10.5269486337  W2        2248            0.0000000000
      6744      2248  TIP3      H2              7.1671712142       12.6325742980      -11.7473886337  W2        2248            0.0000000000
      6745      2249  TIP3      OH2             8.8284912142       12.3775342980        6.2425913663  W2        2249            0.0000000000
      6746      2249  TIP3      H1              8.4998712142       12.6483442980        5.3853313663  W2        2249            0.0000000000
      6747      2249  TIP3      H2              8.9803112142       11.4365142980        6.1550913663  W2        2249            0.0000000000
      6748      2250  TIP3      OH2            11.8665912142       13.7984642980      -11.3217886337  W2        2250            0.0000000000
      6749      2250  TIP3      H1             11.5980012142       13.9786742980      -10.4208986337  W2        2250            0.0000000000
      6750      2250  TIP3      H2             11.6601512142       12.8730842980      -11.4532086337  W2        2250            0.0000000000
      6751      2251  TIP3      OH2            14.5630112142       12.2932642980        3.6258213663  W2        2251            0.0000000000
      6752      2251  TIP3      H1             15.3084912142       12.8816342980        3.5062213663  W2        2251            0.0000000000
      6753      2251  TIP3      H2             13.8056912142       12.8752342980        3.6891313663  W2        2251            0.0000000000
      6754      2252  TIP3      OH2             3.0055312142        9.6080542980        6.2298813663  W2        2252            0.0000000000
      6755      2252  TIP3      H1              3.4136512142        8.7507142980        6.1089413663  W2        2252            0.0000000000
      6756      2252  TIP3      H2              2.7452912142        9.6221842980        7.1509113663  W2        2252            0.0000000000
      6757      2253  TIP3      OH2             7.6636312142       10.7239142980       -8.7517886337  W2        2253            0.0000000000
      6758      2253  TIP3      H1              7.2038312142       10.2397442980       -8.0659386337  W2        2253            0.0000000000
      6759      2253  TIP3      H2              7.9185012142       10.0554542980       -9.3877386337  W2        2253            0.0000000000
      6760      2254  TIP3      OH2             6.9525612142        8.6166242980        3.6041713663  W2        2254            0.0000000000
      6761      2254  TIP3      H1              6.3341712142        9.2912842980        3.8846413663  W2        2254            0.0000000000
      6762      2254  TIP3      H2              7.2966812142        8.9380142980        2.7707913663  W2        2254            0.0000000000
      6763      2255  TIP3      OH2             8.7346712142        8.9670942980      -10.4894686337  W2        2255            0.0000000000
      6764      2255  TIP3      H1              8.5541712142        8.8122142980      -11.4166386337  W2        2255            0.0000000000
      6765      2255  TIP3      H2              9.6847212142        9.0749642980      -10.4446786337  W2        2255            0.0000000000
      6766      2256  TIP3      OH2            11.9723812142       11.0881542980        6.8816513663  W2        2256            0.0000000000
      6767      2256  TIP3      H1             12.9255012142       11.1720642980        6.8542513663  W2        2256            0.0000000000
      6768      2256  TIP3      H2             11.8118412142       10.3763342980        7.5011413663  W2        2256            0.0000000000
      6769      2257  TIP3      OH2            18.1245012142       11.3215142980      -11.0436586337  W2        2257            0.0000000000
      6770      2257  TIP3      H1             17.8509812142       10.8970642980      -11.8568286337  W2        2257            0.0000000000
      6771      2257  TIP3      H2             18.1639112142       12.2529642980      -11.2606186337  W2        2257            0.0000000000
      6772      2258  TIP3      OH2             7.2919312142        5.9717042980        4.6864813663  W2        2258            0.0000000000
      6773      2258  TIP3      H1              7.4420212142        5.2428342980        4.0844513663  W2        2258            0.0000000000
      6774      2258  TIP3      H2              7.2941712142        6.7488742980        4.1277013663  W2        2258            0.0000000000
      6775      2259  TIP3      OH2             7.7045012142        4.3412842980        2.1792213663  W2        2259            0.0000000000
      6776      2259  TIP3      H1              8.2402512142        4.7929542980        1.5271513663  W2        2259            0.0000000000
      6777      2259  TIP3      H2              6.8524612142        4.2332642980        1.7566313663  W2        2259            0.0000000000
      6778      2260  TIP3      OH2             9.2863412142        9.7809042980        2.4187413663  W2        2260            0.0000000000
      6779      2260  TIP3      H1             10.0368212142        9.6246542980        1.8455213663  W2        2260            0.0000000000
      6780      2260  TIP3      H2              8.9471712142       10.6325642980        2.1432913663  W2        2260            0.0000000000
      6781      2261  TIP3      OH2            13.7019612142        7.5960842980        7.4472713663  W2        2261            0.0000000000
      6782      2261  TIP3      H1             13.8940912142        6.6650242980        7.3357213663  W2        2261            0.0000000000
      6783      2261  TIP3      H2             14.5595912142        8.0210342980        7.4368113663  W2        2261            0.0000000000
      6784      2262  TIP3      OH2            15.0186812142       10.3846042980        5.5245413663  W2        2262            0.0000000000
      6785      2262  TIP3      H1             14.7371812142       11.0940642980        4.9469213663  W2        2262            0.0000000000
      6786      2262  TIP3      H2             15.9611112142       10.3119042980        5.3736613663  W2        2262            0.0000000000
      6787      2263  TIP3      OH2             5.7705612142        7.1700542980        6.5980413663  W2        2263            0.0000000000
      6788      2263  TIP3      H1              5.0034612142        6.6375342980        6.3878013663  W2        2263            0.0000000000
      6789      2263  TIP3      H2              6.4494612142        6.8600942980        5.9986713663  W2        2263            0.0000000000
      6790      2264  TIP3      OH2             8.5100512142        1.7978542980        2.6105813663  W2        2264            0.0000000000
      6791      2264  TIP3      H1              8.4120112142        2.7441742980        2.5052013663  W2        2264            0.0000000000
      6792      2264  TIP3      H2              7.7676712142        1.4252342980        2.1349313663  W2        2264            0.0000000000
      6793      2265  TIP3      OH2             9.7741012142        6.1193942980        6.1744213663  W2        2265            0.0000000000
      6794      2265  TIP3      H1              9.5386412142        5.9000642980        7.0759113663  W2        2265            0.0000000000
      6795      2265  TIP3      H2              8.9907912142        5.9125142980        5.6646713663  W2        2265            0.0000000000
      6796      2266  TIP3      OH2            12.4897612142        5.2467442980        5.2497713663  W2        2266            0.0000000000
      6797      2266  TIP3      H1             11.5423012142        5.2787142980        5.3821013663  W2        2266            0.0000000000
      6798      2266  TIP3      H2             12.8024312142        4.6214542980        5.9035913663  W2        2266            0.0000000000
      6799      2267  TIP3      OH2            14.1239112142        3.8808542980        7.2549613663  W2        2267            0.0000000000
      6800      2267  TIP3      H1             14.0270912142        2.9285842980        7.2491513663  W2        2267            0.0000000000
      6801      2267  TIP3      H2             13.8022212142        4.1495342980        8.1155113663  W2        2267            0.0000000000
      6802      2268  TIP3      OH2             3.9508412142        5.0904342980        6.3025113663  W2        2268            0.0000000000
      6803      2268  TIP3      H1              4.1625812142        4.3840442980        5.6922613663  W2        2268            0.0000000000
      6804      2268  TIP3      H2              3.8395912142        4.6530342980        7.1466313663  W2        2268            0.0000000000
      6805      2269  TIP3      OH2             8.7318612142        1.0915942980        5.2818613663  W2        2269            0.0000000000
      6806      2269  TIP3      H1              9.4437012142        0.4518142980        5.2677713663  W2        2269            0.0000000000
      6807      2269  TIP3      H2              8.6309012142        1.3584242980        4.3681713663  W2        2269            0.0000000000
      6808      2270  TIP3      OH2             9.0856112142        2.7744342980        7.3354913663  W2        2270            0.0000000000
      6809      2270  TIP3      H1              8.9538312142        2.2988142980        6.5153413663  W2        2270            0.0000000000
      6810      2270  TIP3      H2              8.4863512142        3.5187942980        7.2802013663  W2        2270            0.0000000000
      6811      2271  TIP3      OH2             8.6318412142       19.6574642980       -9.4881086337  W2        2271            0.0000000000
      6812      2271  TIP3      H1              9.5649112142       19.8153342980       -9.3442686337  W2        2271            0.0000000000
      6813      2271  TIP3      H2              8.3677212142       20.3327642980      -10.1129586337  W2        2271            0.0000000000
      6814      2272  TIP3      OH2             2.2003312142       14.2938442980      -10.0052986337  W2        2272            0.0000000000
      6815      2272  TIP3      H1              3.1142512142       14.3727342980       -9.7319086337  W2        2272            0.0000000000
      6816      2272  TIP3      H2              2.2076412142       13.6068042980      -10.6717386337  W2        2272            0.0000000000
      6817      2273  TIP3      OH2             0.8493912142       19.6866942980       -4.9279086337  W2        2273            0.0000000000
      6818      2273  TIP3      H1              0.2021012142       19.2248642980       -5.4607886337  W2        2273            0.0000000000
      6819      2273  TIP3      H2              1.2038512142       19.0150242980       -4.3452886337  W2        2273            0.0000000000
      6820      2274  TIP3      OH2             1.7193112142       17.7673942980       -3.1232886337  W2        2274            0.0000000000
      6821      2274  TIP3      H1              1.3849912142       16.8871242980       -2.9512686337  W2        2274            0.0000000000
      6822      2274  TIP3      H2              1.9415512142       18.1128942980       -2.2587286337  W2        2274            0.0000000000
      6823      2275  TIP3      OH2            19.2677912142       18.5770342980       -0.1428086337  W2        2275            0.0000000000
      6824      2275  TIP3      H1             19.2464612142       18.7618742980        0.7961313663  W2        2275            0.0000000000
      6825      2275  TIP3      H2             19.9584112142       19.1454342980       -0.4836686337  W2        2275            0.0000000000
      6826      2276  TIP3      OH2            18.8310812142       18.1441442980        2.7791013663  W2        2276            0.0000000000
      6827      2276  TIP3      H1             18.3439512142       17.4085542980        2.4078413663  W2        2276            0.0000000000
      6828      2276  TIP3      H2             19.3803512142       17.7505342980        3.4570413663  W2        2276            0.0000000000
      6829      2277  TIP3      OH2            17.2818112142       13.9339542980        7.4171313663  W2        2277            0.0000000000
      6830      2277  TIP3      H1             16.4159212142       13.8289242980        7.8113613663  W2        2277            0.0000000000
      6831      2277  TIP3      H2             17.6584012142       14.6922842980        7.8636013663  W2        2277            0.0000000000
      6832      2278  TIP3      OH2            18.5827812142       12.1903242980       -7.0686186337  W2        2278            0.0000000000
      6833      2278  TIP3      H1             19.4329212142       12.6114142980       -6.9414586337  W2        2278            0.0000000000
      6834      2278  TIP3      H2             18.5882912142       11.4503342980       -6.4614786337  W2        2278            0.0000000000
      6835      2279  TIP3      OH2            18.9773412142       10.2440642980       -5.2450486337  W2        2279            0.0000000000
      6836      2279  TIP3      H1             18.2508012142        9.7643242980       -4.8472886337  W2        2279            0.0000000000
      6837      2279  TIP3      H2             19.5586712142       10.4495342980       -4.5128886337  W2        2279            0.0000000000
      6838      2280  TIP3      OH2            18.7364612142       13.0288142980       -0.2972886337  W2        2280            0.0000000000
      6839      2280  TIP3      H1             19.5698812142       12.6508142980       -0.5779286337  W2        2280            0.0000000000
      6840      2280  TIP3      H2             18.8484912142       13.9719342980       -0.4163786337  W2        2280            0.0000000000
      6841      2281  TIP3      OH2            17.2226912142       15.9065642980        2.0095513663  W2        2281            0.0000000000
      6842      2281  TIP3      H1             16.5752212142       16.2317142980        2.6350713663  W2        2281            0.0000000000
      6843      2281  TIP3      H2             16.7050912142       15.4663342980        1.3353813663  W2        2281            0.0000000000
      6844      2282  TIP3      OH2            19.2456512142       10.1449142980       -8.8539186337  W2        2282            0.0000000000
      6845      2282  TIP3      H1             18.7237612142       10.5013242980       -9.5728286337  W2        2282            0.0000000000
      6846      2282  TIP3      H2             19.2125712142       10.8196942980       -8.1758286337  W2        2282            0.0000000000
      6847      2283  TIP3      OH2            17.5945512142        7.3844742980      -10.3032086337  W2        2283            0.0000000000
      6848      2283  TIP3      H1             17.6909912142        8.0511742980      -10.9832386337  W2        2283            0.0000000000
      6849      2283  TIP3      H2             17.4545112142        6.5691042980      -10.7846586337  W2        2283            0.0000000000
      6850      2284  TIP3      OH2            16.7640212142        8.7647142980       -4.6821786337  W2        2284            0.0000000000
      6851      2284  TIP3      H1             16.6139012142        7.8195742980       -4.7023986337  W2        2284            0.0000000000
      6852      2284  TIP3      H2             16.4104712142        9.0458542980       -3.8382686337  W2        2284            0.0000000000
      6853      2285  TIP3      OH2             1.7992612142       10.8429342980       -0.6717986337  W2        2285            0.0000000000
      6854      2285  TIP3      H1              1.9835512142       10.7611042980       -1.6075086337  W2        2285            0.0000000000
      6855      2285  TIP3      H2              2.6485512142       10.7186342980       -0.2481586337  W2        2285            0.0000000000
      6856      2286  TIP3      OH2            17.6203112142       10.7350442980        4.9566513663  W2        2286            0.0000000000
      6857      2286  TIP3      H1             18.2030412142       10.0002742980        5.1483713663  W2        2286            0.0000000000
      6858      2286  TIP3      H2             18.1842412142       11.5070742980        5.0032313663  W2        2286            0.0000000000
      6859      2287  TIP3      OH2            19.1170212142        8.6376242980        5.6411913663  W2        2287            0.0000000000
      6860      2287  TIP3      H1             18.2536912142        8.2588342980        5.4756613663  W2        2287            0.0000000000
      6861      2287  TIP3      H2             19.7213912142        7.8991042980        5.5667713663  W2        2287            0.0000000000
      6862      2288  TIP3      OH2            16.8419312142        4.7924542980      -11.1856586337  W2        2288            0.0000000000
      6863      2288  TIP3      H1             17.4525112142        4.4211342980      -10.5488386337  W2        2288            0.0000000000
      6864      2288  TIP3      H2             16.0050812142        4.3711442980      -10.9896586337  W2        2288            0.0000000000
      6865      2289  TIP3      OH2            16.4745012142        6.3472942980       -6.2196686337  W2        2289            0.0000000000
      6866      2289  TIP3      H1             16.7542112142        5.4403342980       -6.0954986337  W2        2289            0.0000000000
      6867      2289  TIP3      H2             17.2336712142        6.7814442980       -6.6087486337  W2        2289            0.0000000000
      6868      2290  TIP3      OH2            17.0863312142        6.9290342980       -0.7837786337  W2        2290            0.0000000000
      6869      2290  TIP3      H1             18.0191312142        7.1410242980       -0.8181786337  W2        2290            0.0000000000
      6870      2290  TIP3      H2             16.8510812142        7.0302442980        0.1385213663  W2        2290            0.0000000000
      6871      2291  TIP3      OH2            17.1155212142        7.6655642980        1.9921613663  W2        2291            0.0000000000
      6872      2291  TIP3      H1             16.2726512142        7.9336042980        2.3581413663  W2        2291            0.0000000000
      6873      2291  TIP3      H2             17.5579512142        8.4877542980        1.7812713663  W2        2291            0.0000000000
      6874      2292  TIP3      OH2             1.3967412142        6.1134342980        5.4690813663  W2        2292            0.0000000000
      6875      2292  TIP3      H1              2.3162312142        5.9912642980        5.7053913663  W2        2292            0.0000000000
      6876      2292  TIP3      H2              0.9471912142        5.3634042980        5.8584313663  W2        2292            0.0000000000
      6877      2293  TIP3      OH2            19.3986812142        1.6455842980        7.3456613663  W2        2293            0.0000000000
      6878      2293  TIP3      H1             19.7483812142        0.9919342980        6.7401313663  W2        2293            0.0000000000
      6879      2293  TIP3      H2             19.5456312142        2.4829942980        6.9059213663  W2        2293            0.0000000000
      6880      2294  TIP3      OH2            17.0879812142        3.6102242980       -6.1714686337  W2        2294            0.0000000000
      6881      2294  TIP3      H1             17.2704812142        3.1613742980       -5.3459686337  W2        2294            0.0000000000
      6882      2294  TIP3      H2             16.4882712142        3.0256642980       -6.6350086337  W2        2294            0.0000000000
      6883      2295  TIP3      OH2             2.6179912142        4.4255942980       -1.6396286337  W2        2295            0.0000000000
      6884      2295  TIP3      H1              3.0631512142        3.6338442980       -1.3376586337  W2        2295            0.0000000000
      6885      2295  TIP3      H2              3.0842912142        5.1421142980       -1.2090686337  W2        2295            0.0000000000
      6886      2296  TIP3      OH2             0.9220212142        7.4248942980       -0.5706086337  W2        2296            0.0000000000
      6887      2296  TIP3      H1              1.4140012142        7.2039442980       -1.3614086337  W2        2296            0.0000000000
      6888      2296  TIP3      H2              1.2841112142        8.2652342980       -0.2896586337  W2        2296            0.0000000000
      6889      2297  TIP3      OH2            18.9184012142        3.7550442980        5.6947913663  W2        2297            0.0000000000
      6890      2297  TIP3      H1             18.0009712142        4.0257542980        5.6591413663  W2        2297            0.0000000000
      6891      2297  TIP3      H2             19.0413412142        3.2198842980        4.9107613663  W2        2297            0.0000000000
      6892      2298  TIP3      OH2            18.9546012142        3.6780342980       -9.6434386337  W2        2298            0.0000000000
      6893      2298  TIP3      H1             19.3668612142        2.9566042980      -10.1186386337  W2        2298            0.0000000000
      6894      2298  TIP3      H2             19.6362512142        4.3474942980       -9.5850086337  W2        2298            0.0000000000
      6895      2299  TIP3      OH2             1.2356712142        3.6828042980       -6.5163686337  W2        2299            0.0000000000
      6896      2299  TIP3      H1              0.3105112142        3.8914642980       -6.6458186337  W2        2299            0.0000000000
      6897      2299  TIP3      H2              1.6896612142        4.1668842980       -7.2061386337  W2        2299            0.0000000000
      6898      2300  TIP3      OH2            16.0063912142       18.6669742980       -4.5706286337  W2        2300            0.0000000000
      6899      2300  TIP3      H1             16.6586812142       18.3191842980       -5.1787186337  W2        2300            0.0000000000
      6900      2300  TIP3      H2             16.5167712142       19.1552942980       -3.9246586337  W2        2300            0.0000000000
      6901      2301  TIP3      OH2             1.1992112142        2.4207042980        1.8278813663  W2        2301            0.0000000000
      6902      2301  TIP3      H1              0.5342612142        2.1747342980        2.4709713663  W2        2301            0.0000000000
      6903      2301  TIP3      H2              0.7563412142        3.0427442980        1.2506813663  W2        2301            0.0000000000
      6904      2302  TIP3      OH2             3.3911412142       15.5961142980        5.9724613663  W2        2302            0.0000000000
      6905      2302  TIP3      H1              2.5703912142       15.7707642980        5.5119313663  W2        2302            0.0000000000
      6906      2302  TIP3      H2              3.1389212142       15.5225842980        6.8929013663  W2        2302            0.0000000000
      6907      2303  TIP3      OH2             6.3454312142       16.5702342980        2.2308613663  W2        2303            0.0000000000
      6908      2303  TIP3      H1              5.9205412142       17.3800842980        1.9483213663  W2        2303            0.0000000000
      6909      2303  TIP3      H2              7.2497112142       16.6556442980        1.9288413663  W2        2303            0.0000000000
      6910      2304  TIP3      OH2            10.6565712142       17.9692342980        5.1902313663  W2        2304            0.0000000000
      6911      2304  TIP3      H1             10.8413212142       17.6358442980        6.0682613663  W2        2304            0.0000000000
      6912      2304  TIP3      H2             11.5030212142       18.2790942980        4.8681513663  W2        2304            0.0000000000
      6913      2305  TIP3      OH2            13.0016112142       19.2551242980        4.4343713663  W2        2305            0.0000000000
      6914      2305  TIP3      H1             13.6785012142       18.6223542980        4.1942913663  W2        2305            0.0000000000
      6915      2305  TIP3      H2             13.3234912142       19.6561742980        5.2417013663  W2        2305            0.0000000000
      6916      2306  TIP3      OH2            17.9189912142        1.8446742980        3.5138713663  W2        2306            0.0000000000
      6917      2306  TIP3      H1             17.1063412142        2.1697042980        3.1263413663  W2        2306            0.0000000000
      6918      2306  TIP3      H2             18.1518412142        1.0845242980        2.9807813663  W2        2306            0.0000000000
      6919      2307  TIP3      OH2             3.7471012142       19.8266242980        2.2783913663  W2        2307            0.0000000000
      6920      2307  TIP3      H1              3.0267412142       20.2667242980        1.8271613663  W2        2307            0.0000000000
      6921      2307  TIP3      H2              3.3815012142       19.5760942980        3.1267913663  W2        2307            0.0000000000
      6922      2308  TIP3      OH2             6.2143612142       19.4270142980        1.3081113663  W2        2308            0.0000000000
      6923      2308  TIP3      H1              5.3495812142       19.4988642980        1.7121213663  W2        2308            0.0000000000
      6924      2308  TIP3      H2              6.1592612142       19.9737442980        0.5243613663  W2        2308            0.0000000000
      6925      2309  TIP3      OH2            10.9249212142       19.3149042980        0.4837113663  W2        2309            0.0000000000
      6926      2309  TIP3      H1             10.4683212142       19.8438742980       -0.1704486337  W2        2309            0.0000000000
      6927      2309  TIP3      H2             11.0877212142       19.9180442980        1.2089413663  W2        2309            0.0000000000
      6928      2310  TIP3      OH2            13.2525512142       18.1928642980        1.4287413663  W2        2310            0.0000000000
      6929      2310  TIP3      H1             12.3479212142       18.3578842980        1.1629513663  W2        2310            0.0000000000
      6930      2310  TIP3      H2             13.6814112142       19.0460842980        1.3630813663  W2        2310            0.0000000000
      6931      2311  TIP3      OH2            15.8567412142       19.7627742980        1.7235213663  W2        2311            0.0000000000
      6932      2311  TIP3      H1             15.6749412142       20.6786642980        1.5130113663  W2        2311            0.0000000000
      6933      2311  TIP3      H2             16.0335212142       19.3524842980        0.8769813663  W2        2311            0.0000000000
      6934      2312  TIP3      OH2             3.1619112142       18.4498742980       -0.8114286337  W2        2312            0.0000000000
      6935      2312  TIP3      H1              3.1435112142       18.0243842980        0.0458013663  W2        2312            0.0000000000
      6936      2312  TIP3      H2              3.9667012142       18.1313742980       -1.2202086337  W2        2312            0.0000000000
      6937      2313  TIP3      OH2             5.3032212142       17.1597442980       -2.1564386337  W2        2313            0.0000000000
      6938      2313  TIP3      H1              5.0842912142       16.2434842980       -1.9868386337  W2        2313            0.0000000000
      6939      2313  TIP3      H2              6.1274412142       17.2997842980       -1.6902986337  W2        2313            0.0000000000
      6940      2314  TIP3      OH2             7.8404712142       17.6296742980       -1.3076386337  W2        2314            0.0000000000
      6941      2314  TIP3      H1              8.0530412142       16.7415742980       -1.5945486337  W2        2314            0.0000000000
      6942      2314  TIP3      H2              7.9049812142       17.5954442980       -0.3532386337  W2        2314            0.0000000000
      6943      2315  TIP3      OH2            11.3488412142        3.2937342980       -2.1633086337  W2        2315            0.0000000000
      6944      2315  TIP3      H1             10.6745212142        2.6642942980       -1.9077286337  W2        2315            0.0000000000
      6945      2315  TIP3      H2             11.9127612142        2.8096242980       -2.7665186337  W2        2315            0.0000000000
      6946      2316  TIP3      OH2            16.4915612142        1.4011342980       -2.0505986337  W2        2316            0.0000000000
      6947      2316  TIP3      H1             17.0953212142        1.9486742980       -2.5524986337  W2        2316            0.0000000000
      6948      2316  TIP3      H2             15.6217612142        1.7201742980       -2.2911886337  W2        2316            0.0000000000
      6949      2317  TIP3      OH2            18.2186012142        2.5400042980       -3.7175086337  W2        2317            0.0000000000
      6950      2317  TIP3      H1             18.8303512142        2.0255742980       -4.2441486337  W2        2317            0.0000000000
      6951      2317  TIP3      H2             18.6009412142        3.4172142980       -3.6940686337  W2        2317            0.0000000000
      6952      2318  TIP3      OH2             3.6755912142        1.9277642980       -4.3413186337  W2        2318            0.0000000000
      6953      2318  TIP3      H1              2.8985712142        1.6932542980       -4.8487286337  W2        2318            0.0000000000
      6954      2318  TIP3      H2              4.2059512142        1.1309742980       -4.3325186337  W2        2318            0.0000000000
      6955      2319  TIP3      OH2             2.5119312142        1.7255742980       -8.5377086337  W2        2319            0.0000000000
      6956      2319  TIP3      H1              2.9510012142        2.3366242980       -9.1293586337  W2        2319            0.0000000000
      6957      2319  TIP3      H2              1.8781712142        2.2639842980       -8.0637086337  W2        2319            0.0000000000
      6958      2320  TIP3      OH2             8.2548512142        1.8544742980       -4.5280086337  W2        2320            0.0000000000
      6959      2320  TIP3      H1              9.1291912142        2.2429042980       -4.5575786337  W2        2320            0.0000000000
      6960      2320  TIP3      H2              8.1189312142        1.6392542980       -3.6052886337  W2        2320            0.0000000000
      6961      2321  TIP3      OH2            13.8116912142        1.8844542980       -2.8788386337  W2        2321            0.0000000000
      6962      2321  TIP3      H1             13.8878512142        1.9796142980       -3.8282386337  W2        2321            0.0000000000
      6963      2321  TIP3      H2             13.5366112142        0.9767442980       -2.7499286337  W2        2321            0.0000000000
      6964      2322  TIP3      OH2            15.1649512142        1.9102342980       -7.1863386337  W2        2322            0.0000000000
      6965      2322  TIP3      H1             14.4620612142        2.5251542980       -7.3961986337  W2        2322            0.0000000000
      6966      2322  TIP3      H2             14.7200912142        1.0729042980       -7.0552486337  W2        2322            0.0000000000
      6967      2323  TIP3      OH2             2.4128812142       17.6737942980       -7.6401986337  W2        2323            0.0000000000
      6968      2323  TIP3      H1              1.7278712142       17.6356842980       -8.3076886337  W2        2323            0.0000000000
      6969      2323  TIP3      H2              2.4166012142       18.5865542980       -7.3519886337  W2        2323            0.0000000000
      6970      2324  TIP3      OH2             4.3728412142        3.6417242980      -10.0952986337  W2        2324            0.0000000000
      6971      2324  TIP3      H1              4.8641812142        3.0119642980      -10.6227486337  W2        2324            0.0000000000
      6972      2324  TIP3      H2              4.9964712142        3.9376642980       -9.4321786337  W2        2324            0.0000000000
      6973      2325  TIP3      OH2             9.3988512142        3.9348742980       -7.6382486337  W2        2325            0.0000000000
      6974      2325  TIP3      H1              9.5769812142        3.2881942980       -6.9553886337  W2        2325            0.0000000000
      6975      2325  TIP3      H2              9.3454712142        4.7686442980       -7.1711386337  W2        2325            0.0000000000
      6976      2326  TIP3      OH2            11.2772312142       18.8832842980       -9.2425786337  W2        2326            0.0000000000
      6977      2326  TIP3      H1             12.1432512142       19.2500242980       -9.4207586337  W2        2326            0.0000000000
      6978      2326  TIP3      H2             11.0305112142       18.4440842980      -10.0564986337  W2        2326            0.0000000000
      6979      2327  TIP3      OH2            17.9861912142       18.4463142980       -6.5634686337  W2        2327            0.0000000000
      6980      2327  TIP3      H1             17.7919012142       17.6985242980       -7.1285086337  W2        2327            0.0000000000
      6981      2327  TIP3      H2             17.9472012142       19.2043242980       -7.1466786337  W2        2327            0.0000000000
      6982      2328  TIP3      OH2             3.6333912142        2.4419542980        5.1763013663  W2        2328            0.0000000000
      6983      2328  TIP3      H1              3.2672112142        1.6762142980        5.6187713663  W2        2328            0.0000000000
      6984      2328  TIP3      H2              4.5462412142        2.4709742980        5.4628113663  W2        2328            0.0000000000
      6985      2329  TIP3      OH2             5.6064712142        1.7923942980        6.7120113663  W2        2329            0.0000000000
      6986      2329  TIP3      H1              6.5048312142        1.5184142980        6.5273513663  W2        2329            0.0000000000
      6987      2329  TIP3      H2              5.2197812142        1.0499942980        7.1762713663  W2        2329            0.0000000000
      6988      2330  TIP3      OH2             4.2310012142       18.5938742980      -10.6149886337  W2        2330            0.0000000000
      6989      2330  TIP3      H1              3.9634612142       18.8801642980       -9.7416786337  W2        2330            0.0000000000
      6990      2330  TIP3      H2              5.0022612142       18.0477942980      -10.4627386337  W2        2330            0.0000000000
      6991      2331  TIP3      OH2            14.0277012142        1.1249242980        6.8942913663  W2        2331            0.0000000000
      6992      2331  TIP3      H1             14.1044212142        0.6989942980        7.7480613663  W2        2331            0.0000000000
      6993      2331  TIP3      H2             14.9213612142        1.1383942980        6.5516413663  W2        2331            0.0000000000
      6994      2332  TIP3      OH2            17.2038112142       17.1975542980        5.5867113663  W2        2332            0.0000000000
      6995      2332  TIP3      H1             16.4220012142       17.0113542980        5.0667713663  W2        2332            0.0000000000
      6996      2332  TIP3      H2             17.1318012142       18.1269842980        5.8039613663  W2        2332            0.0000000000
      6997      2333  TIP3      OH2            31.6098512142       11.0839942980       -4.3825686337  W2        2333            0.0000000000
      6998      2333  TIP3      H1             31.6989612142       12.0278142980       -4.5148586337  W2        2333            0.0000000000
      6999      2333  TIP3      H2             30.9716112142       10.8086342980       -5.0406286337  W2        2333            0.0000000000
      7000      2334  TIP3      OH2            30.5429812142       10.3390642980       -0.9637486337  W2        2334            0.0000000000
      7001      2334  TIP3      H1             30.5047312142        9.6926942980       -0.2587886337  W2        2334            0.0000000000
      7002      2334  TIP3      H2             30.2206312142        9.8725042980       -1.7348786337  W2        2334            0.0000000000
      7003      2335  TIP3      OH2            22.9114812142        9.9532742980        0.6292413663  W2        2335            0.0000000000
      7004      2335  TIP3      H1             22.9526912142        9.3276042980        1.3524813663  W2        2335            0.0000000000
      7005      2335  TIP3      H2             23.6142512142       10.5771342980        0.8112813663  W2        2335            0.0000000000
      7006      2336  TIP3      OH2            34.2490012142       13.2781042980       -2.6622386337  W2        2336            0.0000000000
      7007      2336  TIP3      H1             33.8082712142       12.5577042980       -2.2116786337  W2        2336            0.0000000000
      7008      2336  TIP3      H2             34.2359712142       13.9988242980       -2.0324686337  W2        2336            0.0000000000
      7009      2337  TIP3      OH2            23.8347912142       14.4031642980       -0.8358486337  W2        2337            0.0000000000
      7010      2337  TIP3      H1             23.4653112142       13.6012142980       -1.2054186337  W2        2337            0.0000000000
      7011      2337  TIP3      H2             24.7759012142       14.2346542980       -0.7895086337  W2        2337            0.0000000000
      7012      2338  TIP3      OH2            20.4448412142        8.0634242980       -5.4429686337  W2        2338            0.0000000000
      7013      2338  TIP3      H1             19.9971812142        8.9092942980       -5.4613186337  W2        2338            0.0000000000
      7014      2338  TIP3      H2             19.8839612142        7.4838442980       -5.9584586337  W2        2338            0.0000000000
      7015      2339  TIP3      OH2            21.1554512142       10.2253842980       -3.3171686337  W2        2339            0.0000000000
      7016      2339  TIP3      H1             21.3688012142        9.4555442980       -2.7898686337  W2        2339            0.0000000000
      7017      2339  TIP3      H2             21.8932112142       10.3150542980       -3.9204086337  W2        2339            0.0000000000
      7018      2340  TIP3      OH2            31.3605512142       18.3822742980       -2.4501986337  W2        2340            0.0000000000
      7019      2340  TIP3      H1             31.9801912142       17.7057442980       -2.7232786337  W2        2340            0.0000000000
      7020      2340  TIP3      H2             31.1522912142       18.1643542980       -1.5417086337  W2        2340            0.0000000000
      7021      2341  TIP3      OH2            28.9324212142       12.7712042980       -0.5576486337  W2        2341            0.0000000000
      7022      2341  TIP3      H1             29.2362112142       12.0853442980       -1.1522386337  W2        2341            0.0000000000
      7023      2341  TIP3      H2             29.6538212142       12.8900742980        0.0601513663  W2        2341            0.0000000000
      7024      2342  TIP3      OH2            32.0731212142        7.1654442980       -0.2301686337  W2        2342            0.0000000000
      7025      2342  TIP3      H1             32.2157112142        6.2191442980       -0.2100086337  W2        2342            0.0000000000
      7026      2342  TIP3      H2             31.9670212142        7.3724242980       -1.1586786337  W2        2342            0.0000000000
      7027      2343  TIP3      OH2            25.2279512142        5.2670842980       -2.9576886337  W2        2343            0.0000000000
      7028      2343  TIP3      H1             25.2710612142        6.1269342980       -3.3760586337  W2        2343            0.0000000000
      7029      2343  TIP3      H2             24.7703612142        4.7145542980       -3.5913686337  W2        2343            0.0000000000
      7030      2344  TIP3      OH2            32.9502212142        5.3976442980       -4.5568586337  W2        2344            0.0000000000
      7031      2344  TIP3      H1             33.5966512142        5.0689642980       -3.9320986337  W2        2344            0.0000000000
      7032      2344  TIP3      H2             33.4601612142        5.9155442980       -5.1797186337  W2        2344            0.0000000000
      7033      2345  TIP3      OH2            21.8481012142        7.6636642980       -2.1955486337  W2        2345            0.0000000000
      7034      2345  TIP3      H1             22.5017612142        7.1138342980       -1.7635386337  W2        2345            0.0000000000
      7035      2345  TIP3      H2             21.8720312142        7.3895642980       -3.1123486337  W2        2345            0.0000000000
      7036      2346  TIP3      OH2            27.0045512142        9.2137942980       -2.9803986337  W2        2346            0.0000000000
      7037      2346  TIP3      H1             27.6206512142        8.6873342980       -2.4709986337  W2        2346            0.0000000000
      7038      2346  TIP3      H2             26.4184312142        8.5736642980       -3.3840386337  W2        2346            0.0000000000
      7039      2347  TIP3      OH2            24.0381412142        4.1849242980        1.1163913663  W2        2347            0.0000000000
      7040      2347  TIP3      H1             23.8193112142        4.7149842980        0.3499913663  W2        2347            0.0000000000
      7041      2347  TIP3      H2             23.3702312142        4.4114742980        1.7635313663  W2        2347            0.0000000000
      7042      2348  TIP3      OH2            31.4071212142       13.6850342980       -5.3396986337  W2        2348            0.0000000000
      7043      2348  TIP3      H1             31.1116312142       13.3622642980       -6.1910086337  W2        2348            0.0000000000
      7044      2348  TIP3      H2             31.0829012142       14.5847042980       -5.2984386337  W2        2348            0.0000000000
      7045      2349  TIP3      OH2            26.6072812142       11.8604942980        1.4037613663  W2        2349            0.0000000000
      7046      2349  TIP3      H1             25.8671912142       12.4586442980        1.5072813663  W2        2349            0.0000000000
      7047      2349  TIP3      H2             27.3212312142       12.4144542980        1.0881213663  W2        2349            0.0000000000
      7048      2350  TIP3      OH2            34.7140612142        4.6885742980       -2.5762686337  W2        2350            0.0000000000
      7049      2350  TIP3      H1             34.4988612142        3.9229142980       -2.0436686337  W2        2350            0.0000000000
      7050      2350  TIP3      H2             35.3698012142        5.1610342980       -2.0634186337  W2        2350            0.0000000000
      7051      2351  TIP3      OH2            23.6318712142        6.0771042980       -0.9313886337  W2        2351            0.0000000000
      7052      2351  TIP3      H1             24.2455012142        6.7098642980       -0.5581486337  W2        2351            0.0000000000
      7053      2351  TIP3      H2             24.1439412142        5.6046042980       -1.5876986337  W2        2351            0.0000000000
      7054      2352  TIP3      OH2            25.0147112142       13.8247942980        2.1909113663  W2        2352            0.0000000000
      7055      2352  TIP3      H1             25.0094712142       14.7041442980        1.8128413663  W2        2352            0.0000000000
      7056      2352  TIP3      H2             24.1611212142       13.7412042980        2.6159013663  W2        2352            0.0000000000
      7057      2353  TIP3      OH2            21.1358012142       13.4955842980       -7.0271586337  W2        2353            0.0000000000
      7058      2353  TIP3      H1             20.8638912142       13.7246842980       -7.9158686337  W2        2353            0.0000000000
      7059      2353  TIP3      H2             21.1813712142       14.3334642980       -6.5666286337  W2        2353            0.0000000000
      7060      2354  TIP3      OH2            34.7607712142       15.1171742980       -0.3143086337  W2        2354            0.0000000000
      7061      2354  TIP3      H1             33.8191412142       15.1755642980       -0.1526186337  W2        2354            0.0000000000
      7062      2354  TIP3      H2             35.0373812142       16.0232242980       -0.4513386337  W2        2354            0.0000000000
      7063      2355  TIP3      OH2            35.0614712142        3.4037042980        1.1030813663  W2        2355            0.0000000000
      7064      2355  TIP3      H1             34.3253912142        4.0144142980        1.0652113663  W2        2355            0.0000000000
      7065      2355  TIP3      H2             35.7448712142        3.8186042980        0.5767213663  W2        2355            0.0000000000
      7066      2356  TIP3      OH2            28.0646112142        1.4904342980       -1.4311186337  W2        2356            0.0000000000
      7067      2356  TIP3      H1             27.9470312142        0.5420342980       -1.4852886337  W2        2356            0.0000000000
      7068      2356  TIP3      H2             27.2096212142        1.8230442980       -1.1580086337  W2        2356            0.0000000000
      7069      2357  TIP3      OH2            33.0128912142       16.8985242980       -3.6891486337  W2        2357            0.0000000000
      7070      2357  TIP3      H1             33.4381212142       16.1913142980       -4.1741886337  W2        2357            0.0000000000
      7071      2357  TIP3      H2             33.3298912142       17.6997942980       -4.1059286337  W2        2357            0.0000000000
      7072      2358  TIP3      OH2            34.1725412142       14.7993742980       -5.1804886337  W2        2358            0.0000000000
      7073      2358  TIP3      H1             33.9150212142       14.1093842980       -5.7918986337  W2        2358            0.0000000000
      7074      2358  TIP3      H2             34.2436212142       14.3564942980       -4.3348986337  W2        2358            0.0000000000
      7075      2359  TIP3      OH2            35.8585612142       13.3660442980        3.2968613663  W2        2359            0.0000000000
      7076      2359  TIP3      H1             35.9981912142       12.7742942980        2.5575613663  W2        2359            0.0000000000
      7077      2359  TIP3      H2             36.0258412142       14.2386342980        2.9407413663  W2        2359            0.0000000000
      7078      2360  TIP3      OH2            30.3311012142       10.3279942980       -6.9305386337  W2        2360            0.0000000000
      7079      2360  TIP3      H1             29.6196512142       10.8629642980       -7.2824886337  W2        2360            0.0000000000
      7080      2360  TIP3      H2             31.0220612142       10.3832042980       -7.5906486337  W2        2360            0.0000000000
      7081      2361  TIP3      OH2            30.3850212142        8.7854242980       -9.8920386337  W2        2361            0.0000000000
      7082      2361  TIP3      H1             31.0860112142        8.8081142980       -9.2406386337  W2        2361            0.0000000000
      7083      2361  TIP3      H2             30.6873112142        8.1573942980      -10.5481086337  W2        2361            0.0000000000
      7084      2362  TIP3      OH2            33.7368712142       10.5373242980       -5.9789486337  W2        2362            0.0000000000
      7085      2362  TIP3      H1             33.0049712142       10.7656942980       -5.4058886337  W2        2362            0.0000000000
      7086      2362  TIP3      H2             34.1840912142        9.8235942980       -5.5241986337  W2        2362            0.0000000000
      7087      2363  TIP3      OH2            33.6342212142        8.7115842980        3.0887513663  W2        2363            0.0000000000
      7088      2363  TIP3      H1             33.7141312142        9.4750242980        3.6606013663  W2        2363            0.0000000000
      7089      2363  TIP3      H2             33.0329912142        8.9908242980        2.3982613663  W2        2363            0.0000000000
      7090      2364  TIP3      OH2            25.3822412142       11.1679442980       -4.0964486337  W2        2364            0.0000000000
      7091      2364  TIP3      H1             25.0517612142       10.7972842980       -4.9147486337  W2        2364            0.0000000000
      7092      2364  TIP3      H2             25.9706512142       10.4973442980       -3.7496186337  W2        2364            0.0000000000
      7093      2365  TIP3      OH2            26.7489912142       14.5960042980       -1.4152286337  W2        2365            0.0000000000
      7094      2365  TIP3      H1             26.6541212142       14.0173142980       -2.1717686337  W2        2365            0.0000000000
      7095      2365  TIP3      H2             27.4783512142       14.2245742980       -0.9189486337  W2        2365            0.0000000000
      7096      2366  TIP3      OH2            25.7487912142        9.9365042980       -0.4629486337  W2        2366            0.0000000000
      7097      2366  TIP3      H1             26.3140412142       10.0579242980       -1.2258286337  W2        2366            0.0000000000
      7098      2366  TIP3      H2             26.0676812142       10.5740042980        0.1759013663  W2        2366            0.0000000000
      7099      2367  TIP3      OH2            32.0580112142       15.4396942980        0.2711013663  W2        2367            0.0000000000
      7100      2367  TIP3      H1             31.8176712142       16.1020042980        0.9190213663  W2        2367            0.0000000000
      7101      2367  TIP3      H2             31.8598312142       14.6052142980        0.6960613663  W2        2367            0.0000000000
      7102      2368  TIP3      OH2            26.6288612142       14.3357742980        4.2542413663  W2        2368            0.0000000000
      7103      2368  TIP3      H1             26.3176112142       15.1180942980        4.7095613663  W2        2368            0.0000000000
      7104      2368  TIP3      H2             25.9788812142       14.1826842980        3.5684413663  W2        2368            0.0000000000
      7105      2369  TIP3      OH2            32.6078212142        9.6996142980       -8.2938286337  W2        2369            0.0000000000
      7106      2369  TIP3      H1             33.1873712142        9.8496442980       -7.5469386337  W2        2369            0.0000000000
      7107      2369  TIP3      H2             33.0218212142       10.1703542980       -9.0171886337  W2        2369            0.0000000000
      7108      2370  TIP3      OH2            23.5488512142       10.5338842980        3.4828113663  W2        2370            0.0000000000
      7109      2370  TIP3      H1             23.6191712142       11.1845642980        4.1813113663  W2        2370            0.0000000000
      7110      2370  TIP3      H2             22.6580712142       10.6366342980        3.1479013663  W2        2370            0.0000000000
      7111      2371  TIP3      OH2            30.3343112142       16.4364642980       -4.8585186337  W2        2371            0.0000000000
      7112      2371  TIP3      H1             30.8080712142       16.7320942980       -4.0810986337  W2        2371            0.0000000000
      7113      2371  TIP3      H2             29.7712412142       17.1746242980       -5.0915586337  W2        2371            0.0000000000
      7114      2372  TIP3      OH2            24.8684512142       16.4072742980        5.0176213663  W2        2372            0.0000000000
      7115      2372  TIP3      H1             24.8759812142       16.2712442980        4.0701713663  W2        2372            0.0000000000
      7116      2372  TIP3      H2             23.9524912142       16.2900842980        5.2696213663  W2        2372            0.0000000000
      7117      2373  TIP3      OH2            36.3066612142        1.4496542980       -8.4808586337  W2        2373            0.0000000000
      7118      2373  TIP3      H1             35.4067312142        1.5885542980       -8.1857986337  W2        2373            0.0000000000
      7119      2373  TIP3      H2             36.5585012142        2.2811142980       -8.8826886337  W2        2373            0.0000000000
      7120      2374  TIP3      OH2            24.3725112142       10.2373742980       -6.5071686337  W2        2374            0.0000000000
      7121      2374  TIP3      H1             24.0806412142       11.0055442980       -6.9980386337  W2        2374            0.0000000000
      7122      2374  TIP3      H2             23.6980312142        9.5779942980       -6.6700286337  W2        2374            0.0000000000
      7123      2375  TIP3      OH2            20.4655212142       12.6002942980        2.3078113663  W2        2375            0.0000000000
      7124      2375  TIP3      H1             19.9643612142       12.5722342980        1.4927813663  W2        2375            0.0000000000
      7125      2375  TIP3      H2             20.4708912142       11.6946142980        2.6175413663  W2        2375            0.0000000000
      7126      2376  TIP3      OH2            20.2157912142       15.3806742980       -0.8081686337  W2        2376            0.0000000000
      7127      2376  TIP3      H1             21.1618512142       15.2363742980       -0.8272186337  W2        2376            0.0000000000
      7128      2376  TIP3      H2             20.1034212142       16.1649542980       -0.2710486337  W2        2376            0.0000000000
      7129      2377  TIP3      OH2            29.3920412142       15.6205642980        3.7503413663  W2        2377            0.0000000000
      7130      2377  TIP3      H1             29.4795012142       16.4470242980        4.2252513663  W2        2377            0.0000000000
      7131      2377  TIP3      H2             28.5285512142       15.2909442980        3.9992713663  W2        2377            0.0000000000
      7132      2378  TIP3      OH2            29.8066212142       19.3929342980       -6.4435986337  W2        2378            0.0000000000
      7133      2378  TIP3      H1             29.7312212142       19.2716542980       -7.3900786337  W2        2378            0.0000000000
      7134      2378  TIP3      H2             29.8394912142       20.3422042980       -6.3251386337  W2        2378            0.0000000000
      7135      2379  TIP3      OH2            23.4600012142       18.1816342980       -4.6626986337  W2        2379            0.0000000000
      7136      2379  TIP3      H1             23.6120412142       17.8336742980       -3.7840486337  W2        2379            0.0000000000
      7137      2379  TIP3      H2             22.6090412142       17.8253642980       -4.9179786337  W2        2379            0.0000000000
      7138      2380  TIP3      OH2            32.9082212142       18.5469542980       -9.4413586337  W2        2380            0.0000000000
      7139      2380  TIP3      H1             33.2830612142       17.8025642980       -9.9120986337  W2        2380            0.0000000000
      7140      2380  TIP3      H2             32.9125912142       18.2770142980       -8.5230286337  W2        2380            0.0000000000
      7141      2381  TIP3      OH2            32.5770312142       18.4726642980       -6.6921386337  W2        2381            0.0000000000
      7142      2381  TIP3      H1             31.6420112142       18.5728542980       -6.5134386337  W2        2381            0.0000000000
      7143      2381  TIP3      H2             32.8572212142       17.7632642980       -6.1138186337  W2        2381            0.0000000000
      7144      2382  TIP3      OH2            35.5656212142        7.5398942980        5.3544213663  W2        2382            0.0000000000
      7145      2382  TIP3      H1             35.1583012142        8.0204542980        4.6337513663  W2        2382            0.0000000000
      7146      2382  TIP3      H2             35.6061912142        6.6344942980        5.0465013663  W2        2382            0.0000000000
      7147      2383  TIP3      OH2            22.7145712142       13.9238342980        3.3510913663  W2        2383            0.0000000000
      7148      2383  TIP3      H1             22.9307012142       13.5623942980        4.2106713663  W2        2383            0.0000000000
      7149      2383  TIP3      H2             21.8590412142       13.5492142980        3.1414413663  W2        2383            0.0000000000
      7150      2384  TIP3      OH2            25.3333712142        2.3938842980       -0.6534886337  W2        2384            0.0000000000
      7151      2384  TIP3      H1             24.4717412142        2.3067042980       -1.0611986337  W2        2384            0.0000000000
      7152      2384  TIP3      H2             25.3109412142        3.2498942980       -0.2257286337  W2        2384            0.0000000000
      7153      2385  TIP3      OH2            29.9961512142        2.1159242980        2.7212113663  W2        2385            0.0000000000
      7154      2385  TIP3      H1             30.4164612142        1.7006342980        3.4742713663  W2        2385            0.0000000000
      7155      2385  TIP3      H2             29.0631112142        1.9372542980        2.8384113663  W2        2385            0.0000000000
      7156      2386  TIP3      OH2            33.3226412142        5.8714442980        3.5746613663  W2        2386            0.0000000000
      7157      2386  TIP3      H1             32.8085912142        5.7456642980        4.3722613663  W2        2386            0.0000000000
      7158      2386  TIP3      H2             33.1671112142        6.7837542980        3.3302813663  W2        2386            0.0000000000
      7159      2387  TIP3      OH2            34.0851312142       10.7324442980      -10.6640386337  W2        2387            0.0000000000
      7160      2387  TIP3      H1             34.1272112142       10.5098342980      -11.5940386337  W2        2387            0.0000000000
      7161      2387  TIP3      H2             34.9343412142       11.1311542980      -10.4740486337  W2        2387            0.0000000000
      7162      2388  TIP3      OH2            29.6578812142        4.6082642980       -9.9937086337  W2        2388            0.0000000000
      7163      2388  TIP3      H1             29.4043612142        4.6274242980       -9.0708986337  W2        2388            0.0000000000
      7164      2388  TIP3      H2             29.4010912142        3.7368042980      -10.2950886337  W2        2388            0.0000000000
      7165      2389  TIP3      OH2            25.4243812142        7.3593342980        0.4415313663  W2        2389            0.0000000000
      7166      2389  TIP3      H1             24.7825912142        7.3190642980        1.1505413663  W2        2389            0.0000000000
      7167      2389  TIP3      H2             25.4615812142        8.2858042980        0.2038313663  W2        2389            0.0000000000
      7168      2390  TIP3      OH2            25.4212912142        7.5803442980       -4.6464686337  W2        2390            0.0000000000
      7169      2390  TIP3      H1             24.5285812142        7.2399542980       -4.7050886337  W2        2390            0.0000000000
      7170      2390  TIP3      H2             25.8719512142        7.2034342980       -5.4021486337  W2        2390            0.0000000000
      7171      2391  TIP3      OH2            30.9568412142        7.9963742980       -5.8293886337  W2        2391            0.0000000000
      7172      2391  TIP3      H1             30.5478712142        8.8112342980       -6.1209086337  W2        2391            0.0000000000
      7173      2391  TIP3      H2             31.6774612142        7.8563842980       -6.4436786337  W2        2391            0.0000000000
      7174      2392  TIP3      OH2            30.0590012142        8.1720142980        5.6586813663  W2        2392            0.0000000000
      7175      2392  TIP3      H1             29.4963812142        7.4671742980        5.9794613663  W2        2392            0.0000000000
      7176      2392  TIP3      H2             30.8853412142        8.0512042980        6.1264413663  W2        2392            0.0000000000
      7177      2393  TIP3      OH2            31.9616112142        7.4424142980       -3.0154186337  W2        2393            0.0000000000
      7178      2393  TIP3      H1             31.7660612142        8.0480942980       -3.7303586337  W2        2393            0.0000000000
      7179      2393  TIP3      H2             32.1428712142        6.6089342980       -3.4497886337  W2        2393            0.0000000000
      7180      2394  TIP3      OH2            23.1744312142        7.6796842980        2.3087313663  W2        2394            0.0000000000
      7181      2394  TIP3      H1             23.1363712142        8.0798442980        3.1774413663  W2        2394            0.0000000000
      7182      2394  TIP3      H2             22.6835412142        6.8629242980        2.3990213663  W2        2394            0.0000000000
      7183      2395  TIP3      OH2            26.5401712142        5.0539142980      -10.8926686337  W2        2395            0.0000000000
      7184      2395  TIP3      H1             26.1092412142        4.6089242980      -10.1629286337  W2        2395            0.0000000000
      7185      2395  TIP3      H2             25.8220412142        5.4255442980      -11.4049186337  W2        2395            0.0000000000
      7186      2396  TIP3      OH2            19.7825112142        4.7958642980       -3.8407986337  W2        2396            0.0000000000
      7187      2396  TIP3      H1             20.4132812142        4.7670742980       -3.1214086337  W2        2396            0.0000000000
      7188      2396  TIP3      H2             20.2319412142        4.3707342980       -4.5712086337  W2        2396            0.0000000000
      7189      2397  TIP3      OH2            21.0567212142        5.5420642980       -8.4167586337  W2        2397            0.0000000000
      7190      2397  TIP3      H1             21.5308912142        6.1330542980       -9.0016686337  W2        2397            0.0000000000
      7191      2397  TIP3      H2             20.3393612142        6.0723542980       -8.0697486337  W2        2397            0.0000000000
      7192      2398  TIP3      OH2            31.2255312142        9.0805442980        1.6558213663  W2        2398            0.0000000000
      7193      2398  TIP3      H1             31.5490112142        8.4495142980        1.0128713663  W2        2398            0.0000000000
      7194      2398  TIP3      H2             30.7854612142        8.5457642980        2.3165613663  W2        2398            0.0000000000
      7195      2399  TIP3      OH2            28.0028212142        5.0080942980       -3.5600586337  W2        2399            0.0000000000
      7196      2399  TIP3      H1             27.0919312142        5.0647742980       -3.2714586337  W2        2399            0.0000000000
      7197      2399  TIP3      H2             28.5081112142        4.9476442980       -2.7493386337  W2        2399            0.0000000000
      7198      2400  TIP3      OH2            22.8311612142        6.6367242980       -4.7332986337  W2        2400            0.0000000000
      7199      2400  TIP3      H1             21.9419612142        6.7362742980       -5.0733386337  W2        2400            0.0000000000
      7200      2400  TIP3      H2             23.1276512142        5.7950242980       -5.0795086337  W2        2400            0.0000000000
      7201      2401  TIP3      OH2            26.4843412142        6.6369842980       -7.0768386337  W2        2401            0.0000000000
      7202      2401  TIP3      H1             27.4158912142        6.7659842980       -6.8985286337  W2        2401            0.0000000000
      7203      2401  TIP3      H2             26.2693712142        7.3064142980       -7.7263686337  W2        2401            0.0000000000
      7204      2402  TIP3      OH2            32.4080112142        4.2427242980       -0.2958786337  W2        2402            0.0000000000
      7205      2402  TIP3      H1             31.7311712142        4.3740342980        0.3680913663  W2        2402            0.0000000000
      7206      2402  TIP3      H2             31.9225012142        4.0876742980       -1.1061086337  W2        2402            0.0000000000
      7207      2403  TIP3      OH2            25.1583612142        7.8312042980       -9.5102286337  W2        2403            0.0000000000
      7208      2403  TIP3      H1             24.6158712142        7.4515842980      -10.2014686337  W2        2403            0.0000000000
      7209      2403  TIP3      H2             25.9918512142        8.0256742980       -9.9388186337  W2        2403            0.0000000000
      7210      2404  TIP3      OH2            35.6955212142       19.9142642980        5.9808813663  W2        2404            0.0000000000
      7211      2404  TIP3      H1             35.8953912142       20.3384542980        5.1464113663  W2        2404            0.0000000000
      7212      2404  TIP3      H2             36.3508912142       20.2580842980        6.5879213663  W2        2404            0.0000000000
      7213      2405  TIP3      OH2            23.2935012142       12.3883942980        5.5889313663  W2        2405            0.0000000000
      7214      2405  TIP3      H1             24.0257412142       12.6429842980        6.1503813663  W2        2405            0.0000000000
      7215      2405  TIP3      H2             22.5133712142       12.5929342980        6.1044713663  W2        2405            0.0000000000
      7216      2406  TIP3      OH2            29.3227912142        7.7953942980       -1.6730986337  W2        2406            0.0000000000
      7217      2406  TIP3      H1             29.8871312142        7.2490542980       -2.2201386337  W2        2406            0.0000000000
      7218      2406  TIP3      H2             29.1751312142        7.2735842980       -0.8843386337  W2        2406            0.0000000000
      7219      2407  TIP3      OH2            24.3247612142        3.9320042980       -5.2546186337  W2        2407            0.0000000000
      7220      2407  TIP3      H1             24.0077112142        3.0295342980       -5.2900786337  W2        2407            0.0000000000
      7221      2407  TIP3      H2             25.1061712142        3.9337442980       -5.8074586337  W2        2407            0.0000000000
      7222      2408  TIP3      OH2            27.9493812142        6.1840042980        0.7409413663  W2        2408            0.0000000000
      7223      2408  TIP3      H1             27.1139112142        6.6379542980        0.8511813663  W2        2408            0.0000000000
      7224      2408  TIP3      H2             28.4734412142        6.4598542980        1.4929313663  W2        2408            0.0000000000
      7225      2409  TIP3      OH2            28.4936412142       12.3967742980       -7.5744186337  W2        2409            0.0000000000
      7226      2409  TIP3      H1             27.7487412142       11.8893042980       -7.8966286337  W2        2409            0.0000000000
      7227      2409  TIP3      H2             28.3593612142       12.4455742980       -6.6279386337  W2        2409            0.0000000000
      7228      2410  TIP3      OH2            35.6435312142       11.5295942980        1.2123413663  W2        2410            0.0000000000
      7229      2410  TIP3      H1             36.2854112142       11.9862242980        0.6685613663  W2        2410            0.0000000000
      7230      2410  TIP3      H2             34.8132212142       11.6428342980        0.7497513663  W2        2410            0.0000000000
      7231      2411  TIP3      OH2            32.3913212142        5.2107642980       -9.3751586337  W2        2411            0.0000000000
      7232      2411  TIP3      H1             31.4527412142        5.3223242980       -9.5262786337  W2        2411            0.0000000000
      7233      2411  TIP3      H2             32.6885312142        6.0674542980       -9.0685886337  W2        2411            0.0000000000
      7234      2412  TIP3      OH2            30.0128512142       12.5811042980        3.6624913663  W2        2412            0.0000000000
      7235      2412  TIP3      H1             29.6674612142       12.1993442980        4.4694513663  W2        2412            0.0000000000
      7236      2412  TIP3      H2             29.8128612142       13.5144642980        3.7337813663  W2        2412            0.0000000000
      7237      2413  TIP3      OH2            33.1096712142        7.0780342980       -7.7144186337  W2        2413            0.0000000000
      7238      2413  TIP3      H1             34.0015712142        6.9405342980       -7.3952986337  W2        2413            0.0000000000
      7239      2413  TIP3      H2             33.1660312142        7.8686442980       -8.2510686337  W2        2413            0.0000000000
      7240      2414  TIP3      OH2            23.6184712142       11.6917742980       -1.8046286337  W2        2414            0.0000000000
      7241      2414  TIP3      H1             24.3631912142       11.6893442980       -2.4059786337  W2        2414            0.0000000000
      7242      2414  TIP3      H2             23.6961312142       10.8681542980       -1.3231186337  W2        2414            0.0000000000
      7243      2415  TIP3      OH2            30.6190512142       13.8552042980       -8.5489586337  W2        2415            0.0000000000
      7244      2415  TIP3      H1             30.3238912142       14.6819942980       -8.1674786337  W2        2415            0.0000000000
      7245      2415  TIP3      H2             29.9160512142       13.2358942980       -8.3528186337  W2        2415            0.0000000000
      7246      2416  TIP3      OH2            20.6264412142       10.1524642980        3.5102213663  W2        2416            0.0000000000
      7247      2416  TIP3      H1             20.8493012142        9.7344242980        4.3419713663  W2        2416            0.0000000000
      7248      2416  TIP3      H2             20.0244512142        9.5399642980        3.0875013663  W2        2416            0.0000000000
      7249      2417  TIP3      OH2            27.6429312142        9.6694542980        5.7231913663  W2        2417            0.0000000000
      7250      2417  TIP3      H1             27.3470112142        9.5037542980        4.8281013663  W2        2417            0.0000000000
      7251      2417  TIP3      H2             28.5744512142        9.4494842980        5.7125813663  W2        2417            0.0000000000
      7252      2418  TIP3      OH2            32.2632112142       15.0426542980        3.6129913663  W2        2418            0.0000000000
      7253      2418  TIP3      H1             31.3626412142       15.2259142980        3.3453813663  W2        2418            0.0000000000
      7254      2418  TIP3      H2             32.2973212142       15.3015842980        4.5338713663  W2        2418            0.0000000000
      7255      2419  TIP3      OH2            36.2897112142       16.0734842980       -7.5545386337  W2        2419            0.0000000000
      7256      2419  TIP3      H1             35.9168212142       15.2478642980       -7.2454786337  W2        2419            0.0000000000
      7257      2419  TIP3      H2             36.5670612142       15.8904242980       -8.4521986337  W2        2419            0.0000000000
      7258      2420  TIP3      OH2            33.4501012142       10.8814342980       -0.5333486337  W2        2420            0.0000000000
      7259      2420  TIP3      H1             32.5217912142       10.6496242980       -0.5604186337  W2        2420            0.0000000000
      7260      2420  TIP3      H2             33.9012112142       10.1044142980       -0.8634686337  W2        2420            0.0000000000
      7261      2421  TIP3      OH2            25.9934112142       15.2095942980       -4.4004786337  W2        2421            0.0000000000
      7262      2421  TIP3      H1             26.5206312142       15.9830342980       -4.6005986337  W2        2421            0.0000000000
      7263      2421  TIP3      H2             25.1132612142       15.4345142980       -4.7020786337  W2        2421            0.0000000000
      7264      2422  TIP3      OH2            21.7481812142       10.0720042980       -9.8132386337  W2        2422            0.0000000000
      7265      2422  TIP3      H1             22.3641712142       10.6987242980       -9.4337586337  W2        2422            0.0000000000
      7266      2422  TIP3      H2             20.8864412142       10.3879842980       -9.5415886337  W2        2422            0.0000000000
      7267      2423  TIP3      OH2            27.4206412142       12.8725842980       -4.8240486337  W2        2423            0.0000000000
      7268      2423  TIP3      H1             27.1796412142       13.7980242980       -4.7825186337  W2        2423            0.0000000000
      7269      2423  TIP3      H2             26.6800012142       12.4137142980       -4.4276586337  W2        2423            0.0000000000
      7270      2424  TIP3      OH2            27.9353012142       17.0219442980        1.4910613663  W2        2424            0.0000000000
      7271      2424  TIP3      H1             28.2977712142       17.8765042980        1.2575013663  W2        2424            0.0000000000
      7272      2424  TIP3      H2             28.4668212142       16.7301042980        2.2316913663  W2        2424            0.0000000000
      7273      2425  TIP3      OH2            26.1037212142       17.8943442980       -5.2788286337  W2        2425            0.0000000000
      7274      2425  TIP3      H1             25.1537712142       18.0000842980       -5.2274986337  W2        2425            0.0000000000
      7275      2425  TIP3      H2             26.4555312142       18.7150842980       -4.9340786337  W2        2425            0.0000000000
      7276      2426  TIP3      OH2            31.4793812142       13.1210142980        1.1916213663  W2        2426            0.0000000000
      7277      2426  TIP3      H1             31.0535112142       12.8931842980        2.0180213663  W2        2426            0.0000000000
      7278      2426  TIP3      H2             32.0599612142       12.3821942980        1.0091513663  W2        2426            0.0000000000
      7279      2427  TIP3      OH2            33.6822712142       14.0500642980       -9.7344786337  W2        2427            0.0000000000
      7280      2427  TIP3      H1             34.0355812142       13.6700442980       -8.9301286337  W2        2427            0.0000000000
      7281      2427  TIP3      H2             32.7336212142       13.9565442980       -9.6475486337  W2        2427            0.0000000000
      7282      2428  TIP3      OH2            34.1378012142       17.6729642980        3.6611013663  W2        2428            0.0000000000
      7283      2428  TIP3      H1             33.5361212142       17.1172542980        3.1657313663  W2        2428            0.0000000000
      7284      2428  TIP3      H2             34.4191712142       18.3399442980        3.0348413663  W2        2428            0.0000000000
      7285      2429  TIP3      OH2            22.2603912142        4.9057342980        3.0683613663  W2        2429            0.0000000000
      7286      2429  TIP3      H1             21.3676212142        5.2442742980        3.0007613663  W2        2429            0.0000000000
      7287      2429  TIP3      H2             22.1616712142        4.0503442980        3.4864413663  W2        2429            0.0000000000
      7288      2430  TIP3      OH2            34.5482012142       12.7222642980       -7.5076886337  W2        2430            0.0000000000
      7289      2430  TIP3      H1             34.2709612142       11.9941942980       -6.9515786337  W2        2430            0.0000000000
      7290      2430  TIP3      H2             35.4755012142       12.8414642980       -7.3024286337  W2        2430            0.0000000000
      7291      2431  TIP3      OH2            21.9115912142       16.7101742980        1.5033013663  W2        2431            0.0000000000
      7292      2431  TIP3      H1             22.1286212142       15.7784142980        1.4722713663  W2        2431            0.0000000000
      7293      2431  TIP3      H2             22.1579412142       16.9846742980        2.3865813663  W2        2431            0.0000000000
      7294      2432  TIP3      OH2            27.7730512142       15.1616742980      -11.2874786337  W2        2432            0.0000000000
      7295      2432  TIP3      H1             28.0120312142       14.4134842980      -11.8345886337  W2        2432            0.0000000000
      7296      2432  TIP3      H2             27.5041812142       14.7738442980      -10.4546986337  W2        2432            0.0000000000
      7297      2433  TIP3      OH2            26.7101112142       14.7320542980       -8.8312186337  W2        2433            0.0000000000
      7298      2433  TIP3      H1             26.8569112142       14.2120342980       -8.0411286337  W2        2433            0.0000000000
      7299      2433  TIP3      H2             26.7072812142       15.6388142980       -8.5246286337  W2        2433            0.0000000000
      7300      2434  TIP3      OH2            23.1632212142       11.9843842980       -8.3206786337  W2        2434            0.0000000000
      7301      2434  TIP3      H1             22.4771512142       12.3366342980       -7.7537086337  W2        2434            0.0000000000
      7302      2434  TIP3      H2             23.6860112142       12.7473442980       -8.5672486337  W2        2434            0.0000000000
      7303      2435  TIP3      OH2            30.9947312142        4.6467642980        1.9582213663  W2        2435            0.0000000000
      7304      2435  TIP3      H1             31.6935212142        4.7206342980        2.6081913663  W2        2435            0.0000000000
      7305      2435  TIP3      H2             30.6138712142        3.7822642980        2.1125113663  W2        2435            0.0000000000
      7306      2436  TIP3      OH2            31.7792212142        4.2989342980       -6.9445486337  W2        2436            0.0000000000
      7307      2436  TIP3      H1             31.9990512142        4.7704742980       -7.7480086337  W2        2436            0.0000000000
      7308      2436  TIP3      H2             32.3376212142        4.6931942980       -6.2744886337  W2        2436            0.0000000000
      7309      2437  TIP3      OH2            29.4478312142       16.4294142980       -8.0817986337  W2        2437            0.0000000000
      7310      2437  TIP3      H1             28.6314412142       16.9263842980       -8.0293686337  W2        2437            0.0000000000
      7311      2437  TIP3      H2             29.9774612142       16.9047642980       -8.7219186337  W2        2437            0.0000000000
      7312      2438  TIP3      OH2            28.9792112142        6.0268142980       -6.1097086337  W2        2438            0.0000000000
      7313      2438  TIP3      H1             29.7914712142        6.5311342980       -6.0635386337  W2        2438            0.0000000000
      7314      2438  TIP3      H2             28.7345112142        5.8817842980       -5.1957486337  W2        2438            0.0000000000
      7315      2439  TIP3      OH2            29.5148512142        7.0130842980        3.0749513663  W2        2439            0.0000000000
      7316      2439  TIP3      H1             29.6338812142        7.5866242980        3.8319913663  W2        2439            0.0000000000
      7317      2439  TIP3      H2             30.1703112142        6.3250242980        3.1897313663  W2        2439            0.0000000000
      7318      2440  TIP3      OH2            29.8628812142        3.1081142980       -5.1715986337  W2        2440            0.0000000000
      7319      2440  TIP3      H1             29.5162312142        3.7251742980       -4.5271686337  W2        2440            0.0000000000
      7320      2440  TIP3      H2             30.5215712142        3.6086842980       -5.6530486337  W2        2440            0.0000000000
      7321      2441  TIP3      OH2            26.7861412142       17.4731342980       -8.1001086337  W2        2441            0.0000000000
      7322      2441  TIP3      H1             26.9470112142       18.2728842980       -8.6008486337  W2        2441            0.0000000000
      7323      2441  TIP3      H2             26.5889212142       17.7797342980       -7.2150486337  W2        2441            0.0000000000
      7324      2442  TIP3      OH2            25.5205812142        4.1710542980       -8.4843486337  W2        2442            0.0000000000
      7325      2442  TIP3      H1             25.4370612142        5.0593642980       -8.1377086337  W2        2442            0.0000000000
      7326      2442  TIP3      H2             26.4106112142        3.9057242980       -8.2526686337  W2        2442            0.0000000000
      7327      2443  TIP3      OH2            35.7194312142        4.9201142980        3.9099213663  W2        2443            0.0000000000
      7328      2443  TIP3      H1             34.8030112142        5.1822842980        3.8222913663  W2        2443            0.0000000000
      7329      2443  TIP3      H2             36.0549312142        4.9170142980        3.0134513663  W2        2443            0.0000000000
      7330      2444  TIP3      OH2            34.3215312142        8.6702142980       -1.9943486337  W2        2444            0.0000000000
      7331      2444  TIP3      H1             33.5239712142        8.2552342980       -2.3228486337  W2        2444            0.0000000000
      7332      2444  TIP3      H2             34.7666412142        7.9795842980       -1.5032986337  W2        2444            0.0000000000
      7333      2445  TIP3      OH2            23.7791112142       14.5982742980       -9.4238986337  W2        2445            0.0000000000
      7334      2445  TIP3      H1             24.3712612142       15.2977542980       -9.1476586337  W2        2445            0.0000000000
      7335      2445  TIP3      H2             24.2384112142       14.1652242980      -10.1434386337  W2        2445            0.0000000000
      7336      2446  TIP3      OH2            22.0950312142        7.2625742980      -10.3079586337  W2        2446            0.0000000000
      7337      2446  TIP3      H1             22.0502912142        8.2018842980      -10.1292586337  W2        2446            0.0000000000
      7338      2446  TIP3      H2             21.2073512142        7.0270642980      -10.5777486337  W2        2446            0.0000000000
      7339      2447  TIP3      OH2            35.4079912142       17.9264642980       -0.3719986337  W2        2447            0.0000000000
      7340      2447  TIP3      H1             35.2524212142       18.6049042980       -1.0290686337  W2        2447            0.0000000000
      7341      2447  TIP3      H2             36.3406312142       17.9983942980       -0.1689386337  W2        2447            0.0000000000
      7342      2448  TIP3      OH2            22.9032312142        2.0442342980       -1.6348586337  W2        2448            0.0000000000
      7343      2448  TIP3      H1             22.6742112142        2.1034842980       -2.5623586337  W2        2448            0.0000000000
      7344      2448  TIP3      H2             22.4605712142        1.2527842980       -1.3284486337  W2        2448            0.0000000000
      7345      2449  TIP3      OH2            21.8335612142       15.9849442980       -5.4742786337  W2        2449            0.0000000000
      7346      2449  TIP3      H1             21.0014212142       16.4572142980       -5.4471386337  W2        2449            0.0000000000
      7347      2449  TIP3      H2             22.3793912142       16.4947042980       -6.0729686337  W2        2449            0.0000000000
      7348      2450  TIP3      OH2            21.1219312142       18.5973142980        5.8555213663  W2        2450            0.0000000000
      7349      2450  TIP3      H1             21.6621512142       18.3807142980        6.6154413663  W2        2450            0.0000000000
      7350      2450  TIP3      H2             20.6407312142       17.7919142980        5.6657713663  W2        2450            0.0000000000
      7351      2451  TIP3      OH2            25.7192712142       17.5167542980        7.4759413663  W2        2451            0.0000000000
      7352      2451  TIP3      H1             26.4869912142       17.0578342980        7.8168613663  W2        2451            0.0000000000
      7353      2451  TIP3      H2             25.6978912142       17.2907342980        6.5460613663  W2        2451            0.0000000000
      7354      2452  TIP3      OH2            29.8112312142       17.0248142980      -11.1488786337  W2        2452            0.0000000000
      7355      2452  TIP3      H1             29.1673312142       16.3936742980      -10.8275086337  W2        2452            0.0000000000
      7356      2452  TIP3      H2             30.5730612142       16.4936142980      -11.3805286337  W2        2452            0.0000000000
      7357      2453  TIP3      OH2            32.2961412142       15.8968642980        6.2050913663  W2        2453            0.0000000000
      7358      2453  TIP3      H1             31.9450912142       15.0401642980        6.4481313663  W2        2453            0.0000000000
      7359      2453  TIP3      H2             33.0224612142       16.0395342980        6.8119913663  W2        2453            0.0000000000
      7360      2454  TIP3      OH2            34.4155212142       16.8418042980      -10.9150786337  W2        2454            0.0000000000
      7361      2454  TIP3      H1             34.6985612142       16.0473242980      -10.4623886337  W2        2454            0.0000000000
      7362      2454  TIP3      H2             35.1553112142       17.0749042980      -11.4759686337  W2        2454            0.0000000000
      7363      2455  TIP3      OH2            21.0288812142       12.4077242980        6.8099513663  W2        2455            0.0000000000
      7364      2455  TIP3      H1             21.1729312142       11.5057942980        6.5236213663  W2        2455            0.0000000000
      7365      2455  TIP3      H2             20.2566212142       12.6939342980        6.3221813663  W2        2455            0.0000000000
      7366      2456  TIP3      OH2            25.3702512142       12.7512942980      -11.0575886337  W2        2456            0.0000000000
      7367      2456  TIP3      H1             25.4346612142       11.9572542980      -10.5269486337  W2        2456            0.0000000000
      7368      2456  TIP3      H2             26.0231712142       12.6325742980      -11.7473886337  W2        2456            0.0000000000
      7369      2457  TIP3      OH2            27.6844912142       12.3775342980        6.2425913663  W2        2457            0.0000000000
      7370      2457  TIP3      H1             27.3558712142       12.6483442980        5.3853313663  W2        2457            0.0000000000
      7371      2457  TIP3      H2             27.8363112142       11.4365142980        6.1550913663  W2        2457            0.0000000000
      7372      2458  TIP3      OH2            30.7225912142       13.7984642980      -11.3217886337  W2        2458            0.0000000000
      7373      2458  TIP3      H1             30.4540012142       13.9786742980      -10.4208986337  W2        2458            0.0000000000
      7374      2458  TIP3      H2             30.5161512142       12.8730842980      -11.4532086337  W2        2458            0.0000000000
      7375      2459  TIP3      OH2            33.4190112142       12.2932642980        3.6258213663  W2        2459            0.0000000000
      7376      2459  TIP3      H1             34.1644912142       12.8816342980        3.5062213663  W2        2459            0.0000000000
      7377      2459  TIP3      H2             32.6616912142       12.8752342980        3.6891313663  W2        2459            0.0000000000
      7378      2460  TIP3      OH2            21.8615312142        9.6080542980        6.2298813663  W2        2460            0.0000000000
      7379      2460  TIP3      H1             22.2696512142        8.7507142980        6.1089413663  W2        2460            0.0000000000
      7380      2460  TIP3      H2             21.6012912142        9.6221842980        7.1509113663  W2        2460            0.0000000000
      7381      2461  TIP3      OH2            26.5196312142       10.7239142980       -8.7517886337  W2        2461            0.0000000000
      7382      2461  TIP3      H1             26.0598312142       10.2397442980       -8.0659386337  W2        2461            0.0000000000
      7383      2461  TIP3      H2             26.7745012142       10.0554542980       -9.3877386337  W2        2461            0.0000000000
      7384      2462  TIP3      OH2            25.8085612142        8.6166242980        3.6041713663  W2        2462            0.0000000000
      7385      2462  TIP3      H1             25.1901712142        9.2912842980        3.8846413663  W2        2462            0.0000000000
      7386      2462  TIP3      H2             26.1526812142        8.9380142980        2.7707913663  W2        2462            0.0000000000
      7387      2463  TIP3      OH2            27.5906712142        8.9670942980      -10.4894686337  W2        2463            0.0000000000
      7388      2463  TIP3      H1             27.4101712142        8.8122142980      -11.4166386337  W2        2463            0.0000000000
      7389      2463  TIP3      H2             28.5407212142        9.0749642980      -10.4446786337  W2        2463            0.0000000000
      7390      2464  TIP3      OH2            30.8283812142       11.0881542980        6.8816513663  W2        2464            0.0000000000
      7391      2464  TIP3      H1             31.7815012142       11.1720642980        6.8542513663  W2        2464            0.0000000000
      7392      2464  TIP3      H2             30.6678412142       10.3763342980        7.5011413663  W2        2464            0.0000000000
      7393      2465  TIP3      OH2            26.1479312142        5.9717042980        4.6864813663  W2        2465            0.0000000000
      7394      2465  TIP3      H1             26.2980212142        5.2428342980        4.0844513663  W2        2465            0.0000000000
      7395      2465  TIP3      H2             26.1501712142        6.7488742980        4.1277013663  W2        2465            0.0000000000
      7396      2466  TIP3      OH2            26.5605012142        4.3412842980        2.1792213663  W2        2466            0.0000000000
      7397      2466  TIP3      H1             27.0962512142        4.7929542980        1.5271513663  W2        2466            0.0000000000
      7398      2466  TIP3      H2             25.7084612142        4.2332642980        1.7566313663  W2        2466            0.0000000000
      7399      2467  TIP3      OH2            28.1423412142        9.7809042980        2.4187413663  W2        2467            0.0000000000
      7400      2467  TIP3      H1             28.8928212142        9.6246542980        1.8455213663  W2        2467            0.0000000000
      7401      2467  TIP3      H2             27.8031712142       10.6325642980        2.1432913663  W2        2467            0.0000000000
      7402      2468  TIP3      OH2            32.5579612142        7.5960842980        7.4472713663  W2        2468            0.0000000000
      7403      2468  TIP3      H1             32.7500912142        6.6650242980        7.3357213663  W2        2468            0.0000000000
      7404      2468  TIP3      H2             33.4155912142        8.0210342980        7.4368113663  W2        2468            0.0000000000
      7405      2469  TIP3      OH2            33.8746812142       10.3846042980        5.5245413663  W2        2469            0.0000000000
      7406      2469  TIP3      H1             33.5931812142       11.0940642980        4.9469213663  W2        2469            0.0000000000
      7407      2469  TIP3      H2             34.8171112142       10.3119042980        5.3736613663  W2        2469            0.0000000000
      7408      2470  TIP3      OH2            24.6265612142        7.1700542980        6.5980413663  W2        2470            0.0000000000
      7409      2470  TIP3      H1             23.8594612142        6.6375342980        6.3878013663  W2        2470            0.0000000000
      7410      2470  TIP3      H2             25.3054612142        6.8600942980        5.9986713663  W2        2470            0.0000000000
      7411      2471  TIP3      OH2            27.3660512142        1.7978542980        2.6105813663  W2        2471            0.0000000000
      7412      2471  TIP3      H1             27.2680112142        2.7441742980        2.5052013663  W2        2471            0.0000000000
      7413      2471  TIP3      H2             26.6236712142        1.4252342980        2.1349313663  W2        2471            0.0000000000
      7414      2472  TIP3      OH2            28.6301012142        6.1193942980        6.1744213663  W2        2472            0.0000000000
      7415      2472  TIP3      H1             28.3946412142        5.9000642980        7.0759113663  W2        2472            0.0000000000
      7416      2472  TIP3      H2             27.8467912142        5.9125142980        5.6646713663  W2        2472            0.0000000000
      7417      2473  TIP3      OH2            31.3457612142        5.2467442980        5.2497713663  W2        2473            0.0000000000
      7418      2473  TIP3      H1             30.3983012142        5.2787142980        5.3821013663  W2        2473            0.0000000000
      7419      2473  TIP3      H2             31.6584312142        4.6214542980        5.9035913663  W2        2473            0.0000000000
      7420      2474  TIP3      OH2            32.9799112142        3.8808542980        7.2549613663  W2        2474            0.0000000000
      7421      2474  TIP3      H1             32.8830912142        2.9285842980        7.2491513663  W2        2474            0.0000000000
      7422      2474  TIP3      H2             32.6582212142        4.1495342980        8.1155113663  W2        2474            0.0000000000
      7423      2475  TIP3      OH2            22.8068412142        5.0904342980        6.3025113663  W2        2475            0.0000000000
      7424      2475  TIP3      H1             23.0185812142        4.3840442980        5.6922613663  W2        2475            0.0000000000
      7425      2475  TIP3      H2             22.6955912142        4.6530342980        7.1466313663  W2        2475            0.0000000000
      7426      2476  TIP3      OH2            27.5878612142        1.0915942980        5.2818613663  W2        2476            0.0000000000
      7427      2476  TIP3      H1             28.2997012142        0.4518142980        5.2677713663  W2        2476            0.0000000000
      7428      2476  TIP3      H2             27.4869012142        1.3584242980        4.3681713663  W2        2476            0.0000000000
      7429      2477  TIP3      OH2            27.9416112142        2.7744342980        7.3354913663  W2        2477            0.0000000000
      7430      2477  TIP3      H1             27.8098312142        2.2988142980        6.5153413663  W2        2477            0.0000000000
      7431      2477  TIP3      H2             27.3423512142        3.5187942980        7.2802013663  W2        2477            0.0000000000
      7432      2478  TIP3      OH2            27.4878412142       19.6574642980       -9.4881086337  W2        2478            0.0000000000
      7433      2478  TIP3      H1             28.4209112142       19.8153342980       -9.3442686337  W2        2478            0.0000000000
      7434      2478  TIP3      H2             27.2237212142       20.3327642980      -10.1129586337  W2        2478            0.0000000000
      7435      2479  TIP3      OH2            21.0563312142       14.2938442980      -10.0052986337  W2        2479            0.0000000000
      7436      2479  TIP3      H1             21.9702512142       14.3727342980       -9.7319086337  W2        2479            0.0000000000
      7437      2479  TIP3      H2             21.0636412142       13.6068042980      -10.6717386337  W2        2479            0.0000000000
      7438      2480  TIP3      OH2            19.7053912142       19.6866942980       -4.9279086337  W2        2480            0.0000000000
      7439      2480  TIP3      H1             19.0581012142       19.2248642980       -5.4607886337  W2        2480            0.0000000000
      7440      2480  TIP3      H2             20.0598512142       19.0150242980       -4.3452886337  W2        2480            0.0000000000
      7441      2481  TIP3      OH2            20.5753112142       17.7673942980       -3.1232886337  W2        2481            0.0000000000
      7442      2481  TIP3      H1             20.2409912142       16.8871242980       -2.9512686337  W2        2481            0.0000000000
      7443      2481  TIP3      H2             20.7975512142       18.1128942980       -2.2587286337  W2        2481            0.0000000000
      7444      2482  TIP3      OH2            36.1378112142       13.9339542980        7.4171313663  W2        2482            0.0000000000
      7445      2482  TIP3      H1             35.2719212142       13.8289242980        7.8113613663  W2        2482            0.0000000000
      7446      2482  TIP3      H2             36.5144012142       14.6922842980        7.8636013663  W2        2482            0.0000000000
      7447      2483  TIP3      OH2            36.0786912142       15.9065642980        2.0095513663  W2        2483            0.0000000000
      7448      2483  TIP3      H1             35.4312212142       16.2317142980        2.6350713663  W2        2483            0.0000000000
      7449      2483  TIP3      H2             35.5610912142       15.4663342980        1.3353813663  W2        2483            0.0000000000
      7450      2484  TIP3      OH2            36.4505512142        7.3844742980      -10.3032086337  W2        2484            0.0000000000
      7451      2484  TIP3      H1             36.5469912142        8.0511742980      -10.9832386337  W2        2484            0.0000000000
      7452      2484  TIP3      H2             36.3105112142        6.5691042980      -10.7846586337  W2        2484            0.0000000000
      7453      2485  TIP3      OH2            35.6200212142        8.7647142980       -4.6821786337  W2        2485            0.0000000000
      7454      2485  TIP3      H1             35.4699012142        7.8195742980       -4.7023986337  W2        2485            0.0000000000
      7455      2485  TIP3      H2             35.2664712142        9.0458542980       -3.8382686337  W2        2485            0.0000000000
      7456      2486  TIP3      OH2            20.6552612142       10.8429342980       -0.6717986337  W2        2486            0.0000000000
      7457      2486  TIP3      H1             20.8395512142       10.7611042980       -1.6075086337  W2        2486            0.0000000000
      7458      2486  TIP3      H2             21.5045512142       10.7186342980       -0.2481586337  W2        2486            0.0000000000
      7459      2487  TIP3      OH2            36.4763112142       10.7350442980        4.9566513663  W2        2487            0.0000000000
      7460      2487  TIP3      H1             37.0590412142       10.0002742980        5.1483713663  W2        2487            0.0000000000
      7461      2487  TIP3      H2             37.0402412142       11.5070742980        5.0032313663  W2        2487            0.0000000000
      7462      2488  TIP3      OH2            35.6979312142        4.7924542980      -11.1856586337  W2        2488            0.0000000000
      7463      2488  TIP3      H1             36.3085112142        4.4211342980      -10.5488386337  W2        2488            0.0000000000
      7464      2488  TIP3      H2             34.8610812142        4.3711442980      -10.9896586337  W2        2488            0.0000000000
      7465      2489  TIP3      OH2            35.3305012142        6.3472942980       -6.2196686337  W2        2489            0.0000000000
      7466      2489  TIP3      H1             35.6102112142        5.4403342980       -6.0954986337  W2        2489            0.0000000000
      7467      2489  TIP3      H2             36.0896712142        6.7814442980       -6.6087486337  W2        2489            0.0000000000
      7468      2490  TIP3      OH2            35.9423312142        6.9290342980       -0.7837786337  W2        2490            0.0000000000
      7469      2490  TIP3      H1             36.8751312142        7.1410242980       -0.8181786337  W2        2490            0.0000000000
      7470      2490  TIP3      H2             35.7070812142        7.0302442980        0.1385213663  W2        2490            0.0000000000
      7471      2491  TIP3      OH2            35.9715212142        7.6655642980        1.9921613663  W2        2491            0.0000000000
      7472      2491  TIP3      H1             35.1286512142        7.9336042980        2.3581413663  W2        2491            0.0000000000
      7473      2491  TIP3      H2             36.4139512142        8.4877542980        1.7812713663  W2        2491            0.0000000000
      7474      2492  TIP3      OH2            20.2527412142        6.1134342980        5.4690813663  W2        2492            0.0000000000
      7475      2492  TIP3      H1             21.1722312142        5.9912642980        5.7053913663  W2        2492            0.0000000000
      7476      2492  TIP3      H2             19.8031912142        5.3634042980        5.8584313663  W2        2492            0.0000000000
      7477      2493  TIP3      OH2            35.9439812142        3.6102242980       -6.1714686337  W2        2493            0.0000000000
      7478      2493  TIP3      H1             36.1264812142        3.1613742980       -5.3459686337  W2        2493            0.0000000000
      7479      2493  TIP3      H2             35.3442712142        3.0256642980       -6.6350086337  W2        2493            0.0000000000
      7480      2494  TIP3      OH2            21.4739912142        4.4255942980       -1.6396286337  W2        2494            0.0000000000
      7481      2494  TIP3      H1             21.9191512142        3.6338442980       -1.3376586337  W2        2494            0.0000000000
      7482      2494  TIP3      H2             21.9402912142        5.1421142980       -1.2090686337  W2        2494            0.0000000000
      7483      2495  TIP3      OH2            19.7780212142        7.4248942980       -0.5706086337  W2        2495            0.0000000000
      7484      2495  TIP3      H1             20.2700012142        7.2039442980       -1.3614086337  W2        2495            0.0000000000
      7485      2495  TIP3      H2             20.1401112142        8.2652342980       -0.2896586337  W2        2495            0.0000000000
      7486      2496  TIP3      OH2            20.0916712142        3.6828042980       -6.5163686337  W2        2496            0.0000000000
      7487      2496  TIP3      H1             19.1665112142        3.8914642980       -6.6458186337  W2        2496            0.0000000000
      7488      2496  TIP3      H2             20.5456612142        4.1668842980       -7.2061386337  W2        2496            0.0000000000
      7489      2497  TIP3      OH2            34.8623912142       18.6669742980       -4.5706286337  W2        2497            0.0000000000
      7490      2497  TIP3      H1             35.5146812142       18.3191842980       -5.1787186337  W2        2497            0.0000000000
      7491      2497  TIP3      H2             35.3727712142       19.1552942980       -3.9246586337  W2        2497            0.0000000000
      7492      2498  TIP3      OH2            20.0552112142        2.4207042980        1.8278813663  W2        2498            0.0000000000
      7493      2498  TIP3      H1             19.3902612142        2.1747342980        2.4709713663  W2        2498            0.0000000000
      7494      2498  TIP3      H2             19.6123412142        3.0427442980        1.2506813663  W2        2498            0.0000000000
      7495      2499  TIP3      OH2            22.2471412142       15.5961142980        5.9724613663  W2        2499            0.0000000000
      7496      2499  TIP3      H1             21.4263912142       15.7707642980        5.5119313663  W2        2499            0.0000000000
      7497      2499  TIP3      H2             21.9949212142       15.5225842980        6.8929013663  W2        2499            0.0000000000
      7498      2500  TIP3      OH2            25.2014312142       16.5702342980        2.2308613663  W2        2500            0.0000000000
      7499      2500  TIP3      H1             24.7765412142       17.3800842980        1.9483213663  W2        2500            0.0000000000
      7500      2500  TIP3      H2             26.1057112142       16.6556442980        1.9288413663  W2        2500            0.0000000000
      7501      2501  TIP3      OH2            29.5125712142       17.9692342980        5.1902313663  W2        2501            0.0000000000
      7502      2501  TIP3      H1             29.6973212142       17.6358442980        6.0682613663  W2        2501            0.0000000000
      7503      2501  TIP3      H2             30.3590212142       18.2790942980        4.8681513663  W2        2501            0.0000000000
      7504      2502  TIP3      OH2            31.8576112142       19.2551242980        4.4343713663  W2        2502            0.0000000000
      7505      2502  TIP3      H1             32.5345012142       18.6223542980        4.1942913663  W2        2502            0.0000000000
      7506      2502  TIP3      H2             32.1794912142       19.6561742980        5.2417013663  W2        2502            0.0000000000
      7507      2503  TIP3      OH2            22.6031012142       19.8266242980        2.2783913663  W2        2503            0.0000000000
      7508      2503  TIP3      H1             21.8827412142       20.2667242980        1.8271613663  W2        2503            0.0000000000
      7509      2503  TIP3      H2             22.2375012142       19.5760942980        3.1267913663  W2        2503            0.0000000000
      7510      2504  TIP3      OH2            25.0703612142       19.4270142980        1.3081113663  W2        2504            0.0000000000
      7511      2504  TIP3      H1             24.2055812142       19.4988642980        1.7121213663  W2        2504            0.0000000000
      7512      2504  TIP3      H2             25.0152612142       19.9737442980        0.5243613663  W2        2504            0.0000000000
      7513      2505  TIP3      OH2            29.7809212142       19.3149042980        0.4837113663  W2        2505            0.0000000000
      7514      2505  TIP3      H1             29.3243212142       19.8438742980       -0.1704486337  W2        2505            0.0000000000
      7515      2505  TIP3      H2             29.9437212142       19.9180442980        1.2089413663  W2        2505            0.0000000000
      7516      2506  TIP3      OH2            32.1085512142       18.1928642980        1.4287413663  W2        2506            0.0000000000
      7517      2506  TIP3      H1             31.2039212142       18.3578842980        1.1629513663  W2        2506            0.0000000000
      7518      2506  TIP3      H2             32.5374112142       19.0460842980        1.3630813663  W2        2506            0.0000000000
      7519      2507  TIP3      OH2            34.7127412142       19.7627742980        1.7235213663  W2        2507            0.0000000000
      7520      2507  TIP3      H1             34.5309412142       20.6786642980        1.5130113663  W2        2507            0.0000000000
      7521      2507  TIP3      H2             34.8895212142       19.3524842980        0.8769813663  W2        2507            0.0000000000
      7522      2508  TIP3      OH2            22.0179112142       18.4498742980       -0.8114286337  W2        2508            0.0000000000
      7523      2508  TIP3      H1             21.9995112142       18.0243842980        0.0458013663  W2        2508            0.0000000000
      7524      2508  TIP3      H2             22.8227012142       18.1313742980       -1.2202086337  W2        2508            0.0000000000
      7525      2509  TIP3      OH2            24.1592212142       17.1597442980       -2.1564386337  W2        2509            0.0000000000
      7526      2509  TIP3      H1             23.9402912142       16.2434842980       -1.9868386337  W2        2509            0.0000000000
      7527      2509  TIP3      H2             24.9834412142       17.2997842980       -1.6902986337  W2        2509            0.0000000000
      7528      2510  TIP3      OH2            26.6964712142       17.6296742980       -1.3076386337  W2        2510            0.0000000000
      7529      2510  TIP3      H1             26.9090412142       16.7415742980       -1.5945486337  W2        2510            0.0000000000
      7530      2510  TIP3      H2             26.7609812142       17.5954442980       -0.3532386337  W2        2510            0.0000000000
      7531      2511  TIP3      OH2            30.2048412142        3.2937342980       -2.1633086337  W2        2511            0.0000000000
      7532      2511  TIP3      H1             29.5305212142        2.6642942980       -1.9077286337  W2        2511            0.0000000000
      7533      2511  TIP3      H2             30.7687612142        2.8096242980       -2.7665186337  W2        2511            0.0000000000
      7534      2512  TIP3      OH2            35.3475612142        1.4011342980       -2.0505986337  W2        2512            0.0000000000
      7535      2512  TIP3      H1             35.9513212142        1.9486742980       -2.5524986337  W2        2512            0.0000000000
      7536      2512  TIP3      H2             34.4777612142        1.7201742980       -2.2911886337  W2        2512            0.0000000000
      7537      2513  TIP3      OH2            22.5315912142        1.9277642980       -4.3413186337  W2        2513            0.0000000000
      7538      2513  TIP3      H1             21.7545712142        1.6932542980       -4.8487286337  W2        2513            0.0000000000
      7539      2513  TIP3      H2             23.0619512142        1.1309742980       -4.3325186337  W2        2513            0.0000000000
      7540      2514  TIP3      OH2            21.3679312142        1.7255742980       -8.5377086337  W2        2514            0.0000000000
      7541      2514  TIP3      H1             21.8070012142        2.3366242980       -9.1293586337  W2        2514            0.0000000000
      7542      2514  TIP3      H2             20.7341712142        2.2639842980       -8.0637086337  W2        2514            0.0000000000
      7543      2515  TIP3      OH2            27.1108512142        1.8544742980       -4.5280086337  W2        2515            0.0000000000
      7544      2515  TIP3      H1             27.9851912142        2.2429042980       -4.5575786337  W2        2515            0.0000000000
      7545      2515  TIP3      H2             26.9749312142        1.6392542980       -3.6052886337  W2        2515            0.0000000000
      7546      2516  TIP3      OH2            32.6676912142        1.8844542980       -2.8788386337  W2        2516            0.0000000000
      7547      2516  TIP3      H1             32.7438512142        1.9796142980       -3.8282386337  W2        2516            0.0000000000
      7548      2516  TIP3      H2             32.3926112142        0.9767442980       -2.7499286337  W2        2516            0.0000000000
      7549      2517  TIP3      OH2            34.0209512142        1.9102342980       -7.1863386337  W2        2517            0.0000000000
      7550      2517  TIP3      H1             33.3180612142        2.5251542980       -7.3961986337  W2        2517            0.0000000000
      7551      2517  TIP3      H2             33.5760912142        1.0729042980       -7.0552486337  W2        2517            0.0000000000
      7552      2518  TIP3      OH2            21.2688812142       17.6737942980       -7.6401986337  W2        2518            0.0000000000
      7553      2518  TIP3      H1             20.5838712142       17.6356842980       -8.3076886337  W2        2518            0.0000000000
      7554      2518  TIP3      H2             21.2726012142       18.5865542980       -7.3519886337  W2        2518            0.0000000000
      7555      2519  TIP3      OH2            23.2288412142        3.6417242980      -10.0952986337  W2        2519            0.0000000000
      7556      2519  TIP3      H1             23.7201812142        3.0119642980      -10.6227486337  W2        2519            0.0000000000
      7557      2519  TIP3      H2             23.8524712142        3.9376642980       -9.4321786337  W2        2519            0.0000000000
      7558      2520  TIP3      OH2            28.2548512142        3.9348742980       -7.6382486337  W2        2520            0.0000000000
      7559      2520  TIP3      H1             28.4329812142        3.2881942980       -6.9553886337  W2        2520            0.0000000000
      7560      2520  TIP3      H2             28.2014712142        4.7686442980       -7.1711386337  W2        2520            0.0000000000
      7561      2521  TIP3      OH2            30.1332312142       18.8832842980       -9.2425786337  W2        2521            0.0000000000
      7562      2521  TIP3      H1             30.9992512142       19.2500242980       -9.4207586337  W2        2521            0.0000000000
      7563      2521  TIP3      H2             29.8865112142       18.4440842980      -10.0564986337  W2        2521            0.0000000000
      7564      2522  TIP3      OH2            22.4893912142        2.4419542980        5.1763013663  W2        2522            0.0000000000
      7565      2522  TIP3      H1             22.1232112142        1.6762142980        5.6187713663  W2        2522            0.0000000000
      7566      2522  TIP3      H2             23.4022412142        2.4709742980        5.4628113663  W2        2522            0.0000000000
      7567      2523  TIP3      OH2            24.4624712142        1.7923942980        6.7120113663  W2        2523            0.0000000000
      7568      2523  TIP3      H1             25.3608312142        1.5184142980        6.5273513663  W2        2523            0.0000000000
      7569      2523  TIP3      H2             24.0757812142        1.0499942980        7.1762713663  W2        2523            0.0000000000
      7570      2524  TIP3      OH2            23.0870012142       18.5938742980      -10.6149886337  W2        2524            0.0000000000
      7571      2524  TIP3      H1             22.8194612142       18.8801642980       -9.7416786337  W2        2524            0.0000000000
      7572      2524  TIP3      H2             23.8582612142       18.0477942980      -10.4627386337  W2        2524            0.0000000000
      7573      2525  TIP3      OH2            32.8837012142        1.1249242980        6.8942913663  W2        2525            0.0000000000
      7574      2525  TIP3      H1             32.9604212142        0.6989942980        7.7480613663  W2        2525            0.0000000000
      7575      2525  TIP3      H2             33.7773612142        1.1383942980        6.5516413663  W2        2525            0.0000000000
      7576      2526  TIP3      OH2            36.0598112142       17.1975542980        5.5867113663  W2        2526            0.0000000000
      7577      2526  TIP3      H1             35.2780012142       17.0113542980        5.0667713663  W2        2526            0.0000000000
      7578      2526  TIP3      H2             35.9878012142       18.1269842980        5.8039613663  W2        2526            0.0000000000
      7579      2527  TIP3      OH2           -24.9581487858       29.9399942980       -4.3825686337  W2        2527            0.0000000000
      7580      2527  TIP3      H1            -24.8690387858       30.8838142980       -4.5148586337  W2        2527            0.0000000000
      7581      2527  TIP3      H2            -25.5963887858       29.6646342980       -5.0406286337  W2        2527            0.0000000000
      7582      2528  TIP3      OH2           -26.0250187858       29.1950642980       -0.9637486337  W2        2528            0.0000000000
      7583      2528  TIP3      H1            -26.0632687858       28.5486942980       -0.2587886337  W2        2528            0.0000000000
      7584      2528  TIP3      H2            -26.3473687858       28.7285042980       -1.7348786337  W2        2528            0.0000000000
      7585      2529  TIP3      OH2           -33.6565187858       28.8092742980        0.6292413663  W2        2529            0.0000000000
      7586      2529  TIP3      H1            -33.6153087858       28.1836042980        1.3524813663  W2        2529            0.0000000000
      7587      2529  TIP3      H2            -32.9537487858       29.4331342980        0.8112813663  W2        2529            0.0000000000
      7588      2530  TIP3      OH2           -22.3189987858       32.1341042980       -2.6622386337  W2        2530            0.0000000000
      7589      2530  TIP3      H1            -22.7597287858       31.4137042980       -2.2116786337  W2        2530            0.0000000000
      7590      2530  TIP3      H2            -22.3320287858       32.8548242980       -2.0324686337  W2        2530            0.0000000000
      7591      2531  TIP3      OH2           -32.7332087858       33.2591642980       -0.8358486337  W2        2531            0.0000000000
      7592      2531  TIP3      H1            -33.1026887858       32.4572142980       -1.2054186337  W2        2531            0.0000000000
      7593      2531  TIP3      H2            -31.7920987858       33.0906542980       -0.7895086337  W2        2531            0.0000000000
      7594      2532  TIP3      OH2           -36.1231587858       26.9194242980       -5.4429686337  W2        2532            0.0000000000
      7595      2532  TIP3      H1            -36.5708187858       27.7652942980       -5.4613186337  W2        2532            0.0000000000
      7596      2532  TIP3      H2            -36.6840387858       26.3398442980       -5.9584586337  W2        2532            0.0000000000
      7597      2533  TIP3      OH2           -35.4125487858       29.0813842980       -3.3171686337  W2        2533            0.0000000000
      7598      2533  TIP3      H1            -35.1991987858       28.3115442980       -2.7898686337  W2        2533            0.0000000000
      7599      2533  TIP3      H2            -34.6747887858       29.1710542980       -3.9204086337  W2        2533            0.0000000000
      7600      2534  TIP3      OH2           -27.6355787858       31.6272042980       -0.5576486337  W2        2534            0.0000000000
      7601      2534  TIP3      H1            -27.3317887858       30.9413442980       -1.1522386337  W2        2534            0.0000000000
      7602      2534  TIP3      H2            -26.9141787858       31.7460742980        0.0601513663  W2        2534            0.0000000000
      7603      2535  TIP3      OH2           -18.9725987858       23.2287342980        0.3029713663  W2        2535            0.0000000000
      7604      2535  TIP3      H1            -18.9233787858       23.8388542980        1.0388813663  W2        2535            0.0000000000
      7605      2535  TIP3      H2            -18.5470887858       23.6898242980       -0.4199186337  W2        2535            0.0000000000
      7606      2536  TIP3      OH2           -24.4948787858       26.0214442980       -0.2301686337  W2        2536            0.0000000000
      7607      2536  TIP3      H1            -24.3522887858       25.0751442980       -0.2100086337  W2        2536            0.0000000000
      7608      2536  TIP3      H2            -24.6009787858       26.2284242980       -1.1586786337  W2        2536            0.0000000000
      7609      2537  TIP3      OH2           -31.3400487858       24.1230842980       -2.9576886337  W2        2537            0.0000000000
      7610      2537  TIP3      H1            -31.2969387858       24.9829342980       -3.3760586337  W2        2537            0.0000000000
      7611      2537  TIP3      H2            -31.7976387858       23.5705542980       -3.5913686337  W2        2537            0.0000000000
      7612      2538  TIP3      OH2           -23.6177787858       24.2536442980       -4.5568586337  W2        2538            0.0000000000
      7613      2538  TIP3      H1            -22.9713487858       23.9249642980       -3.9320986337  W2        2538            0.0000000000
      7614      2538  TIP3      H2            -23.1078387858       24.7715442980       -5.1797186337  W2        2538            0.0000000000
      7615      2539  TIP3      OH2           -34.7198987858       26.5196642980       -2.1955486337  W2        2539            0.0000000000
      7616      2539  TIP3      H1            -34.0662387858       25.9698342980       -1.7635386337  W2        2539            0.0000000000
      7617      2539  TIP3      H2            -34.6959687858       26.2455642980       -3.1123486337  W2        2539            0.0000000000
      7618      2540  TIP3      OH2           -29.5634487858       28.0697942980       -2.9803986337  W2        2540            0.0000000000
      7619      2540  TIP3      H1            -28.9473487858       27.5433342980       -2.4709986337  W2        2540            0.0000000000
      7620      2540  TIP3      H2            -30.1495687858       27.4296642980       -3.3840386337  W2        2540            0.0000000000
      7621      2541  TIP3      OH2           -18.5811387858       24.7066542980        2.5389513663  W2        2541            0.0000000000
      7622      2541  TIP3      H1            -19.2696787858       25.3647242980        2.4436113663  W2        2541            0.0000000000
      7623      2541  TIP3      H2            -18.5656787858       24.5094442980        3.4754913663  W2        2541            0.0000000000
      7624      2542  TIP3      OH2           -32.5298587858       23.0409242980        1.1163913663  W2        2542            0.0000000000
      7625      2542  TIP3      H1            -32.7486887858       23.5709842980        0.3499913663  W2        2542            0.0000000000
      7626      2542  TIP3      H2            -33.1977687858       23.2674742980        1.7635313663  W2        2542            0.0000000000
      7627      2543  TIP3      OH2           -25.1608787858       32.5410342980       -5.3396986337  W2        2543            0.0000000000
      7628      2543  TIP3      H1            -25.4563687858       32.2182642980       -6.1910086337  W2        2543            0.0000000000
      7629      2543  TIP3      H2            -25.4850987858       33.4407042980       -5.2984386337  W2        2543            0.0000000000
      7630      2544  TIP3      OH2           -29.9607187858       30.7164942980        1.4037613663  W2        2544            0.0000000000
      7631      2544  TIP3      H1            -30.7008087858       31.3146442980        1.5072813663  W2        2544            0.0000000000
      7632      2544  TIP3      H2            -29.2467687858       31.2704542980        1.0881213663  W2        2544            0.0000000000
      7633      2545  TIP3      OH2           -21.8539387858       23.5445742980       -2.5762686337  W2        2545            0.0000000000
      7634      2545  TIP3      H1            -22.0691387858       22.7789142980       -2.0436686337  W2        2545            0.0000000000
      7635      2545  TIP3      H2            -21.1981987858       24.0170342980       -2.0634186337  W2        2545            0.0000000000
      7636      2546  TIP3      OH2           -32.9361287858       24.9331042980       -0.9313886337  W2        2546            0.0000000000
      7637      2546  TIP3      H1            -32.3224987858       25.5658642980       -0.5581486337  W2        2546            0.0000000000
      7638      2546  TIP3      H2            -32.4240587858       24.4606042980       -1.5876986337  W2        2546            0.0000000000
      7639      2547  TIP3      OH2           -31.5532887858       32.6807942980        2.1909113663  W2        2547            0.0000000000
      7640      2547  TIP3      H1            -31.5585287858       33.5601442980        1.8128413663  W2        2547            0.0000000000
      7641      2547  TIP3      H2            -32.4068787858       32.5972042980        2.6159013663  W2        2547            0.0000000000
      7642      2548  TIP3      OH2           -35.4321987858       32.3515842980       -7.0271586337  W2        2548            0.0000000000
      7643      2548  TIP3      H1            -35.7041087858       32.5806842980       -7.9158686337  W2        2548            0.0000000000
      7644      2548  TIP3      H2            -35.3866287858       33.1894642980       -6.5666286337  W2        2548            0.0000000000
      7645      2549  TIP3      OH2           -21.8072287858       33.9731742980       -0.3143086337  W2        2549            0.0000000000
      7646      2549  TIP3      H1            -22.7488587858       34.0315642980       -0.1526186337  W2        2549            0.0000000000
      7647      2549  TIP3      H2            -21.5306187858       34.8792242980       -0.4513386337  W2        2549            0.0000000000
      7648      2550  TIP3      OH2           -21.5065287858       22.2597042980        1.1030813663  W2        2550            0.0000000000
      7649      2550  TIP3      H1            -22.2426087858       22.8704142980        1.0652113663  W2        2550            0.0000000000
      7650      2550  TIP3      H2            -20.8231287858       22.6746042980        0.5767213663  W2        2550            0.0000000000
      7651      2551  TIP3      OH2           -28.5033887858       20.3464342980       -1.4311186337  W2        2551            0.0000000000
      7652      2551  TIP3      H1            -28.6209687858       19.3980342980       -1.4852886337  W2        2551            0.0000000000
      7653      2551  TIP3      H2            -29.3583787858       20.6790442980       -1.1580086337  W2        2551            0.0000000000
      7654      2552  TIP3      OH2           -23.5551087858       35.7545242980       -3.6891486337  W2        2552            0.0000000000
      7655      2552  TIP3      H1            -23.1298787858       35.0473142980       -4.1741886337  W2        2552            0.0000000000
      7656      2552  TIP3      H2            -23.2381087858       36.5557942980       -4.1059286337  W2        2552            0.0000000000
      7657      2553  TIP3      OH2           -22.3954587858       33.6553742980       -5.1804886337  W2        2553            0.0000000000
      7658      2553  TIP3      H1            -22.6529787858       32.9653842980       -5.7918986337  W2        2553            0.0000000000
      7659      2553  TIP3      H2            -22.3243787858       33.2124942980       -4.3348986337  W2        2553            0.0000000000
      7660      2554  TIP3      OH2           -20.7094387858       32.2220442980        3.2968613663  W2        2554            0.0000000000
      7661      2554  TIP3      H1            -20.5698087858       31.6302942980        2.5575613663  W2        2554            0.0000000000
      7662      2554  TIP3      H2            -20.5421587858       33.0946342980        2.9407413663  W2        2554            0.0000000000
      7663      2555  TIP3      OH2           -26.2368987858       29.1839942980       -6.9305386337  W2        2555            0.0000000000
      7664      2555  TIP3      H1            -26.9483487858       29.7189642980       -7.2824886337  W2        2555            0.0000000000
      7665      2555  TIP3      H2            -25.5459387858       29.2392042980       -7.5906486337  W2        2555            0.0000000000
      7666      2556  TIP3      OH2           -26.1829787858       27.6414242980       -9.8920386337  W2        2556            0.0000000000
      7667      2556  TIP3      H1            -25.4819887858       27.6641142980       -9.2406386337  W2        2556            0.0000000000
      7668      2556  TIP3      H2            -25.8806887858       27.0133942980      -10.5481086337  W2        2556            0.0000000000
      7669      2557  TIP3      OH2           -18.8675087858       28.5618442980        1.3629013663  W2        2557            0.0000000000
      7670      2557  TIP3      H1            -19.5200987858       29.2564042980        1.4519913663  W2        2557            0.0000000000
      7671      2557  TIP3      H2            -18.4024787858       28.7719342980        0.5530613663  W2        2557            0.0000000000
      7672      2558  TIP3      OH2           -22.8311287858       29.3933242980       -5.9789486337  W2        2558            0.0000000000
      7673      2558  TIP3      H1            -23.5630287858       29.6216942980       -5.4058886337  W2        2558            0.0000000000
      7674      2558  TIP3      H2            -22.3839087858       28.6795942980       -5.5241986337  W2        2558            0.0000000000
      7675      2559  TIP3      OH2           -22.9337787858       27.5675842980        3.0887513663  W2        2559            0.0000000000
      7676      2559  TIP3      H1            -22.8538687858       28.3310242980        3.6606013663  W2        2559            0.0000000000
      7677      2559  TIP3      H2            -23.5350087858       27.8468242980        2.3982613663  W2        2559            0.0000000000
      7678      2560  TIP3      OH2           -31.1857587858       30.0239442980       -4.0964486337  W2        2560            0.0000000000
      7679      2560  TIP3      H1            -31.5162387858       29.6532842980       -4.9147486337  W2        2560            0.0000000000
      7680      2560  TIP3      H2            -30.5973487858       29.3533442980       -3.7496186337  W2        2560            0.0000000000
      7681      2561  TIP3      OH2           -29.8190087858       33.4520042980       -1.4152286337  W2        2561            0.0000000000
      7682      2561  TIP3      H1            -29.9138787858       32.8733142980       -2.1717686337  W2        2561            0.0000000000
      7683      2561  TIP3      H2            -29.0896487858       33.0805742980       -0.9189486337  W2        2561            0.0000000000
      7684      2562  TIP3      OH2           -30.8192087858       28.7925042980       -0.4629486337  W2        2562            0.0000000000
      7685      2562  TIP3      H1            -30.2539587858       28.9139242980       -1.2258286337  W2        2562            0.0000000000
      7686      2562  TIP3      H2            -30.5003187858       29.4300042980        0.1759013663  W2        2562            0.0000000000
      7687      2563  TIP3      OH2           -24.5099887858       34.2956942980        0.2711013663  W2        2563            0.0000000000
      7688      2563  TIP3      H1            -24.7503287858       34.9580042980        0.9190213663  W2        2563            0.0000000000
      7689      2563  TIP3      H2            -24.7081687858       33.4612142980        0.6960613663  W2        2563            0.0000000000
      7690      2564  TIP3      OH2           -29.9391387858       33.1917742980        4.2542413663  W2        2564            0.0000000000
      7691      2564  TIP3      H1            -30.2503887858       33.9740942980        4.7095613663  W2        2564            0.0000000000
      7692      2564  TIP3      H2            -30.5891187858       33.0386842980        3.5684413663  W2        2564            0.0000000000
      7693      2565  TIP3      OH2           -23.9601787858       28.5556142980       -8.2938286337  W2        2565            0.0000000000
      7694      2565  TIP3      H1            -23.3806287858       28.7056442980       -7.5469386337  W2        2565            0.0000000000
      7695      2565  TIP3      H2            -23.5461787858       29.0263542980       -9.0171886337  W2        2565            0.0000000000
      7696      2566  TIP3      OH2           -33.0191487858       29.3898842980        3.4828113663  W2        2566            0.0000000000
      7697      2566  TIP3      H1            -32.9488287858       30.0405642980        4.1813113663  W2        2566            0.0000000000
      7698      2566  TIP3      H2            -33.9099287858       29.4926342980        3.1479013663  W2        2566            0.0000000000
      7699      2567  TIP3      OH2           -26.2336887858       35.2924642980       -4.8585186337  W2        2567            0.0000000000
      7700      2567  TIP3      H1            -25.7599287858       35.5880942980       -4.0810986337  W2        2567            0.0000000000
      7701      2567  TIP3      H2            -26.7967587858       36.0306242980       -5.0915586337  W2        2567            0.0000000000
      7702      2568  TIP3      OH2           -31.6995487858       35.2632742980        5.0176213663  W2        2568            0.0000000000
      7703      2568  TIP3      H1            -31.6920187858       35.1272442980        4.0701713663  W2        2568            0.0000000000
      7704      2568  TIP3      H2            -32.6155087858       35.1460842980        5.2696213663  W2        2568            0.0000000000
      7705      2569  TIP3      OH2           -20.2613387858       20.3056542980       -8.4808586337  W2        2569            0.0000000000
      7706      2569  TIP3      H1            -21.1612687858       20.4445542980       -8.1857986337  W2        2569            0.0000000000
      7707      2569  TIP3      H2            -20.0094987858       21.1371142980       -8.8826886337  W2        2569            0.0000000000
      7708      2570  TIP3      OH2           -32.1954887858       29.0933742980       -6.5071686337  W2        2570            0.0000000000
      7709      2570  TIP3      H1            -32.4873587858       29.8615442980       -6.9980386337  W2        2570            0.0000000000
      7710      2570  TIP3      H2            -32.8699687858       28.4339942980       -6.6700286337  W2        2570            0.0000000000
      7711      2571  TIP3      OH2           -19.0721987858       34.6718942980      -10.1044686337  W2        2571            0.0000000000
      7712      2571  TIP3      H1            -18.9988487858       35.6109142980       -9.9339386337  W2        2571            0.0000000000
      7713      2571  TIP3      H2            -18.1666887858       34.3667542980      -10.1607386337  W2        2571            0.0000000000
      7714      2572  TIP3      OH2           -36.1024787858       31.4562942980        2.3078113663  W2        2572            0.0000000000
      7715      2572  TIP3      H1            -36.6036387858       31.4282342980        1.4927813663  W2        2572            0.0000000000
      7716      2572  TIP3      H2            -36.0971087858       30.5506142980        2.6175413663  W2        2572            0.0000000000
      7717      2573  TIP3      OH2           -36.3522087858       34.2366742980       -0.8081686337  W2        2573            0.0000000000
      7718      2573  TIP3      H1            -35.4061487858       34.0923742980       -0.8272186337  W2        2573            0.0000000000
      7719      2573  TIP3      H2            -36.4645787858       35.0209542980       -0.2710486337  W2        2573            0.0000000000
      7720      2574  TIP3      OH2           -18.1543587858       34.9026442980        4.8742013663  W2        2574            0.0000000000
      7721      2574  TIP3      H1            -18.2036787858       33.9474542980        4.8369613663  W2        2574            0.0000000000
      7722      2574  TIP3      H2            -18.9811287858       35.1701742980        5.2755813663  W2        2574            0.0000000000
      7723      2575  TIP3      OH2           -27.1759587858       34.4765642980        3.7503413663  W2        2575            0.0000000000
      7724      2575  TIP3      H1            -27.0884987858       35.3030242980        4.2252513663  W2        2575            0.0000000000
      7725      2575  TIP3      H2            -28.0394487858       34.1469442980        3.9992713663  W2        2575            0.0000000000
      7726      2576  TIP3      OH2           -21.0023787858       26.3958942980        5.3544213663  W2        2576            0.0000000000
      7727      2576  TIP3      H1            -21.4096987858       26.8764542980        4.6337513663  W2        2576            0.0000000000
      7728      2576  TIP3      H2            -20.9618087858       25.4904942980        5.0465013663  W2        2576            0.0000000000
      7729      2577  TIP3      OH2           -33.8534287858       32.7798342980        3.3510913663  W2        2577            0.0000000000
      7730      2577  TIP3      H1            -33.6372987858       32.4183942980        4.2106713663  W2        2577            0.0000000000
      7731      2577  TIP3      H2            -34.7089587858       32.4052142980        3.1414413663  W2        2577            0.0000000000
      7732      2578  TIP3      OH2           -31.2346287858       21.2498842980       -0.6534886337  W2        2578            0.0000000000
      7733      2578  TIP3      H1            -32.0962587858       21.1627042980       -1.0611986337  W2        2578            0.0000000000
      7734      2578  TIP3      H2            -31.2570587858       22.1058942980       -0.2257286337  W2        2578            0.0000000000
      7735      2579  TIP3      OH2           -26.5718487858       20.9719242980        2.7212113663  W2        2579            0.0000000000
      7736      2579  TIP3      H1            -26.1515387858       20.5566342980        3.4742713663  W2        2579            0.0000000000
      7737      2579  TIP3      H2            -27.5048887858       20.7932542980        2.8384113663  W2        2579            0.0000000000
      7738      2580  TIP3      OH2           -23.2453587858       24.7274442980        3.5746613663  W2        2580            0.0000000000
      7739      2580  TIP3      H1            -23.7594087858       24.6016642980        4.3722613663  W2        2580            0.0000000000
      7740      2580  TIP3      H2            -23.4008887858       25.6397542980        3.3302813663  W2        2580            0.0000000000
      7741      2581  TIP3      OH2           -22.4828687858       29.5884442980      -10.6640386337  W2        2581            0.0000000000
      7742      2581  TIP3      H1            -22.4407887858       29.3658342980      -11.5940386337  W2        2581            0.0000000000
      7743      2581  TIP3      H2            -21.6336587858       29.9871542980      -10.4740486337  W2        2581            0.0000000000
      7744      2582  TIP3      OH2           -26.9101187858       23.4642642980       -9.9937086337  W2        2582            0.0000000000
      7745      2582  TIP3      H1            -27.1636387858       23.4834242980       -9.0708986337  W2        2582            0.0000000000
      7746      2582  TIP3      H2            -27.1669087858       22.5928042980      -10.2950886337  W2        2582            0.0000000000
      7747      2583  TIP3      OH2           -31.1436187858       26.2153342980        0.4415313663  W2        2583            0.0000000000
      7748      2583  TIP3      H1            -31.7854087858       26.1750642980        1.1505413663  W2        2583            0.0000000000
      7749      2583  TIP3      H2            -31.1064187858       27.1418042980        0.2038313663  W2        2583            0.0000000000
      7750      2584  TIP3      OH2           -31.1467087858       26.4363442980       -4.6464686337  W2        2584            0.0000000000
      7751      2584  TIP3      H1            -32.0394187858       26.0959542980       -4.7050886337  W2        2584            0.0000000000
      7752      2584  TIP3      H2            -30.6960487858       26.0594342980       -5.4021486337  W2        2584            0.0000000000
      7753      2585  TIP3      OH2           -25.6111587858       26.8523742980       -5.8293886337  W2        2585            0.0000000000
      7754      2585  TIP3      H1            -26.0201287858       27.6672342980       -6.1209086337  W2        2585            0.0000000000
      7755      2585  TIP3      H2            -24.8905387858       26.7123842980       -6.4436786337  W2        2585            0.0000000000
      7756      2586  TIP3      OH2           -26.5089987858       27.0280142980        5.6586813663  W2        2586            0.0000000000
      7757      2586  TIP3      H1            -27.0716187858       26.3231742980        5.9794613663  W2        2586            0.0000000000
      7758      2586  TIP3      H2            -25.6826587858       26.9072042980        6.1264413663  W2        2586            0.0000000000
      7759      2587  TIP3      OH2           -24.6063887858       26.2984142980       -3.0154186337  W2        2587            0.0000000000
      7760      2587  TIP3      H1            -24.8019387858       26.9040942980       -3.7303586337  W2        2587            0.0000000000
      7761      2587  TIP3      H2            -24.4251287858       25.4649342980       -3.4497886337  W2        2587            0.0000000000
      7762      2588  TIP3      OH2           -33.3935687858       26.5356842980        2.3087313663  W2        2588            0.0000000000
      7763      2588  TIP3      H1            -33.4316287858       26.9358442980        3.1774413663  W2        2588            0.0000000000
      7764      2588  TIP3      H2            -33.8844587858       25.7189242980        2.3990213663  W2        2588            0.0000000000
      7765      2589  TIP3      OH2           -30.0278287858       23.9099142980      -10.8926686337  W2        2589            0.0000000000
      7766      2589  TIP3      H1            -30.4587587858       23.4649242980      -10.1629286337  W2        2589            0.0000000000
      7767      2589  TIP3      H2            -30.7459587858       24.2815442980      -11.4049186337  W2        2589            0.0000000000
      7768      2590  TIP3      OH2           -36.7854887858       23.6518642980       -3.8407986337  W2        2590            0.0000000000
      7769      2590  TIP3      H1            -36.1547187858       23.6230742980       -3.1214086337  W2        2590            0.0000000000
      7770      2590  TIP3      H2            -36.3360587858       23.2267342980       -4.5712086337  W2        2590            0.0000000000
      7771      2591  TIP3      OH2           -35.5112787858       24.3980642980       -8.4167586337  W2        2591            0.0000000000
      7772      2591  TIP3      H1            -35.0371087858       24.9890542980       -9.0016686337  W2        2591            0.0000000000
      7773      2591  TIP3      H2            -36.2286387858       24.9283542980       -8.0697486337  W2        2591            0.0000000000
      7774      2592  TIP3      OH2           -25.3424687858       27.9365442980        1.6558213663  W2        2592            0.0000000000
      7775      2592  TIP3      H1            -25.0189887858       27.3055142980        1.0128713663  W2        2592            0.0000000000
      7776      2592  TIP3      H2            -25.7825387858       27.4017642980        2.3165613663  W2        2592            0.0000000000
      7777      2593  TIP3      OH2           -28.5651787858       23.8640942980       -3.5600586337  W2        2593            0.0000000000
      7778      2593  TIP3      H1            -29.4760687858       23.9207742980       -3.2714586337  W2        2593            0.0000000000
      7779      2593  TIP3      H2            -28.0598887858       23.8036442980       -2.7493386337  W2        2593            0.0000000000
      7780      2594  TIP3      OH2           -33.7368387858       25.4927242980       -4.7332986337  W2        2594            0.0000000000
      7781      2594  TIP3      H1            -34.6260387858       25.5922742980       -5.0733386337  W2        2594            0.0000000000
      7782      2594  TIP3      H2            -33.4403487858       24.6510242980       -5.0795086337  W2        2594            0.0000000000
      7783      2595  TIP3      OH2           -30.0836587858       25.4929842980       -7.0768386337  W2        2595            0.0000000000
      7784      2595  TIP3      H1            -29.1521087858       25.6219842980       -6.8985286337  W2        2595            0.0000000000
      7785      2595  TIP3      H2            -30.2986287858       26.1624142980       -7.7263686337  W2        2595            0.0000000000
      7786      2596  TIP3      OH2           -24.1599887858       23.0987242980       -0.2958786337  W2        2596            0.0000000000
      7787      2596  TIP3      H1            -24.8368287858       23.2300342980        0.3680913663  W2        2596            0.0000000000
      7788      2596  TIP3      H2            -24.6454987858       22.9436742980       -1.1061086337  W2        2596            0.0000000000
      7789      2597  TIP3      OH2           -31.4096387858       26.6872042980       -9.5102286337  W2        2597            0.0000000000
      7790      2597  TIP3      H1            -31.9521287858       26.3075842980      -10.2014686337  W2        2597            0.0000000000
      7791      2597  TIP3      H2            -30.5761487858       26.8816742980       -9.9388186337  W2        2597            0.0000000000
      7792      2598  TIP3      OH2           -33.2744987858       31.2443942980        5.5889313663  W2        2598            0.0000000000
      7793      2598  TIP3      H1            -32.5422587858       31.4989842980        6.1503813663  W2        2598            0.0000000000
      7794      2598  TIP3      H2            -34.0546287858       31.4489342980        6.1044713663  W2        2598            0.0000000000
      7795      2599  TIP3      OH2           -27.2452087858       26.6513942980       -1.6730986337  W2        2599            0.0000000000
      7796      2599  TIP3      H1            -26.6808687858       26.1050542980       -2.2201386337  W2        2599            0.0000000000
      7797      2599  TIP3      H2            -27.3928687858       26.1295842980       -0.8843386337  W2        2599            0.0000000000
      7798      2600  TIP3      OH2           -32.2432387858       22.7880042980       -5.2546186337  W2        2600            0.0000000000
      7799      2600  TIP3      H1            -32.5602887858       21.8855342980       -5.2900786337  W2        2600            0.0000000000
      7800      2600  TIP3      H2            -31.4618287858       22.7897442980       -5.8074586337  W2        2600            0.0000000000
      7801      2601  TIP3      OH2           -28.6186187858       25.0400042980        0.7409413663  W2        2601            0.0000000000
      7802      2601  TIP3      H1            -29.4540887858       25.4939542980        0.8511813663  W2        2601            0.0000000000
      7803      2601  TIP3      H2            -28.0945587858       25.3158542980        1.4929313663  W2        2601            0.0000000000
      7804      2602  TIP3      OH2           -28.0743587858       31.2527742980       -7.5744186337  W2        2602            0.0000000000
      7805      2602  TIP3      H1            -28.8192587858       30.7453042980       -7.8966286337  W2        2602            0.0000000000
      7806      2602  TIP3      H2            -28.2086387858       31.3015742980       -6.6279386337  W2        2602            0.0000000000
      7807      2603  TIP3      OH2           -20.9244687858       30.3855942980        1.2123413663  W2        2603            0.0000000000
      7808      2603  TIP3      H1            -20.2825887858       30.8422242980        0.6685613663  W2        2603            0.0000000000
      7809      2603  TIP3      H2            -21.7547787858       30.4988342980        0.7497513663  W2        2603            0.0000000000
      7810      2604  TIP3      OH2           -24.1766787858       24.0667642980       -9.3751586337  W2        2604            0.0000000000
      7811      2604  TIP3      H1            -25.1152587858       24.1783242980       -9.5262786337  W2        2604            0.0000000000
      7812      2604  TIP3      H2            -23.8794687858       24.9234542980       -9.0685886337  W2        2604            0.0000000000
      7813      2605  TIP3      OH2           -26.5551487858       31.4371042980        3.6624913663  W2        2605            0.0000000000
      7814      2605  TIP3      H1            -26.9005387858       31.0553442980        4.4694513663  W2        2605            0.0000000000
      7815      2605  TIP3      H2            -26.7551387858       32.3704642980        3.7337813663  W2        2605            0.0000000000
      7816      2606  TIP3      OH2           -23.4583287858       25.9340342980       -7.7144186337  W2        2606            0.0000000000
      7817      2606  TIP3      H1            -22.5664287858       25.7965342980       -7.3952986337  W2        2606            0.0000000000
      7818      2606  TIP3      H2            -23.4019687858       26.7246442980       -8.2510686337  W2        2606            0.0000000000
      7819      2607  TIP3      OH2           -32.9495287858       30.5477742980       -1.8046286337  W2        2607            0.0000000000
      7820      2607  TIP3      H1            -32.2048087858       30.5453442980       -2.4059786337  W2        2607            0.0000000000
      7821      2607  TIP3      H2            -32.8718687858       29.7241542980       -1.3231186337  W2        2607            0.0000000000
      7822      2608  TIP3      OH2           -25.9489487858       32.7112042980       -8.5489586337  W2        2608            0.0000000000
      7823      2608  TIP3      H1            -26.2441087858       33.5379942980       -8.1674786337  W2        2608            0.0000000000
      7824      2608  TIP3      H2            -26.6519487858       32.0918942980       -8.3528186337  W2        2608            0.0000000000
      7825      2609  TIP3      OH2           -35.9415587858       29.0084642980        3.5102213663  W2        2609            0.0000000000
      7826      2609  TIP3      H1            -35.7186987858       28.5904242980        4.3419713663  W2        2609            0.0000000000
      7827      2609  TIP3      H2            -36.5435487858       28.3959642980        3.0875013663  W2        2609            0.0000000000
      7828      2610  TIP3      OH2           -28.9250687858       28.5254542980        5.7231913663  W2        2610            0.0000000000
      7829      2610  TIP3      H1            -29.2209887858       28.3597542980        4.8281013663  W2        2610            0.0000000000
      7830      2610  TIP3      H2            -27.9935487858       28.3054842980        5.7125813663  W2        2610            0.0000000000
      7831      2611  TIP3      OH2           -24.3047887858       33.8986542980        3.6129913663  W2        2611            0.0000000000
      7832      2611  TIP3      H1            -25.2053587858       34.0819142980        3.3453813663  W2        2611            0.0000000000
      7833      2611  TIP3      H2            -24.2706787858       34.1575842980        4.5338713663  W2        2611            0.0000000000
      7834      2612  TIP3      OH2           -18.5734587858       26.1434442980       -8.0197486337  W2        2612            0.0000000000
      7835      2612  TIP3      H1            -19.1278287858       25.7472442980       -8.6919986337  W2        2612            0.0000000000
      7836      2612  TIP3      H2            -18.4730987858       27.0539642980       -8.2974186337  W2        2612            0.0000000000
      7837      2613  TIP3      OH2           -18.6102587858       31.9436142980        4.8174013663  W2        2613            0.0000000000
      7838      2613  TIP3      H1            -19.4614087858       32.1819942980        4.4500413663  W2        2613            0.0000000000
      7839      2613  TIP3      H2            -18.0199187858       31.9269342980        4.0641113663  W2        2613            0.0000000000
      7840      2614  TIP3      OH2           -20.2782887858       34.9294842980       -7.5545386337  W2        2614            0.0000000000
      7841      2614  TIP3      H1            -20.6511787858       34.1038642980       -7.2454786337  W2        2614            0.0000000000
      7842      2614  TIP3      H2            -20.0009387858       34.7464242980       -8.4521986337  W2        2614            0.0000000000
      7843      2615  TIP3      OH2           -23.1178987858       29.7374342980       -0.5333486337  W2        2615            0.0000000000
      7844      2615  TIP3      H1            -24.0462087858       29.5056242980       -0.5604186337  W2        2615            0.0000000000
      7845      2615  TIP3      H2            -22.6667887858       28.9604142980       -0.8634686337  W2        2615            0.0000000000
      7846      2616  TIP3      OH2           -30.5745887858       34.0655942980       -4.4004786337  W2        2616            0.0000000000
      7847      2616  TIP3      H1            -30.0473687858       34.8390342980       -4.6005986337  W2        2616            0.0000000000
      7848      2616  TIP3      H2            -31.4547387858       34.2905142980       -4.7020786337  W2        2616            0.0000000000
      7849      2617  TIP3      OH2           -34.8198187858       28.9280042980       -9.8132386337  W2        2617            0.0000000000
      7850      2617  TIP3      H1            -34.2038287858       29.5547242980       -9.4337586337  W2        2617            0.0000000000
      7851      2617  TIP3      H2            -35.6815587858       29.2439842980       -9.5415886337  W2        2617            0.0000000000
      7852      2618  TIP3      OH2           -29.1473587858       31.7285842980       -4.8240486337  W2        2618            0.0000000000
      7853      2618  TIP3      H1            -29.3883587858       32.6540242980       -4.7825186337  W2        2618            0.0000000000
      7854      2618  TIP3      H2            -29.8879987858       31.2697142980       -4.4276586337  W2        2618            0.0000000000
      7855      2619  TIP3      OH2           -28.6326987858       35.8779442980        1.4910613663  W2        2619            0.0000000000
      7856      2619  TIP3      H1            -28.2702287858       36.7325042980        1.2575013663  W2        2619            0.0000000000
      7857      2619  TIP3      H2            -28.1011787858       35.5861042980        2.2316913663  W2        2619            0.0000000000
      7858      2620  TIP3      OH2           -30.4642787858       36.7503442980       -5.2788286337  W2        2620            0.0000000000
      7859      2620  TIP3      H1            -31.4142287858       36.8560842980       -5.2274986337  W2        2620            0.0000000000
      7860      2620  TIP3      H2            -30.1124687858       37.5710842980       -4.9340786337  W2        2620            0.0000000000
      7861      2621  TIP3      OH2           -25.0886187858       31.9770142980        1.1916213663  W2        2621            0.0000000000
      7862      2621  TIP3      H1            -25.5144887858       31.7491842980        2.0180213663  W2        2621            0.0000000000
      7863      2621  TIP3      H2            -24.5080387858       31.2381942980        1.0091513663  W2        2621            0.0000000000
      7864      2622  TIP3      OH2           -22.8857287858       32.9060642980       -9.7344786337  W2        2622            0.0000000000
      7865      2622  TIP3      H1            -22.5324187858       32.5260442980       -8.9301286337  W2        2622            0.0000000000
      7866      2622  TIP3      H2            -23.8343787858       32.8125442980       -9.6475486337  W2        2622            0.0000000000
      7867      2623  TIP3      OH2           -22.4301987858       36.5289642980        3.6611013663  W2        2623            0.0000000000
      7868      2623  TIP3      H1            -23.0318787858       35.9732542980        3.1657313663  W2        2623            0.0000000000
      7869      2623  TIP3      H2            -22.1488287858       37.1959442980        3.0348413663  W2        2623            0.0000000000
      7870      2624  TIP3      OH2           -34.3076087858       23.7617342980        3.0683613663  W2        2624            0.0000000000
      7871      2624  TIP3      H1            -35.2003787858       24.1002742980        3.0007613663  W2        2624            0.0000000000
      7872      2624  TIP3      H2            -34.4063287858       22.9063442980        3.4864413663  W2        2624            0.0000000000
      7873      2625  TIP3      OH2           -22.0197987858       31.5782642980       -7.5076886337  W2        2625            0.0000000000
      7874      2625  TIP3      H1            -22.2970387858       30.8501942980       -6.9515786337  W2        2625            0.0000000000
      7875      2625  TIP3      H2            -21.0924987858       31.6974642980       -7.3024286337  W2        2625            0.0000000000
      7876      2626  TIP3      OH2           -34.6564087858       35.5661742980        1.5033013663  W2        2626            0.0000000000
      7877      2626  TIP3      H1            -34.4393787858       34.6344142980        1.4722713663  W2        2626            0.0000000000
      7878      2626  TIP3      H2            -34.4100587858       35.8406742980        2.3865813663  W2        2626            0.0000000000
      7879      2627  TIP3      OH2           -28.7949487858       34.0176742980      -11.2874786337  W2        2627            0.0000000000
      7880      2627  TIP3      H1            -28.5559687858       33.2694842980      -11.8345886337  W2        2627            0.0000000000
      7881      2627  TIP3      H2            -29.0638187858       33.6298442980      -10.4546986337  W2        2627            0.0000000000
      7882      2628  TIP3      OH2           -29.8578887858       33.5880542980       -8.8312186337  W2        2628            0.0000000000
      7883      2628  TIP3      H1            -29.7110887858       33.0680342980       -8.0411286337  W2        2628            0.0000000000
      7884      2628  TIP3      H2            -29.8607187858       34.4948142980       -8.5246286337  W2        2628            0.0000000000
      7885      2629  TIP3      OH2           -33.4047787858       30.8403842980       -8.3206786337  W2        2629            0.0000000000
      7886      2629  TIP3      H1            -34.0908487858       31.1926342980       -7.7537086337  W2        2629            0.0000000000
      7887      2629  TIP3      H2            -32.8819887858       31.6033442980       -8.5672486337  W2        2629            0.0000000000
      7888      2630  TIP3      OH2           -25.5732687858       23.5027642980        1.9582213663  W2        2630            0.0000000000
      7889      2630  TIP3      H1            -24.8744787858       23.5766342980        2.6081913663  W2        2630            0.0000000000
      7890      2630  TIP3      H2            -25.9541287858       22.6382642980        2.1125113663  W2        2630            0.0000000000
      7891      2631  TIP3      OH2           -24.7887787858       23.1549342980       -6.9445486337  W2        2631            0.0000000000
      7892      2631  TIP3      H1            -24.5689487858       23.6264742980       -7.7480086337  W2        2631            0.0000000000
      7893      2631  TIP3      H2            -24.2303787858       23.5491942980       -6.2744886337  W2        2631            0.0000000000
      7894      2632  TIP3      OH2           -27.1201687858       35.2854142980       -8.0817986337  W2        2632            0.0000000000
      7895      2632  TIP3      H1            -27.9365587858       35.7823842980       -8.0293686337  W2        2632            0.0000000000
      7896      2632  TIP3      H2            -26.5905387858       35.7607642980       -8.7219186337  W2        2632            0.0000000000
      7897      2633  TIP3      OH2           -27.5887887858       24.8828142980       -6.1097086337  W2        2633            0.0000000000
      7898      2633  TIP3      H1            -26.7765287858       25.3871342980       -6.0635386337  W2        2633            0.0000000000
      7899      2633  TIP3      H2            -27.8334887858       24.7377842980       -5.1957486337  W2        2633            0.0000000000
      7900      2634  TIP3      OH2           -27.0531487858       25.8690842980        3.0749513663  W2        2634            0.0000000000
      7901      2634  TIP3      H1            -26.9341187858       26.4426242980        3.8319913663  W2        2634            0.0000000000
      7902      2634  TIP3      H2            -26.3976887858       25.1810242980        3.1897313663  W2        2634            0.0000000000
      7903      2635  TIP3      OH2           -26.7051187858       21.9641142980       -5.1715986337  W2        2635            0.0000000000
      7904      2635  TIP3      H1            -27.0517687858       22.5811742980       -4.5271686337  W2        2635            0.0000000000
      7905      2635  TIP3      H2            -26.0464287858       22.4646842980       -5.6530486337  W2        2635            0.0000000000
      7906      2636  TIP3      OH2           -29.7818587858       36.3291342980       -8.1001086337  W2        2636            0.0000000000
      7907      2636  TIP3      H1            -29.6209887858       37.1288842980       -8.6008486337  W2        2636            0.0000000000
      7908      2636  TIP3      H2            -29.9790787858       36.6357342980       -7.2150486337  W2        2636            0.0000000000
      7909      2637  TIP3      OH2           -31.0474187858       23.0270542980       -8.4843486337  W2        2637            0.0000000000
      7910      2637  TIP3      H1            -31.1309387858       23.9153642980       -8.1377086337  W2        2637            0.0000000000
      7911      2637  TIP3      H2            -30.1573887858       22.7617242980       -8.2526686337  W2        2637            0.0000000000
      7912      2638  TIP3      OH2           -20.8485687858       23.7761142980        3.9099213663  W2        2638            0.0000000000
      7913      2638  TIP3      H1            -21.7649887858       24.0382842980        3.8222913663  W2        2638            0.0000000000
      7914      2638  TIP3      H2            -20.5130687858       23.7730142980        3.0134513663  W2        2638            0.0000000000
      7915      2639  TIP3      OH2           -22.2464687858       27.5262142980       -1.9943486337  W2        2639            0.0000000000
      7916      2639  TIP3      H1            -23.0440287858       27.1112342980       -2.3228486337  W2        2639            0.0000000000
      7917      2639  TIP3      H2            -21.8013587858       26.8355842980       -1.5032986337  W2        2639            0.0000000000
      7918      2640  TIP3      OH2           -32.7888887858       33.4542742980       -9.4238986337  W2        2640            0.0000000000
      7919      2640  TIP3      H1            -32.1967387858       34.1537542980       -9.1476586337  W2        2640            0.0000000000
      7920      2640  TIP3      H2            -32.3295887858       33.0212242980      -10.1434386337  W2        2640            0.0000000000
      7921      2641  TIP3      OH2           -34.4729687858       26.1185742980      -10.3079586337  W2        2641            0.0000000000
      7922      2641  TIP3      H1            -34.5177087858       27.0578842980      -10.1292586337  W2        2641            0.0000000000
      7923      2641  TIP3      H2            -35.3606487858       25.8830642980      -10.5777486337  W2        2641            0.0000000000
      7924      2642  TIP3      OH2           -33.6647687858       20.9002342980       -1.6348586337  W2        2642            0.0000000000
      7925      2642  TIP3      H1            -33.8937887858       20.9594842980       -2.5623586337  W2        2642            0.0000000000
      7926      2642  TIP3      H2            -34.1074287858       20.1087842980       -1.3284486337  W2        2642            0.0000000000
      7927      2643  TIP3      OH2           -34.7344387858       34.8409442980       -5.4742786337  W2        2643            0.0000000000
      7928      2643  TIP3      H1            -35.5665787858       35.3132142980       -5.4471386337  W2        2643            0.0000000000
      7929      2643  TIP3      H2            -34.1886087858       35.3507042980       -6.0729686337  W2        2643            0.0000000000
      7930      2644  TIP3      OH2           -30.8487287858       36.3727542980        7.4759413663  W2        2644            0.0000000000
      7931      2644  TIP3      H1            -30.0810087858       35.9138342980        7.8168613663  W2        2644            0.0000000000
      7932      2644  TIP3      H2            -30.8701087858       36.1467342980        6.5460613663  W2        2644            0.0000000000
      7933      2645  TIP3      OH2           -26.7567687858       35.8808142980      -11.1488786337  W2        2645            0.0000000000
      7934      2645  TIP3      H1            -27.4006687858       35.2496742980      -10.8275086337  W2        2645            0.0000000000
      7935      2645  TIP3      H2            -25.9949387858       35.3496142980      -11.3805286337  W2        2645            0.0000000000
      7936      2646  TIP3      OH2           -24.2718587858       34.7528642980        6.2050913663  W2        2646            0.0000000000
      7937      2646  TIP3      H1            -24.6229087858       33.8961642980        6.4481313663  W2        2646            0.0000000000
      7938      2646  TIP3      H2            -23.5455387858       34.8955342980        6.8119913663  W2        2646            0.0000000000
      7939      2647  TIP3      OH2           -22.1524787858       35.6978042980      -10.9150786337  W2        2647            0.0000000000
      7940      2647  TIP3      H1            -21.8694387858       34.9033242980      -10.4623886337  W2        2647            0.0000000000
      7941      2647  TIP3      H2            -21.4126887858       35.9309042980      -11.4759686337  W2        2647            0.0000000000
      7942      2648  TIP3      OH2           -35.5391187858       31.2637242980        6.8099513663  W2        2648            0.0000000000
      7943      2648  TIP3      H1            -35.3950687858       30.3617942980        6.5236213663  W2        2648            0.0000000000
      7944      2648  TIP3      H2            -36.3113787858       31.5499342980        6.3221813663  W2        2648            0.0000000000
      7945      2649  TIP3      OH2           -31.1977487858       31.6072942980      -11.0575886337  W2        2649            0.0000000000
      7946      2649  TIP3      H1            -31.1333387858       30.8132542980      -10.5269486337  W2        2649            0.0000000000
      7947      2649  TIP3      H2            -30.5448287858       31.4885742980      -11.7473886337  W2        2649            0.0000000000
      7948      2650  TIP3      OH2           -28.8835087858       31.2335342980        6.2425913663  W2        2650            0.0000000000
      7949      2650  TIP3      H1            -29.2121287858       31.5043442980        5.3853313663  W2        2650            0.0000000000
      7950      2650  TIP3      H2            -28.7316887858       30.2925142980        6.1550913663  W2        2650            0.0000000000
      7951      2651  TIP3      OH2           -25.8454087858       32.6544642980      -11.3217886337  W2        2651            0.0000000000
      7952      2651  TIP3      H1            -26.1139987858       32.8346742980      -10.4208986337  W2        2651            0.0000000000
      7953      2651  TIP3      H2            -26.0518487858       31.7290842980      -11.4532086337  W2        2651            0.0000000000
      7954      2652  TIP3      OH2           -23.1489887858       31.1492642980        3.6258213663  W2        2652            0.0000000000
      7955      2652  TIP3      H1            -22.4035087858       31.7376342980        3.5062213663  W2        2652            0.0000000000
      7956      2652  TIP3      H2            -23.9063087858       31.7312342980        3.6891313663  W2        2652            0.0000000000
      7957      2653  TIP3      OH2           -34.7064687858       28.4640542980        6.2298813663  W2        2653            0.0000000000
      7958      2653  TIP3      H1            -34.2983487858       27.6067142980        6.1089413663  W2        2653            0.0000000000
      7959      2653  TIP3      H2            -34.9667087858       28.4781842980        7.1509113663  W2        2653            0.0000000000
      7960      2654  TIP3      OH2           -30.0483687858       29.5799142980       -8.7517886337  W2        2654            0.0000000000
      7961      2654  TIP3      H1            -30.5081687858       29.0957442980       -8.0659386337  W2        2654            0.0000000000
      7962      2654  TIP3      H2            -29.7934987858       28.9114542980       -9.3877386337  W2        2654            0.0000000000
      7963      2655  TIP3      OH2           -30.7594387858       27.4726242980        3.6041713663  W2        2655            0.0000000000
      7964      2655  TIP3      H1            -31.3778287858       28.1472842980        3.8846413663  W2        2655            0.0000000000
      7965      2655  TIP3      H2            -30.4153187858       27.7940142980        2.7707913663  W2        2655            0.0000000000
      7966      2656  TIP3      OH2           -28.9773287858       27.8230942980      -10.4894686337  W2        2656            0.0000000000
      7967      2656  TIP3      H1            -29.1578287858       27.6682142980      -11.4166386337  W2        2656            0.0000000000
      7968      2656  TIP3      H2            -28.0272787858       27.9309642980      -10.4446786337  W2        2656            0.0000000000
      7969      2657  TIP3      OH2           -25.7396187858       29.9441542980        6.8816513663  W2        2657            0.0000000000
      7970      2657  TIP3      H1            -24.7864987858       30.0280642980        6.8542513663  W2        2657            0.0000000000
      7971      2657  TIP3      H2            -25.9001587858       29.2323342980        7.5011413663  W2        2657            0.0000000000
      7972      2658  TIP3      OH2           -19.5874987858       30.1775142980      -11.0436586337  W2        2658            0.0000000000
      7973      2658  TIP3      H1            -19.8610187858       29.7530642980      -11.8568286337  W2        2658            0.0000000000
      7974      2658  TIP3      H2            -19.5480887858       31.1089642980      -11.2606186337  W2        2658            0.0000000000
      7975      2659  TIP3      OH2           -30.4200687858       24.8277042980        4.6864813663  W2        2659            0.0000000000
      7976      2659  TIP3      H1            -30.2699787858       24.0988342980        4.0844513663  W2        2659            0.0000000000
      7977      2659  TIP3      H2            -30.4178287858       25.6048742980        4.1277013663  W2        2659            0.0000000000
      7978      2660  TIP3      OH2           -30.0074987858       23.1972842980        2.1792213663  W2        2660            0.0000000000
      7979      2660  TIP3      H1            -29.4717487858       23.6489542980        1.5271513663  W2        2660            0.0000000000
      7980      2660  TIP3      H2            -30.8595387858       23.0892642980        1.7566313663  W2        2660            0.0000000000
      7981      2661  TIP3      OH2           -28.4256587858       28.6369042980        2.4187413663  W2        2661            0.0000000000
      7982      2661  TIP3      H1            -27.6751787858       28.4806542980        1.8455213663  W2        2661            0.0000000000
      7983      2661  TIP3      H2            -28.7648287858       29.4885642980        2.1432913663  W2        2661            0.0000000000
      7984      2662  TIP3      OH2           -24.0100387858       26.4520842980        7.4472713663  W2        2662            0.0000000000
      7985      2662  TIP3      H1            -23.8179087858       25.5210242980        7.3357213663  W2        2662            0.0000000000
      7986      2662  TIP3      H2            -23.1524087858       26.8770342980        7.4368113663  W2        2662            0.0000000000
      7987      2663  TIP3      OH2           -22.6933187858       29.2406042980        5.5245413663  W2        2663            0.0000000000
      7988      2663  TIP3      H1            -22.9748187858       29.9500642980        4.9469213663  W2        2663            0.0000000000
      7989      2663  TIP3      H2            -21.7508887858       29.1679042980        5.3736613663  W2        2663            0.0000000000
      7990      2664  TIP3      OH2           -31.9414387858       26.0260542980        6.5980413663  W2        2664            0.0000000000
      7991      2664  TIP3      H1            -32.7085387858       25.4935342980        6.3878013663  W2        2664            0.0000000000
      7992      2664  TIP3      H2            -31.2625387858       25.7160942980        5.9986713663  W2        2664            0.0000000000
      7993      2665  TIP3      OH2           -29.2019487858       20.6538542980        2.6105813663  W2        2665            0.0000000000
      7994      2665  TIP3      H1            -29.2999887858       21.6001742980        2.5052013663  W2        2665            0.0000000000
      7995      2665  TIP3      H2            -29.9443287858       20.2812342980        2.1349313663  W2        2665            0.0000000000
      7996      2666  TIP3      OH2           -27.9378987858       24.9753942980        6.1744213663  W2        2666            0.0000000000
      7997      2666  TIP3      H1            -28.1733587858       24.7560642980        7.0759113663  W2        2666            0.0000000000
      7998      2666  TIP3      H2            -28.7212087858       24.7685142980        5.6646713663  W2        2666            0.0000000000
      7999      2667  TIP3      OH2           -25.2222387858       24.1027442980        5.2497713663  W2        2667            0.0000000000
      8000      2667  TIP3      H1            -26.1696987858       24.1347142980        5.3821013663  W2        2667            0.0000000000
      8001      2667  TIP3      H2            -24.9095687858       23.4774542980        5.9035913663  W2        2667            0.0000000000
      8002      2668  TIP3      OH2           -23.5880887858       22.7368542980        7.2549613663  W2        2668            0.0000000000
      8003      2668  TIP3      H1            -23.6849087858       21.7845842980        7.2491513663  W2        2668            0.0000000000
      8004      2668  TIP3      H2            -23.9097787858       23.0055342980        8.1155113663  W2        2668            0.0000000000
      8005      2669  TIP3      OH2           -33.7611587858       23.9464342980        6.3025113663  W2        2669            0.0000000000
      8006      2669  TIP3      H1            -33.5494187858       23.2400442980        5.6922613663  W2        2669            0.0000000000
      8007      2669  TIP3      H2            -33.8724087858       23.5090342980        7.1466313663  W2        2669            0.0000000000
      8008      2670  TIP3      OH2           -28.9801387858       19.9475942980        5.2818613663  W2        2670            0.0000000000
      8009      2670  TIP3      H1            -28.2682987858       19.3078142980        5.2677713663  W2        2670            0.0000000000
      8010      2670  TIP3      H2            -29.0810987858       20.2144242980        4.3681713663  W2        2670            0.0000000000
      8011      2671  TIP3      OH2           -28.6263887858       21.6304342980        7.3354913663  W2        2671            0.0000000000
      8012      2671  TIP3      H1            -28.7581687858       21.1548142980        6.5153413663  W2        2671            0.0000000000
      8013      2671  TIP3      H2            -29.2256487858       22.3747942980        7.2802013663  W2        2671            0.0000000000
      8014      2672  TIP3      OH2           -35.5116687858       33.1498442980      -10.0052986337  W2        2672            0.0000000000
      8015      2672  TIP3      H1            -34.5977487858       33.2287342980       -9.7319086337  W2        2672            0.0000000000
      8016      2672  TIP3      H2            -35.5043587858       32.4628042980      -10.6717386337  W2        2672            0.0000000000
      8017      2673  TIP3      OH2           -35.9926887858       36.6233942980       -3.1232886337  W2        2673            0.0000000000
      8018      2673  TIP3      H1            -36.3270087858       35.7431242980       -2.9512686337  W2        2673            0.0000000000
      8019      2673  TIP3      H2            -35.7704487858       36.9688942980       -2.2587286337  W2        2673            0.0000000000
      8020      2674  TIP3      OH2           -20.4301887858       32.7899542980        7.4171313663  W2        2674            0.0000000000
      8021      2674  TIP3      H1            -21.2960787858       32.6849242980        7.8113613663  W2        2674            0.0000000000
      8022      2674  TIP3      H2            -20.0535987858       33.5482842980        7.8636013663  W2        2674            0.0000000000
      8023      2675  TIP3      OH2           -19.1292187858       31.0463242980       -7.0686186337  W2        2675            0.0000000000
      8024      2675  TIP3      H1            -18.2790787858       31.4674142980       -6.9414586337  W2        2675            0.0000000000
      8025      2675  TIP3      H2            -19.1237087858       30.3063342980       -6.4614786337  W2        2675            0.0000000000
      8026      2676  TIP3      OH2           -18.7346587858       29.1000642980       -5.2450486337  W2        2676            0.0000000000
      8027      2676  TIP3      H1            -19.4611987858       28.6203242980       -4.8472886337  W2        2676            0.0000000000
      8028      2676  TIP3      H2            -18.1533287858       29.3055342980       -4.5128886337  W2        2676            0.0000000000
      8029      2677  TIP3      OH2           -18.9755387858       31.8848142980       -0.2972886337  W2        2677            0.0000000000
      8030      2677  TIP3      H1            -18.1421187858       31.5068142980       -0.5779286337  W2        2677            0.0000000000
      8031      2677  TIP3      H2            -18.8635087858       32.8279342980       -0.4163786337  W2        2677            0.0000000000
      8032      2678  TIP3      OH2           -20.4893087858       34.7625642980        2.0095513663  W2        2678            0.0000000000
      8033      2678  TIP3      H1            -21.1367787858       35.0877142980        2.6350713663  W2        2678            0.0000000000
      8034      2678  TIP3      H2            -21.0069087858       34.3223342980        1.3353813663  W2        2678            0.0000000000
      8035      2679  TIP3      OH2           -18.4663487858       29.0009142980       -8.8539186337  W2        2679            0.0000000000
      8036      2679  TIP3      H1            -18.9882387858       29.3573242980       -9.5728286337  W2        2679            0.0000000000
      8037      2679  TIP3      H2            -18.4994287858       29.6756942980       -8.1758286337  W2        2679            0.0000000000
      8038      2680  TIP3      OH2           -20.1174487858       26.2404742980      -10.3032086337  W2        2680            0.0000000000
      8039      2680  TIP3      H1            -20.0210087858       26.9071742980      -10.9832386337  W2        2680            0.0000000000
      8040      2680  TIP3      H2            -20.2574887858       25.4251042980      -10.7846586337  W2        2680            0.0000000000
      8041      2681  TIP3      OH2           -20.9479787858       27.6207142980       -4.6821786337  W2        2681            0.0000000000
      8042      2681  TIP3      H1            -21.0980987858       26.6755742980       -4.7023986337  W2        2681            0.0000000000
      8043      2681  TIP3      H2            -21.3015287858       27.9018542980       -3.8382686337  W2        2681            0.0000000000
      8044      2682  TIP3      OH2           -35.9127387858       29.6989342980       -0.6717986337  W2        2682            0.0000000000
      8045      2682  TIP3      H1            -35.7284487858       29.6171042980       -1.6075086337  W2        2682            0.0000000000
      8046      2682  TIP3      H2            -35.0634487858       29.5746342980       -0.2481586337  W2        2682            0.0000000000
      8047      2683  TIP3      OH2           -20.0916887858       29.5910442980        4.9566513663  W2        2683            0.0000000000
      8048      2683  TIP3      H1            -19.5089587858       28.8562742980        5.1483713663  W2        2683            0.0000000000
      8049      2683  TIP3      H2            -19.5277587858       30.3630742980        5.0032313663  W2        2683            0.0000000000
      8050      2684  TIP3      OH2           -18.5949787858       27.4936242980        5.6411913663  W2        2684            0.0000000000
      8051      2684  TIP3      H1            -19.4583087858       27.1148342980        5.4756613663  W2        2684            0.0000000000
      8052      2684  TIP3      H2            -17.9906087858       26.7551042980        5.5667713663  W2        2684            0.0000000000
      8053      2685  TIP3      OH2           -20.8700687858       23.6484542980      -11.1856586337  W2        2685            0.0000000000
      8054      2685  TIP3      H1            -20.2594887858       23.2771342980      -10.5488386337  W2        2685            0.0000000000
      8055      2685  TIP3      H2            -21.7069187858       23.2271442980      -10.9896586337  W2        2685            0.0000000000
      8056      2686  TIP3      OH2           -21.2374987858       25.2032942980       -6.2196686337  W2        2686            0.0000000000
      8057      2686  TIP3      H1            -20.9577887858       24.2963342980       -6.0954986337  W2        2686            0.0000000000
      8058      2686  TIP3      H2            -20.4783287858       25.6374442980       -6.6087486337  W2        2686            0.0000000000
      8059      2687  TIP3      OH2           -20.6256687858       25.7850342980       -0.7837786337  W2        2687            0.0000000000
      8060      2687  TIP3      H1            -19.6928687858       25.9970242980       -0.8181786337  W2        2687            0.0000000000
      8061      2687  TIP3      H2            -20.8609187858       25.8862442980        0.1385213663  W2        2687            0.0000000000
      8062      2688  TIP3      OH2           -20.5964787858       26.5215642980        1.9921613663  W2        2688            0.0000000000
      8063      2688  TIP3      H1            -21.4393487858       26.7896042980        2.3581413663  W2        2688            0.0000000000
      8064      2688  TIP3      H2            -20.1540487858       27.3437542980        1.7812713663  W2        2688            0.0000000000
      8065      2689  TIP3      OH2           -36.3152587858       24.9694342980        5.4690813663  W2        2689            0.0000000000
      8066      2689  TIP3      H1            -35.3957687858       24.8472642980        5.7053913663  W2        2689            0.0000000000
      8067      2689  TIP3      H2            -36.7648087858       24.2194042980        5.8584313663  W2        2689            0.0000000000
      8068      2690  TIP3      OH2           -18.3133187858       20.5015842980        7.3456613663  W2        2690            0.0000000000
      8069      2690  TIP3      H1            -17.9636187858       19.8479342980        6.7401313663  W2        2690            0.0000000000
      8070      2690  TIP3      H2            -18.1663687858       21.3389942980        6.9059213663  W2        2690            0.0000000000
      8071      2691  TIP3      OH2           -20.6240187858       22.4662242980       -6.1714686337  W2        2691            0.0000000000
      8072      2691  TIP3      H1            -20.4415187858       22.0173742980       -5.3459686337  W2        2691            0.0000000000
      8073      2691  TIP3      H2            -21.2237287858       21.8816642980       -6.6350086337  W2        2691            0.0000000000
      8074      2692  TIP3      OH2           -35.0940087858       23.2815942980       -1.6396286337  W2        2692            0.0000000000
      8075      2692  TIP3      H1            -34.6488487858       22.4898442980       -1.3376586337  W2        2692            0.0000000000
      8076      2692  TIP3      H2            -34.6277087858       23.9981142980       -1.2090686337  W2        2692            0.0000000000
      8077      2693  TIP3      OH2           -36.7899787858       26.2808942980       -0.5706086337  W2        2693            0.0000000000
      8078      2693  TIP3      H1            -36.2979987858       26.0599442980       -1.3614086337  W2        2693            0.0000000000
      8079      2693  TIP3      H2            -36.4278887858       27.1212342980       -0.2896586337  W2        2693            0.0000000000
      8080      2694  TIP3      OH2           -18.7935987858       22.6110442980        5.6947913663  W2        2694            0.0000000000
      8081      2694  TIP3      H1            -19.7110287858       22.8817542980        5.6591413663  W2        2694            0.0000000000
      8082      2694  TIP3      H2            -18.6706587858       22.0758842980        4.9107613663  W2        2694            0.0000000000
      8083      2695  TIP3      OH2           -18.7573987858       22.5340342980       -9.6434386337  W2        2695            0.0000000000
      8084      2695  TIP3      H1            -18.3451387858       21.8126042980      -10.1186386337  W2        2695            0.0000000000
      8085      2695  TIP3      H2            -18.0757487858       23.2034942980       -9.5850086337  W2        2695            0.0000000000
      8086      2696  TIP3      OH2           -36.4763287858       22.5388042980       -6.5163686337  W2        2696            0.0000000000
      8087      2696  TIP3      H1            -37.4014887858       22.7474642980       -6.6458186337  W2        2696            0.0000000000
      8088      2696  TIP3      H2            -36.0223387858       23.0228842980       -7.2061386337  W2        2696            0.0000000000
      8089      2697  TIP3      OH2           -36.5127887858       21.2767042980        1.8278813663  W2        2697            0.0000000000
      8090      2697  TIP3      H1            -37.1777387858       21.0307342980        2.4709713663  W2        2697            0.0000000000
      8091      2697  TIP3      H2            -36.9556587858       21.8987442980        1.2506813663  W2        2697            0.0000000000
      8092      2698  TIP3      OH2           -34.3208587858       34.4521142980        5.9724613663  W2        2698            0.0000000000
      8093      2698  TIP3      H1            -35.1416087858       34.6267642980        5.5119313663  W2        2698            0.0000000000
      8094      2698  TIP3      H2            -34.5730787858       34.3785842980        6.8929013663  W2        2698            0.0000000000
      8095      2699  TIP3      OH2           -31.3665687858       35.4262342980        2.2308613663  W2        2699            0.0000000000
      8096      2699  TIP3      H1            -31.7914587858       36.2360842980        1.9483213663  W2        2699            0.0000000000
      8097      2699  TIP3      H2            -30.4622887858       35.5116442980        1.9288413663  W2        2699            0.0000000000
      8098      2700  TIP3      OH2           -19.7930087858       20.7006742980        3.5138713663  W2        2700            0.0000000000
      8099      2700  TIP3      H1            -20.6056587858       21.0257042980        3.1263413663  W2        2700            0.0000000000
      8100      2700  TIP3      H2            -19.5601587858       19.9405242980        2.9807813663  W2        2700            0.0000000000
      8101      2701  TIP3      OH2           -32.4087787858       36.0157442980       -2.1564386337  W2        2701            0.0000000000
      8102      2701  TIP3      H1            -32.6277087858       35.0994842980       -1.9868386337  W2        2701            0.0000000000
      8103      2701  TIP3      H2            -31.5845587858       36.1557842980       -1.6902986337  W2        2701            0.0000000000
      8104      2702  TIP3      OH2           -29.8715287858       36.4856742980       -1.3076386337  W2        2702            0.0000000000
      8105      2702  TIP3      H1            -29.6589587858       35.5975742980       -1.5945486337  W2        2702            0.0000000000
      8106      2702  TIP3      H2            -29.8070187858       36.4514442980       -0.3532386337  W2        2702            0.0000000000
      8107      2703  TIP3      OH2           -26.3631587858       22.1497342980       -2.1633086337  W2        2703            0.0000000000
      8108      2703  TIP3      H1            -27.0374787858       21.5202942980       -1.9077286337  W2        2703            0.0000000000
      8109      2703  TIP3      H2            -25.7992387858       21.6656242980       -2.7665186337  W2        2703            0.0000000000
      8110      2704  TIP3      OH2           -21.2204387858       20.2571342980       -2.0505986337  W2        2704            0.0000000000
      8111      2704  TIP3      H1            -20.6166787858       20.8046742980       -2.5524986337  W2        2704            0.0000000000
      8112      2704  TIP3      H2            -22.0902387858       20.5761742980       -2.2911886337  W2        2704            0.0000000000
      8113      2705  TIP3      OH2           -19.4933987858       21.3960042980       -3.7175086337  W2        2705            0.0000000000
      8114      2705  TIP3      H1            -18.8816487858       20.8815742980       -4.2441486337  W2        2705            0.0000000000
      8115      2705  TIP3      H2            -19.1110587858       22.2732142980       -3.6940686337  W2        2705            0.0000000000
      8116      2706  TIP3      OH2           -34.0364087858       20.7837642980       -4.3413186337  W2        2706            0.0000000000
      8117      2706  TIP3      H1            -34.8134287858       20.5492542980       -4.8487286337  W2        2706            0.0000000000
      8118      2706  TIP3      H2            -33.5060487858       19.9869742980       -4.3325186337  W2        2706            0.0000000000
      8119      2707  TIP3      OH2           -35.2000687858       20.5815742980       -8.5377086337  W2        2707            0.0000000000
      8120      2707  TIP3      H1            -34.7609987858       21.1926242980       -9.1293586337  W2        2707            0.0000000000
      8121      2707  TIP3      H2            -35.8338287858       21.1199842980       -8.0637086337  W2        2707            0.0000000000
      8122      2708  TIP3      OH2           -29.4571487858       20.7104742980       -4.5280086337  W2        2708            0.0000000000
      8123      2708  TIP3      H1            -28.5828087858       21.0989042980       -4.5575786337  W2        2708            0.0000000000
      8124      2708  TIP3      H2            -29.5930687858       20.4952542980       -3.6052886337  W2        2708            0.0000000000
      8125      2709  TIP3      OH2           -23.9003087858       20.7404542980       -2.8788386337  W2        2709            0.0000000000
      8126      2709  TIP3      H1            -23.8241487858       20.8356142980       -3.8282386337  W2        2709            0.0000000000
      8127      2709  TIP3      H2            -24.1753887858       19.8327442980       -2.7499286337  W2        2709            0.0000000000
      8128      2710  TIP3      OH2           -22.5470487858       20.7662342980       -7.1863386337  W2        2710            0.0000000000
      8129      2710  TIP3      H1            -23.2499387858       21.3811542980       -7.3961986337  W2        2710            0.0000000000
      8130      2710  TIP3      H2            -22.9919087858       19.9289042980       -7.0552486337  W2        2710            0.0000000000
      8131      2711  TIP3      OH2           -35.2991187858       36.5297942980       -7.6401986337  W2        2711            0.0000000000
      8132      2711  TIP3      H1            -35.9841287858       36.4916842980       -8.3076886337  W2        2711            0.0000000000
      8133      2711  TIP3      H2            -35.2953987858       37.4425542980       -7.3519886337  W2        2711            0.0000000000
      8134      2712  TIP3      OH2           -33.3391587858       22.4977242980      -10.0952986337  W2        2712            0.0000000000
      8135      2712  TIP3      H1            -32.8478187858       21.8679642980      -10.6227486337  W2        2712            0.0000000000
      8136      2712  TIP3      H2            -32.7155287858       22.7936642980       -9.4321786337  W2        2712            0.0000000000
      8137      2713  TIP3      OH2           -28.3131487858       22.7908742980       -7.6382486337  W2        2713            0.0000000000
      8138      2713  TIP3      H1            -28.1350187858       22.1441942980       -6.9553886337  W2        2713            0.0000000000
      8139      2713  TIP3      H2            -28.3665287858       23.6246442980       -7.1711386337  W2        2713            0.0000000000
      8140      2714  TIP3      OH2           -34.0786087858       21.2979542980        5.1763013663  W2        2714            0.0000000000
      8141      2714  TIP3      H1            -34.4447887858       20.5322142980        5.6187713663  W2        2714            0.0000000000
      8142      2714  TIP3      H2            -33.1657587858       21.3269742980        5.4628113663  W2        2714            0.0000000000
      8143      2715  TIP3      OH2           -32.1055287858       20.6483942980        6.7120113663  W2        2715            0.0000000000
      8144      2715  TIP3      H1            -31.2071687858       20.3744142980        6.5273513663  W2        2715            0.0000000000
      8145      2715  TIP3      H2            -32.4922187858       19.9059942980        7.1762713663  W2        2715            0.0000000000
      8146      2716  TIP3      OH2           -23.6842987858       19.9809242980        6.8942913663  W2        2716            0.0000000000
      8147      2716  TIP3      H1            -23.6075787858       19.5549942980        7.7480613663  W2        2716            0.0000000000
      8148      2716  TIP3      H2            -22.7906387858       19.9943942980        6.5516413663  W2        2716            0.0000000000
      8149      2717  TIP3      OH2           -20.5081887858       36.0535542980        5.5867113663  W2        2717            0.0000000000
      8150      2717  TIP3      H1            -21.2899987858       35.8673542980        5.0667713663  W2        2717            0.0000000000
      8151      2717  TIP3      H2            -20.5801987858       36.9829842980        5.8039613663  W2        2717            0.0000000000
      8152      2718  TIP3      OH2            -6.1021487858       29.9399942980       -4.3825686337  W2        2718            0.0000000000
      8153      2718  TIP3      H1             -6.0130387858       30.8838142980       -4.5148586337  W2        2718            0.0000000000
      8154      2718  TIP3      H2             -6.7403887858       29.6646342980       -5.0406286337  W2        2718            0.0000000000
      8155      2719  TIP3      OH2            -7.1690187858       29.1950642980       -0.9637486337  W2        2719            0.0000000000
      8156      2719  TIP3      H1             -7.2072687858       28.5486942980       -0.2587886337  W2        2719            0.0000000000
      8157      2719  TIP3      H2             -7.4913687858       28.7285042980       -1.7348786337  W2        2719            0.0000000000
      8158      2720  TIP3      OH2           -14.8005187858       28.8092742980        0.6292413663  W2        2720            0.0000000000
      8159      2720  TIP3      H1            -14.7593087858       28.1836042980        1.3524813663  W2        2720            0.0000000000
      8160      2720  TIP3      H2            -14.0977487858       29.4331342980        0.8112813663  W2        2720            0.0000000000
      8161      2721  TIP3      OH2            -3.4629987858       32.1341042980       -2.6622386337  W2        2721            0.0000000000
      8162      2721  TIP3      H1             -3.9037287858       31.4137042980       -2.2116786337  W2        2721            0.0000000000
      8163      2721  TIP3      H2             -3.4760287858       32.8548242980       -2.0324686337  W2        2721            0.0000000000
      8164      2722  TIP3      OH2           -13.8772087858       33.2591642980       -0.8358486337  W2        2722            0.0000000000
      8165      2722  TIP3      H1            -14.2466887858       32.4572142980       -1.2054186337  W2        2722            0.0000000000
      8166      2722  TIP3      H2            -12.9360987858       33.0906542980       -0.7895086337  W2        2722            0.0000000000
      8167      2723  TIP3      OH2           -17.2671587858       26.9194242980       -5.4429686337  W2        2723            0.0000000000
      8168      2723  TIP3      H1            -17.7148187858       27.7652942980       -5.4613186337  W2        2723            0.0000000000
      8169      2723  TIP3      H2            -17.8280387858       26.3398442980       -5.9584586337  W2        2723            0.0000000000
      8170      2724  TIP3      OH2           -16.5565487858       29.0813842980       -3.3171686337  W2        2724            0.0000000000
      8171      2724  TIP3      H1            -16.3431987858       28.3115442980       -2.7898686337  W2        2724            0.0000000000
      8172      2724  TIP3      H2            -15.8187887858       29.1710542980       -3.9204086337  W2        2724            0.0000000000
      8173      2725  TIP3      OH2            -8.7795787858       31.6272042980       -0.5576486337  W2        2725            0.0000000000
      8174      2725  TIP3      H1             -8.4757887858       30.9413442980       -1.1522386337  W2        2725            0.0000000000
      8175      2725  TIP3      H2             -8.0581787858       31.7460742980        0.0601513663  W2        2725            0.0000000000
      8176      2726  TIP3      OH2            -0.1165987858       23.2287342980        0.3029713663  W2        2726            0.0000000000
      8177      2726  TIP3      H1             -0.0673787858       23.8388542980        1.0388813663  W2        2726            0.0000000000
      8178      2726  TIP3      H2              0.3089112142       23.6898242980       -0.4199186337  W2        2726            0.0000000000
      8179      2727  TIP3      OH2            -5.6388787858       26.0214442980       -0.2301686337  W2        2727            0.0000000000
      8180      2727  TIP3      H1             -5.4962887858       25.0751442980       -0.2100086337  W2        2727            0.0000000000
      8181      2727  TIP3      H2             -5.7449787858       26.2284242980       -1.1586786337  W2        2727            0.0000000000
      8182      2728  TIP3      OH2           -12.4840487858       24.1230842980       -2.9576886337  W2        2728            0.0000000000
      8183      2728  TIP3      H1            -12.4409387858       24.9829342980       -3.3760586337  W2        2728            0.0000000000
      8184      2728  TIP3      H2            -12.9416387858       23.5705542980       -3.5913686337  W2        2728            0.0000000000
      8185      2729  TIP3      OH2            -4.7617787858       24.2536442980       -4.5568586337  W2        2729            0.0000000000
      8186      2729  TIP3      H1             -4.1153487858       23.9249642980       -3.9320986337  W2        2729            0.0000000000
      8187      2729  TIP3      H2             -4.2518387858       24.7715442980       -5.1797186337  W2        2729            0.0000000000
      8188      2730  TIP3      OH2           -15.8638987858       26.5196642980       -2.1955486337  W2        2730            0.0000000000
      8189      2730  TIP3      H1            -15.2102387858       25.9698342980       -1.7635386337  W2        2730            0.0000000000
      8190      2730  TIP3      H2            -15.8399687858       26.2455642980       -3.1123486337  W2        2730            0.0000000000
      8191      2731  TIP3      OH2           -10.7074487858       28.0697942980       -2.9803986337  W2        2731            0.0000000000
      8192      2731  TIP3      H1            -10.0913487858       27.5433342980       -2.4709986337  W2        2731            0.0000000000
      8193      2731  TIP3      H2            -11.2935687858       27.4296642980       -3.3840386337  W2        2731            0.0000000000
      8194      2732  TIP3      OH2             0.2748612142       24.7066542980        2.5389513663  W2        2732            0.0000000000
      8195      2732  TIP3      H1             -0.4136787858       25.3647242980        2.4436113663  W2        2732            0.0000000000
      8196      2732  TIP3      H2              0.2903212142       24.5094442980        3.4754913663  W2        2732            0.0000000000
      8197      2733  TIP3      OH2           -13.6738587858       23.0409242980        1.1163913663  W2        2733            0.0000000000
      8198      2733  TIP3      H1            -13.8926887858       23.5709842980        0.3499913663  W2        2733            0.0000000000
      8199      2733  TIP3      H2            -14.3417687858       23.2674742980        1.7635313663  W2        2733            0.0000000000
      8200      2734  TIP3      OH2            -6.3048787858       32.5410342980       -5.3396986337  W2        2734            0.0000000000
      8201      2734  TIP3      H1             -6.6003687858       32.2182642980       -6.1910086337  W2        2734            0.0000000000
      8202      2734  TIP3      H2             -6.6290987858       33.4407042980       -5.2984386337  W2        2734            0.0000000000
      8203      2735  TIP3      OH2           -11.1047187858       30.7164942980        1.4037613663  W2        2735            0.0000000000
      8204      2735  TIP3      H1            -11.8448087858       31.3146442980        1.5072813663  W2        2735            0.0000000000
      8205      2735  TIP3      H2            -10.3907687858       31.2704542980        1.0881213663  W2        2735            0.0000000000
      8206      2736  TIP3      OH2            -2.9979387858       23.5445742980       -2.5762686337  W2        2736            0.0000000000
      8207      2736  TIP3      H1             -3.2131387858       22.7789142980       -2.0436686337  W2        2736            0.0000000000
      8208      2736  TIP3      H2             -2.3421987858       24.0170342980       -2.0634186337  W2        2736            0.0000000000
      8209      2737  TIP3      OH2           -14.0801287858       24.9331042980       -0.9313886337  W2        2737            0.0000000000
      8210      2737  TIP3      H1            -13.4664987858       25.5658642980       -0.5581486337  W2        2737            0.0000000000
      8211      2737  TIP3      H2            -13.5680587858       24.4606042980       -1.5876986337  W2        2737            0.0000000000
      8212      2738  TIP3      OH2           -12.6972887858       32.6807942980        2.1909113663  W2        2738            0.0000000000
      8213      2738  TIP3      H1            -12.7025287858       33.5601442980        1.8128413663  W2        2738            0.0000000000
      8214      2738  TIP3      H2            -13.5508787858       32.5972042980        2.6159013663  W2        2738            0.0000000000
      8215      2739  TIP3      OH2           -16.5761987858       32.3515842980       -7.0271586337  W2        2739            0.0000000000
      8216      2739  TIP3      H1            -16.8481087858       32.5806842980       -7.9158686337  W2        2739            0.0000000000
      8217      2739  TIP3      H2            -16.5306287858       33.1894642980       -6.5666286337  W2        2739            0.0000000000
      8218      2740  TIP3      OH2            -2.9512287858       33.9731742980       -0.3143086337  W2        2740            0.0000000000
      8219      2740  TIP3      H1             -3.8928587858       34.0315642980       -0.1526186337  W2        2740            0.0000000000
      8220      2740  TIP3      H2             -2.6746187858       34.8792242980       -0.4513386337  W2        2740            0.0000000000
      8221      2741  TIP3      OH2            -2.6505287858       22.2597042980        1.1030813663  W2        2741            0.0000000000
      8222      2741  TIP3      H1             -3.3866087858       22.8704142980        1.0652113663  W2        2741            0.0000000000
      8223      2741  TIP3      H2             -1.9671287858       22.6746042980        0.5767213663  W2        2741            0.0000000000
      8224      2742  TIP3      OH2            -9.6473887858       20.3464342980       -1.4311186337  W2        2742            0.0000000000
      8225      2742  TIP3      H1             -9.7649687858       19.3980342980       -1.4852886337  W2        2742            0.0000000000
      8226      2742  TIP3      H2            -10.5023787858       20.6790442980       -1.1580086337  W2        2742            0.0000000000
      8227      2743  TIP3      OH2            -4.6991087858       35.7545242980       -3.6891486337  W2        2743            0.0000000000
      8228      2743  TIP3      H1             -4.2738787858       35.0473142980       -4.1741886337  W2        2743            0.0000000000
      8229      2743  TIP3      H2             -4.3821087858       36.5557942980       -4.1059286337  W2        2743            0.0000000000
      8230      2744  TIP3      OH2            -3.5394587858       33.6553742980       -5.1804886337  W2        2744            0.0000000000
      8231      2744  TIP3      H1             -3.7969787858       32.9653842980       -5.7918986337  W2        2744            0.0000000000
      8232      2744  TIP3      H2             -3.4683787858       33.2124942980       -4.3348986337  W2        2744            0.0000000000
      8233      2745  TIP3      OH2            -1.8534387858       32.2220442980        3.2968613663  W2        2745            0.0000000000
      8234      2745  TIP3      H1             -1.7138087858       31.6302942980        2.5575613663  W2        2745            0.0000000000
      8235      2745  TIP3      H2             -1.6861587858       33.0946342980        2.9407413663  W2        2745            0.0000000000
      8236      2746  TIP3      OH2            -7.3808987858       29.1839942980       -6.9305386337  W2        2746            0.0000000000
      8237      2746  TIP3      H1             -8.0923487858       29.7189642980       -7.2824886337  W2        2746            0.0000000000
      8238      2746  TIP3      H2             -6.6899387858       29.2392042980       -7.5906486337  W2        2746            0.0000000000
      8239      2747  TIP3      OH2            -7.3269787858       27.6414242980       -9.8920386337  W2        2747            0.0000000000
      8240      2747  TIP3      H1             -6.6259887858       27.6641142980       -9.2406386337  W2        2747            0.0000000000
      8241      2747  TIP3      H2             -7.0246887858       27.0133942980      -10.5481086337  W2        2747            0.0000000000
      8242      2748  TIP3      OH2            -0.0115087858       28.5618442980        1.3629013663  W2        2748            0.0000000000
      8243      2748  TIP3      H1             -0.6640987858       29.2564042980        1.4519913663  W2        2748            0.0000000000
      8244      2748  TIP3      H2              0.4535212142       28.7719342980        0.5530613663  W2        2748            0.0000000000
      8245      2749  TIP3      OH2            -3.9751287858       29.3933242980       -5.9789486337  W2        2749            0.0000000000
      8246      2749  TIP3      H1             -4.7070287858       29.6216942980       -5.4058886337  W2        2749            0.0000000000
      8247      2749  TIP3      H2             -3.5279087858       28.6795942980       -5.5241986337  W2        2749            0.0000000000
      8248      2750  TIP3      OH2            -4.0777787858       27.5675842980        3.0887513663  W2        2750            0.0000000000
      8249      2750  TIP3      H1             -3.9978687858       28.3310242980        3.6606013663  W2        2750            0.0000000000
      8250      2750  TIP3      H2             -4.6790087858       27.8468242980        2.3982613663  W2        2750            0.0000000000
      8251      2751  TIP3      OH2           -12.3297587858       30.0239442980       -4.0964486337  W2        2751            0.0000000000
      8252      2751  TIP3      H1            -12.6602387858       29.6532842980       -4.9147486337  W2        2751            0.0000000000
      8253      2751  TIP3      H2            -11.7413487858       29.3533442980       -3.7496186337  W2        2751            0.0000000000
      8254      2752  TIP3      OH2           -10.9630087858       33.4520042980       -1.4152286337  W2        2752            0.0000000000
      8255      2752  TIP3      H1            -11.0578787858       32.8733142980       -2.1717686337  W2        2752            0.0000000000
      8256      2752  TIP3      H2            -10.2336487858       33.0805742980       -0.9189486337  W2        2752            0.0000000000
      8257      2753  TIP3      OH2           -11.9632087858       28.7925042980       -0.4629486337  W2        2753            0.0000000000
      8258      2753  TIP3      H1            -11.3979587858       28.9139242980       -1.2258286337  W2        2753            0.0000000000
      8259      2753  TIP3      H2            -11.6443187858       29.4300042980        0.1759013663  W2        2753            0.0000000000
      8260      2754  TIP3      OH2            -5.6539887858       34.2956942980        0.2711013663  W2        2754            0.0000000000
      8261      2754  TIP3      H1             -5.8943287858       34.9580042980        0.9190213663  W2        2754            0.0000000000
      8262      2754  TIP3      H2             -5.8521687858       33.4612142980        0.6960613663  W2        2754            0.0000000000
      8263      2755  TIP3      OH2           -11.0831387858       33.1917742980        4.2542413663  W2        2755            0.0000000000
      8264      2755  TIP3      H1            -11.3943887858       33.9740942980        4.7095613663  W2        2755            0.0000000000
      8265      2755  TIP3      H2            -11.7331187858       33.0386842980        3.5684413663  W2        2755            0.0000000000
      8266      2756  TIP3      OH2            -5.1041787858       28.5556142980       -8.2938286337  W2        2756            0.0000000000
      8267      2756  TIP3      H1             -4.5246287858       28.7056442980       -7.5469386337  W2        2756            0.0000000000
      8268      2756  TIP3      H2             -4.6901787858       29.0263542980       -9.0171886337  W2        2756            0.0000000000
      8269      2757  TIP3      OH2           -14.1631487858       29.3898842980        3.4828113663  W2        2757            0.0000000000
      8270      2757  TIP3      H1            -14.0928287858       30.0405642980        4.1813113663  W2        2757            0.0000000000
      8271      2757  TIP3      H2            -15.0539287858       29.4926342980        3.1479013663  W2        2757            0.0000000000
      8272      2758  TIP3      OH2            -7.3776887858       35.2924642980       -4.8585186337  W2        2758            0.0000000000
      8273      2758  TIP3      H1             -6.9039287858       35.5880942980       -4.0810986337  W2        2758            0.0000000000
      8274      2758  TIP3      H2             -7.9407587858       36.0306242980       -5.0915586337  W2        2758            0.0000000000
      8275      2759  TIP3      OH2           -12.8435487858       35.2632742980        5.0176213663  W2        2759            0.0000000000
      8276      2759  TIP3      H1            -12.8360187858       35.1272442980        4.0701713663  W2        2759            0.0000000000
      8277      2759  TIP3      H2            -13.7595087858       35.1460842980        5.2696213663  W2        2759            0.0000000000
      8278      2760  TIP3      OH2            -1.4053387858       20.3056542980       -8.4808586337  W2        2760            0.0000000000
      8279      2760  TIP3      H1             -2.3052687858       20.4445542980       -8.1857986337  W2        2760            0.0000000000
      8280      2760  TIP3      H2             -1.1534987858       21.1371142980       -8.8826886337  W2        2760            0.0000000000
      8281      2761  TIP3      OH2           -13.3394887858       29.0933742980       -6.5071686337  W2        2761            0.0000000000
      8282      2761  TIP3      H1            -13.6313587858       29.8615442980       -6.9980386337  W2        2761            0.0000000000
      8283      2761  TIP3      H2            -14.0139687858       28.4339942980       -6.6700286337  W2        2761            0.0000000000
      8284      2762  TIP3      OH2            -0.2161987858       34.6718942980      -10.1044686337  W2        2762            0.0000000000
      8285      2762  TIP3      H1             -0.1428487858       35.6109142980       -9.9339386337  W2        2762            0.0000000000
      8286      2762  TIP3      H2              0.6893112142       34.3667542980      -10.1607386337  W2        2762            0.0000000000
      8287      2763  TIP3      OH2           -17.2464787858       31.4562942980        2.3078113663  W2        2763            0.0000000000
      8288      2763  TIP3      H1            -17.7476387858       31.4282342980        1.4927813663  W2        2763            0.0000000000
      8289      2763  TIP3      H2            -17.2411087858       30.5506142980        2.6175413663  W2        2763            0.0000000000
      8290      2764  TIP3      OH2           -17.4962087858       34.2366742980       -0.8081686337  W2        2764            0.0000000000
      8291      2764  TIP3      H1            -16.5501487858       34.0923742980       -0.8272186337  W2        2764            0.0000000000
      8292      2764  TIP3      H2            -17.6085787858       35.0209542980       -0.2710486337  W2        2764            0.0000000000
      8293      2765  TIP3      OH2             0.7016412142       34.9026442980        4.8742013663  W2        2765            0.0000000000
      8294      2765  TIP3      H1              0.6523212142       33.9474542980        4.8369613663  W2        2765            0.0000000000
      8295      2765  TIP3      H2             -0.1251287858       35.1701742980        5.2755813663  W2        2765            0.0000000000
      8296      2766  TIP3      OH2            -8.3199587858       34.4765642980        3.7503413663  W2        2766            0.0000000000
      8297      2766  TIP3      H1             -8.2324987858       35.3030242980        4.2252513663  W2        2766            0.0000000000
      8298      2766  TIP3      H2             -9.1834487858       34.1469442980        3.9992713663  W2        2766            0.0000000000
      8299      2767  TIP3      OH2            -2.1463787858       26.3958942980        5.3544213663  W2        2767            0.0000000000
      8300      2767  TIP3      H1             -2.5536987858       26.8764542980        4.6337513663  W2        2767            0.0000000000
      8301      2767  TIP3      H2             -2.1058087858       25.4904942980        5.0465013663  W2        2767            0.0000000000
      8302      2768  TIP3      OH2           -14.9974287858       32.7798342980        3.3510913663  W2        2768            0.0000000000
      8303      2768  TIP3      H1            -14.7812987858       32.4183942980        4.2106713663  W2        2768            0.0000000000
      8304      2768  TIP3      H2            -15.8529587858       32.4052142980        3.1414413663  W2        2768            0.0000000000
      8305      2769  TIP3      OH2           -12.3786287858       21.2498842980       -0.6534886337  W2        2769            0.0000000000
      8306      2769  TIP3      H1            -13.2402587858       21.1627042980       -1.0611986337  W2        2769            0.0000000000
      8307      2769  TIP3      H2            -12.4010587858       22.1058942980       -0.2257286337  W2        2769            0.0000000000
      8308      2770  TIP3      OH2            -7.7158487858       20.9719242980        2.7212113663  W2        2770            0.0000000000
      8309      2770  TIP3      H1             -7.2955387858       20.5566342980        3.4742713663  W2        2770            0.0000000000
      8310      2770  TIP3      H2             -8.6488887858       20.7932542980        2.8384113663  W2        2770            0.0000000000
      8311      2771  TIP3      OH2            -4.3893587858       24.7274442980        3.5746613663  W2        2771            0.0000000000
      8312      2771  TIP3      H1             -4.9034087858       24.6016642980        4.3722613663  W2        2771            0.0000000000
      8313      2771  TIP3      H2             -4.5448887858       25.6397542980        3.3302813663  W2        2771            0.0000000000
      8314      2772  TIP3      OH2            -3.6268687858       29.5884442980      -10.6640386337  W2        2772            0.0000000000
      8315      2772  TIP3      H1             -3.5847887858       29.3658342980      -11.5940386337  W2        2772            0.0000000000
      8316      2772  TIP3      H2             -2.7776587858       29.9871542980      -10.4740486337  W2        2772            0.0000000000
      8317      2773  TIP3      OH2            -8.0541187858       23.4642642980       -9.9937086337  W2        2773            0.0000000000
      8318      2773  TIP3      H1             -8.3076387858       23.4834242980       -9.0708986337  W2        2773            0.0000000000
      8319      2773  TIP3      H2             -8.3109087858       22.5928042980      -10.2950886337  W2        2773            0.0000000000
      8320      2774  TIP3      OH2           -12.2876187858       26.2153342980        0.4415313663  W2        2774            0.0000000000
      8321      2774  TIP3      H1            -12.9294087858       26.1750642980        1.1505413663  W2        2774            0.0000000000
      8322      2774  TIP3      H2            -12.2504187858       27.1418042980        0.2038313663  W2        2774            0.0000000000
      8323      2775  TIP3      OH2           -12.2907087858       26.4363442980       -4.6464686337  W2        2775            0.0000000000
      8324      2775  TIP3      H1            -13.1834187858       26.0959542980       -4.7050886337  W2        2775            0.0000000000
      8325      2775  TIP3      H2            -11.8400487858       26.0594342980       -5.4021486337  W2        2775            0.0000000000
      8326      2776  TIP3      OH2            -6.7551587858       26.8523742980       -5.8293886337  W2        2776            0.0000000000
      8327      2776  TIP3      H1             -7.1641287858       27.6672342980       -6.1209086337  W2        2776            0.0000000000
      8328      2776  TIP3      H2             -6.0345387858       26.7123842980       -6.4436786337  W2        2776            0.0000000000
      8329      2777  TIP3      OH2            -7.6529987858       27.0280142980        5.6586813663  W2        2777            0.0000000000
      8330      2777  TIP3      H1             -8.2156187858       26.3231742980        5.9794613663  W2        2777            0.0000000000
      8331      2777  TIP3      H2             -6.8266587858       26.9072042980        6.1264413663  W2        2777            0.0000000000
      8332      2778  TIP3      OH2            -5.7503887858       26.2984142980       -3.0154186337  W2        2778            0.0000000000
      8333      2778  TIP3      H1             -5.9459387858       26.9040942980       -3.7303586337  W2        2778            0.0000000000
      8334      2778  TIP3      H2             -5.5691287858       25.4649342980       -3.4497886337  W2        2778            0.0000000000
      8335      2779  TIP3      OH2           -14.5375687858       26.5356842980        2.3087313663  W2        2779            0.0000000000
      8336      2779  TIP3      H1            -14.5756287858       26.9358442980        3.1774413663  W2        2779            0.0000000000
      8337      2779  TIP3      H2            -15.0284587858       25.7189242980        2.3990213663  W2        2779            0.0000000000
      8338      2780  TIP3      OH2           -11.1718287858       23.9099142980      -10.8926686337  W2        2780            0.0000000000
      8339      2780  TIP3      H1            -11.6027587858       23.4649242980      -10.1629286337  W2        2780            0.0000000000
      8340      2780  TIP3      H2            -11.8899587858       24.2815442980      -11.4049186337  W2        2780            0.0000000000
      8341      2781  TIP3      OH2           -17.9294887858       23.6518642980       -3.8407986337  W2        2781            0.0000000000
      8342      2781  TIP3      H1            -17.2987187858       23.6230742980       -3.1214086337  W2        2781            0.0000000000
      8343      2781  TIP3      H2            -17.4800587858       23.2267342980       -4.5712086337  W2        2781            0.0000000000
      8344      2782  TIP3      OH2           -16.6552787858       24.3980642980       -8.4167586337  W2        2782            0.0000000000
      8345      2782  TIP3      H1            -16.1811087858       24.9890542980       -9.0016686337  W2        2782            0.0000000000
      8346      2782  TIP3      H2            -17.3726387858       24.9283542980       -8.0697486337  W2        2782            0.0000000000
      8347      2783  TIP3      OH2            -6.4864687858       27.9365442980        1.6558213663  W2        2783            0.0000000000
      8348      2783  TIP3      H1             -6.1629887858       27.3055142980        1.0128713663  W2        2783            0.0000000000
      8349      2783  TIP3      H2             -6.9265387858       27.4017642980        2.3165613663  W2        2783            0.0000000000
      8350      2784  TIP3      OH2            -9.7091787858       23.8640942980       -3.5600586337  W2        2784            0.0000000000
      8351      2784  TIP3      H1            -10.6200687858       23.9207742980       -3.2714586337  W2        2784            0.0000000000
      8352      2784  TIP3      H2             -9.2038887858       23.8036442980       -2.7493386337  W2        2784            0.0000000000
      8353      2785  TIP3      OH2           -14.8808387858       25.4927242980       -4.7332986337  W2        2785            0.0000000000
      8354      2785  TIP3      H1            -15.7700387858       25.5922742980       -5.0733386337  W2        2785            0.0000000000
      8355      2785  TIP3      H2            -14.5843487858       24.6510242980       -5.0795086337  W2        2785            0.0000000000
      8356      2786  TIP3      OH2           -11.2276587858       25.4929842980       -7.0768386337  W2        2786            0.0000000000
      8357      2786  TIP3      H1            -10.2961087858       25.6219842980       -6.8985286337  W2        2786            0.0000000000
      8358      2786  TIP3      H2            -11.4426287858       26.1624142980       -7.7263686337  W2        2786            0.0000000000
      8359      2787  TIP3      OH2            -5.3039887858       23.0987242980       -0.2958786337  W2        2787            0.0000000000
      8360      2787  TIP3      H1             -5.9808287858       23.2300342980        0.3680913663  W2        2787            0.0000000000
      8361      2787  TIP3      H2             -5.7894987858       22.9436742980       -1.1061086337  W2        2787            0.0000000000
      8362      2788  TIP3      OH2           -12.5536387858       26.6872042980       -9.5102286337  W2        2788            0.0000000000
      8363      2788  TIP3      H1            -13.0961287858       26.3075842980      -10.2014686337  W2        2788            0.0000000000
      8364      2788  TIP3      H2            -11.7201487858       26.8816742980       -9.9388186337  W2        2788            0.0000000000
      8365      2789  TIP3      OH2           -14.4184987858       31.2443942980        5.5889313663  W2        2789            0.0000000000
      8366      2789  TIP3      H1            -13.6862587858       31.4989842980        6.1503813663  W2        2789            0.0000000000
      8367      2789  TIP3      H2            -15.1986287858       31.4489342980        6.1044713663  W2        2789            0.0000000000
      8368      2790  TIP3      OH2            -8.3892087858       26.6513942980       -1.6730986337  W2        2790            0.0000000000
      8369      2790  TIP3      H1             -7.8248687858       26.1050542980       -2.2201386337  W2        2790            0.0000000000
      8370      2790  TIP3      H2             -8.5368687858       26.1295842980       -0.8843386337  W2        2790            0.0000000000
      8371      2791  TIP3      OH2           -13.3872387858       22.7880042980       -5.2546186337  W2        2791            0.0000000000
      8372      2791  TIP3      H1            -13.7042887858       21.8855342980       -5.2900786337  W2        2791            0.0000000000
      8373      2791  TIP3      H2            -12.6058287858       22.7897442980       -5.8074586337  W2        2791            0.0000000000
      8374      2792  TIP3      OH2            -9.7626187858       25.0400042980        0.7409413663  W2        2792            0.0000000000
      8375      2792  TIP3      H1            -10.5980887858       25.4939542980        0.8511813663  W2        2792            0.0000000000
      8376      2792  TIP3      H2             -9.2385587858       25.3158542980        1.4929313663  W2        2792            0.0000000000
      8377      2793  TIP3      OH2            -9.2183587858       31.2527742980       -7.5744186337  W2        2793            0.0000000000
      8378      2793  TIP3      H1             -9.9632587858       30.7453042980       -7.8966286337  W2        2793            0.0000000000
      8379      2793  TIP3      H2             -9.3526387858       31.3015742980       -6.6279386337  W2        2793            0.0000000000
      8380      2794  TIP3      OH2            -2.0684687858       30.3855942980        1.2123413663  W2        2794            0.0000000000
      8381      2794  TIP3      H1             -1.4265887858       30.8422242980        0.6685613663  W2        2794            0.0000000000
      8382      2794  TIP3      H2             -2.8987787858       30.4988342980        0.7497513663  W2        2794            0.0000000000
      8383      2795  TIP3      OH2            -5.3206787858       24.0667642980       -9.3751586337  W2        2795            0.0000000000
      8384      2795  TIP3      H1             -6.2592587858       24.1783242980       -9.5262786337  W2        2795            0.0000000000
      8385      2795  TIP3      H2             -5.0234687858       24.9234542980       -9.0685886337  W2        2795            0.0000000000
      8386      2796  TIP3      OH2            -7.6991487858       31.4371042980        3.6624913663  W2        2796            0.0000000000
      8387      2796  TIP3      H1             -8.0445387858       31.0553442980        4.4694513663  W2        2796            0.0000000000
      8388      2796  TIP3      H2             -7.8991387858       32.3704642980        3.7337813663  W2        2796            0.0000000000
      8389      2797  TIP3      OH2            -4.6023287858       25.9340342980       -7.7144186337  W2        2797            0.0000000000
      8390      2797  TIP3      H1             -3.7104287858       25.7965342980       -7.3952986337  W2        2797            0.0000000000
      8391      2797  TIP3      H2             -4.5459687858       26.7246442980       -8.2510686337  W2        2797            0.0000000000
      8392      2798  TIP3      OH2           -14.0935287858       30.5477742980       -1.8046286337  W2        2798            0.0000000000
      8393      2798  TIP3      H1            -13.3488087858       30.5453442980       -2.4059786337  W2        2798            0.0000000000
      8394      2798  TIP3      H2            -14.0158687858       29.7241542980       -1.3231186337  W2        2798            0.0000000000
      8395      2799  TIP3      OH2            -7.0929487858       32.7112042980       -8.5489586337  W2        2799            0.0000000000
      8396      2799  TIP3      H1             -7.3881087858       33.5379942980       -8.1674786337  W2        2799            0.0000000000
      8397      2799  TIP3      H2             -7.7959487858       32.0918942980       -8.3528186337  W2        2799            0.0000000000
      8398      2800  TIP3      OH2           -17.0855587858       29.0084642980        3.5102213663  W2        2800            0.0000000000
      8399      2800  TIP3      H1            -16.8626987858       28.5904242980        4.3419713663  W2        2800            0.0000000000
      8400      2800  TIP3      H2            -17.6875487858       28.3959642980        3.0875013663  W2        2800            0.0000000000
      8401      2801  TIP3      OH2           -10.0690687858       28.5254542980        5.7231913663  W2        2801            0.0000000000
      8402      2801  TIP3      H1            -10.3649887858       28.3597542980        4.8281013663  W2        2801            0.0000000000
      8403      2801  TIP3      H2             -9.1375487858       28.3054842980        5.7125813663  W2        2801            0.0000000000
      8404      2802  TIP3      OH2            -5.4487887858       33.8986542980        3.6129913663  W2        2802            0.0000000000
      8405      2802  TIP3      H1             -6.3493587858       34.0819142980        3.3453813663  W2        2802            0.0000000000
      8406      2802  TIP3      H2             -5.4146787858       34.1575842980        4.5338713663  W2        2802            0.0000000000
      8407      2803  TIP3      OH2             0.2825412142       26.1434442980       -8.0197486337  W2        2803            0.0000000000
      8408      2803  TIP3      H1             -0.2718287858       25.7472442980       -8.6919986337  W2        2803            0.0000000000
      8409      2803  TIP3      H2              0.3829012142       27.0539642980       -8.2974186337  W2        2803            0.0000000000
      8410      2804  TIP3      OH2             0.2457412142       31.9436142980        4.8174013663  W2        2804            0.0000000000
      8411      2804  TIP3      H1             -0.6054087858       32.1819942980        4.4500413663  W2        2804            0.0000000000
      8412      2804  TIP3      H2              0.8360812142       31.9269342980        4.0641113663  W2        2804            0.0000000000
      8413      2805  TIP3      OH2            -1.4222887858       34.9294842980       -7.5545386337  W2        2805            0.0000000000
      8414      2805  TIP3      H1             -1.7951787858       34.1038642980       -7.2454786337  W2        2805            0.0000000000
      8415      2805  TIP3      H2             -1.1449387858       34.7464242980       -8.4521986337  W2        2805            0.0000000000
      8416      2806  TIP3      OH2            -4.2618987858       29.7374342980       -0.5333486337  W2        2806            0.0000000000
      8417      2806  TIP3      H1             -5.1902087858       29.5056242980       -0.5604186337  W2        2806            0.0000000000
      8418      2806  TIP3      H2             -3.8107887858       28.9604142980       -0.8634686337  W2        2806            0.0000000000
      8419      2807  TIP3      OH2           -11.7185887858       34.0655942980       -4.4004786337  W2        2807            0.0000000000
      8420      2807  TIP3      H1            -11.1913687858       34.8390342980       -4.6005986337  W2        2807            0.0000000000
      8421      2807  TIP3      H2            -12.5987387858       34.2905142980       -4.7020786337  W2        2807            0.0000000000
      8422      2808  TIP3      OH2           -15.9638187858       28.9280042980       -9.8132386337  W2        2808            0.0000000000
      8423      2808  TIP3      H1            -15.3478287858       29.5547242980       -9.4337586337  W2        2808            0.0000000000
      8424      2808  TIP3      H2            -16.8255587858       29.2439842980       -9.5415886337  W2        2808            0.0000000000
      8425      2809  TIP3      OH2           -10.2913587858       31.7285842980       -4.8240486337  W2        2809            0.0000000000
      8426      2809  TIP3      H1            -10.5323587858       32.6540242980       -4.7825186337  W2        2809            0.0000000000
      8427      2809  TIP3      H2            -11.0319987858       31.2697142980       -4.4276586337  W2        2809            0.0000000000
      8428      2810  TIP3      OH2            -9.7766987858       35.8779442980        1.4910613663  W2        2810            0.0000000000
      8429      2810  TIP3      H1             -9.4142287858       36.7325042980        1.2575013663  W2        2810            0.0000000000
      8430      2810  TIP3      H2             -9.2451787858       35.5861042980        2.2316913663  W2        2810            0.0000000000
      8431      2811  TIP3      OH2           -11.6082787858       36.7503442980       -5.2788286337  W2        2811            0.0000000000
      8432      2811  TIP3      H1            -12.5582287858       36.8560842980       -5.2274986337  W2        2811            0.0000000000
      8433      2811  TIP3      H2            -11.2564687858       37.5710842980       -4.9340786337  W2        2811            0.0000000000
      8434      2812  TIP3      OH2            -6.2326187858       31.9770142980        1.1916213663  W2        2812            0.0000000000
      8435      2812  TIP3      H1             -6.6584887858       31.7491842980        2.0180213663  W2        2812            0.0000000000
      8436      2812  TIP3      H2             -5.6520387858       31.2381942980        1.0091513663  W2        2812            0.0000000000
      8437      2813  TIP3      OH2            -4.0297287858       32.9060642980       -9.7344786337  W2        2813            0.0000000000
      8438      2813  TIP3      H1             -3.6764187858       32.5260442980       -8.9301286337  W2        2813            0.0000000000
      8439      2813  TIP3      H2             -4.9783787858       32.8125442980       -9.6475486337  W2        2813            0.0000000000
      8440      2814  TIP3      OH2            -3.5741987858       36.5289642980        3.6611013663  W2        2814            0.0000000000
      8441      2814  TIP3      H1             -4.1758787858       35.9732542980        3.1657313663  W2        2814            0.0000000000
      8442      2814  TIP3      H2             -3.2928287858       37.1959442980        3.0348413663  W2        2814            0.0000000000
      8443      2815  TIP3      OH2           -15.4516087858       23.7617342980        3.0683613663  W2        2815            0.0000000000
      8444      2815  TIP3      H1            -16.3443787858       24.1002742980        3.0007613663  W2        2815            0.0000000000
      8445      2815  TIP3      H2            -15.5503287858       22.9063442980        3.4864413663  W2        2815            0.0000000000
      8446      2816  TIP3      OH2            -3.1637987858       31.5782642980       -7.5076886337  W2        2816            0.0000000000
      8447      2816  TIP3      H1             -3.4410387858       30.8501942980       -6.9515786337  W2        2816            0.0000000000
      8448      2816  TIP3      H2             -2.2364987858       31.6974642980       -7.3024286337  W2        2816            0.0000000000
      8449      2817  TIP3      OH2           -15.8004087858       35.5661742980        1.5033013663  W2        2817            0.0000000000
      8450      2817  TIP3      H1            -15.5833787858       34.6344142980        1.4722713663  W2        2817            0.0000000000
      8451      2817  TIP3      H2            -15.5540587858       35.8406742980        2.3865813663  W2        2817            0.0000000000
      8452      2818  TIP3      OH2            -9.9389487858       34.0176742980      -11.2874786337  W2        2818            0.0000000000
      8453      2818  TIP3      H1             -9.6999687858       33.2694842980      -11.8345886337  W2        2818            0.0000000000
      8454      2818  TIP3      H2            -10.2078187858       33.6298442980      -10.4546986337  W2        2818            0.0000000000
      8455      2819  TIP3      OH2           -11.0018887858       33.5880542980       -8.8312186337  W2        2819            0.0000000000
      8456      2819  TIP3      H1            -10.8550887858       33.0680342980       -8.0411286337  W2        2819            0.0000000000
      8457      2819  TIP3      H2            -11.0047187858       34.4948142980       -8.5246286337  W2        2819            0.0000000000
      8458      2820  TIP3      OH2           -14.5487787858       30.8403842980       -8.3206786337  W2        2820            0.0000000000
      8459      2820  TIP3      H1            -15.2348487858       31.1926342980       -7.7537086337  W2        2820            0.0000000000
      8460      2820  TIP3      H2            -14.0259887858       31.6033442980       -8.5672486337  W2        2820            0.0000000000
      8461      2821  TIP3      OH2            -6.7172687858       23.5027642980        1.9582213663  W2        2821            0.0000000000
      8462      2821  TIP3      H1             -6.0184787858       23.5766342980        2.6081913663  W2        2821            0.0000000000
      8463      2821  TIP3      H2             -7.0981287858       22.6382642980        2.1125113663  W2        2821            0.0000000000
      8464      2822  TIP3      OH2            -5.9327787858       23.1549342980       -6.9445486337  W2        2822            0.0000000000
      8465      2822  TIP3      H1             -5.7129487858       23.6264742980       -7.7480086337  W2        2822            0.0000000000
      8466      2822  TIP3      H2             -5.3743787858       23.5491942980       -6.2744886337  W2        2822            0.0000000000
      8467      2823  TIP3      OH2            -8.2641687858       35.2854142980       -8.0817986337  W2        2823            0.0000000000
      8468      2823  TIP3      H1             -9.0805587858       35.7823842980       -8.0293686337  W2        2823            0.0000000000
      8469      2823  TIP3      H2             -7.7345387858       35.7607642980       -8.7219186337  W2        2823            0.0000000000
      8470      2824  TIP3      OH2            -8.7327887858       24.8828142980       -6.1097086337  W2        2824            0.0000000000
      8471      2824  TIP3      H1             -7.9205287858       25.3871342980       -6.0635386337  W2        2824            0.0000000000
      8472      2824  TIP3      H2             -8.9774887858       24.7377842980       -5.1957486337  W2        2824            0.0000000000
      8473      2825  TIP3      OH2            -8.1971487858       25.8690842980        3.0749513663  W2        2825            0.0000000000
      8474      2825  TIP3      H1             -8.0781187858       26.4426242980        3.8319913663  W2        2825            0.0000000000
      8475      2825  TIP3      H2             -7.5416887858       25.1810242980        3.1897313663  W2        2825            0.0000000000
      8476      2826  TIP3      OH2            -7.8491187858       21.9641142980       -5.1715986337  W2        2826            0.0000000000
      8477      2826  TIP3      H1             -8.1957687858       22.5811742980       -4.5271686337  W2        2826            0.0000000000
      8478      2826  TIP3      H2             -7.1904287858       22.4646842980       -5.6530486337  W2        2826            0.0000000000
      8479      2827  TIP3      OH2           -10.9258587858       36.3291342980       -8.1001086337  W2        2827            0.0000000000
      8480      2827  TIP3      H1            -10.7649887858       37.1288842980       -8.6008486337  W2        2827            0.0000000000
      8481      2827  TIP3      H2            -11.1230787858       36.6357342980       -7.2150486337  W2        2827            0.0000000000
      8482      2828  TIP3      OH2           -12.1914187858       23.0270542980       -8.4843486337  W2        2828            0.0000000000
      8483      2828  TIP3      H1            -12.2749387858       23.9153642980       -8.1377086337  W2        2828            0.0000000000
      8484      2828  TIP3      H2            -11.3013887858       22.7617242980       -8.2526686337  W2        2828            0.0000000000
      8485      2829  TIP3      OH2            -1.9925687858       23.7761142980        3.9099213663  W2        2829            0.0000000000
      8486      2829  TIP3      H1             -2.9089887858       24.0382842980        3.8222913663  W2        2829            0.0000000000
      8487      2829  TIP3      H2             -1.6570687858       23.7730142980        3.0134513663  W2        2829            0.0000000000
      8488      2830  TIP3      OH2            -3.3904687858       27.5262142980       -1.9943486337  W2        2830            0.0000000000
      8489      2830  TIP3      H1             -4.1880287858       27.1112342980       -2.3228486337  W2        2830            0.0000000000
      8490      2830  TIP3      H2             -2.9453587858       26.8355842980       -1.5032986337  W2        2830            0.0000000000
      8491      2831  TIP3      OH2           -13.9328887858       33.4542742980       -9.4238986337  W2        2831            0.0000000000
      8492      2831  TIP3      H1            -13.3407387858       34.1537542980       -9.1476586337  W2        2831            0.0000000000
      8493      2831  TIP3      H2            -13.4735887858       33.0212242980      -10.1434386337  W2        2831            0.0000000000
      8494      2832  TIP3      OH2           -15.6169687858       26.1185742980      -10.3079586337  W2        2832            0.0000000000
      8495      2832  TIP3      H1            -15.6617087858       27.0578842980      -10.1292586337  W2        2832            0.0000000000
      8496      2832  TIP3      H2            -16.5046487858       25.8830642980      -10.5777486337  W2        2832            0.0000000000
      8497      2833  TIP3      OH2           -14.8087687858       20.9002342980       -1.6348586337  W2        2833            0.0000000000
      8498      2833  TIP3      H1            -15.0377887858       20.9594842980       -2.5623586337  W2        2833            0.0000000000
      8499      2833  TIP3      H2            -15.2514287858       20.1087842980       -1.3284486337  W2        2833            0.0000000000
      8500      2834  TIP3      OH2           -15.8784387858       34.8409442980       -5.4742786337  W2        2834            0.0000000000
      8501      2834  TIP3      H1            -16.7105787858       35.3132142980       -5.4471386337  W2        2834            0.0000000000
      8502      2834  TIP3      H2            -15.3326087858       35.3507042980       -6.0729686337  W2        2834            0.0000000000
      8503      2835  TIP3      OH2           -11.9927287858       36.3727542980        7.4759413663  W2        2835            0.0000000000
      8504      2835  TIP3      H1            -11.2250087858       35.9138342980        7.8168613663  W2        2835            0.0000000000
      8505      2835  TIP3      H2            -12.0141087858       36.1467342980        6.5460613663  W2        2835            0.0000000000
      8506      2836  TIP3      OH2            -7.9007687858       35.8808142980      -11.1488786337  W2        2836            0.0000000000
      8507      2836  TIP3      H1             -8.5446687858       35.2496742980      -10.8275086337  W2        2836            0.0000000000
      8508      2836  TIP3      H2             -7.1389387858       35.3496142980      -11.3805286337  W2        2836            0.0000000000
      8509      2837  TIP3      OH2            -5.4158587858       34.7528642980        6.2050913663  W2        2837            0.0000000000
      8510      2837  TIP3      H1             -5.7669087858       33.8961642980        6.4481313663  W2        2837            0.0000000000
      8511      2837  TIP3      H2             -4.6895387858       34.8955342980        6.8119913663  W2        2837            0.0000000000
      8512      2838  TIP3      OH2            -3.2964787858       35.6978042980      -10.9150786337  W2        2838            0.0000000000
      8513      2838  TIP3      H1             -3.0134387858       34.9033242980      -10.4623886337  W2        2838            0.0000000000
      8514      2838  TIP3      H2             -2.5566887858       35.9309042980      -11.4759686337  W2        2838            0.0000000000
      8515      2839  TIP3      OH2           -16.6831187858       31.2637242980        6.8099513663  W2        2839            0.0000000000
      8516      2839  TIP3      H1            -16.5390687858       30.3617942980        6.5236213663  W2        2839            0.0000000000
      8517      2839  TIP3      H2            -17.4553787858       31.5499342980        6.3221813663  W2        2839            0.0000000000
      8518      2840  TIP3      OH2           -12.3417487858       31.6072942980      -11.0575886337  W2        2840            0.0000000000
      8519      2840  TIP3      H1            -12.2773387858       30.8132542980      -10.5269486337  W2        2840            0.0000000000
      8520      2840  TIP3      H2            -11.6888287858       31.4885742980      -11.7473886337  W2        2840            0.0000000000
      8521      2841  TIP3      OH2           -10.0275087858       31.2335342980        6.2425913663  W2        2841            0.0000000000
      8522      2841  TIP3      H1            -10.3561287858       31.5043442980        5.3853313663  W2        2841            0.0000000000
      8523      2841  TIP3      H2             -9.8756887858       30.2925142980        6.1550913663  W2        2841            0.0000000000
      8524      2842  TIP3      OH2            -6.9894087858       32.6544642980      -11.3217886337  W2        2842            0.0000000000
      8525      2842  TIP3      H1             -7.2579987858       32.8346742980      -10.4208986337  W2        2842            0.0000000000
      8526      2842  TIP3      H2             -7.1958487858       31.7290842980      -11.4532086337  W2        2842            0.0000000000
      8527      2843  TIP3      OH2            -4.2929887858       31.1492642980        3.6258213663  W2        2843            0.0000000000
      8528      2843  TIP3      H1             -3.5475087858       31.7376342980        3.5062213663  W2        2843            0.0000000000
      8529      2843  TIP3      H2             -5.0503087858       31.7312342980        3.6891313663  W2        2843            0.0000000000
      8530      2844  TIP3      OH2           -15.8504687858       28.4640542980        6.2298813663  W2        2844            0.0000000000
      8531      2844  TIP3      H1            -15.4423487858       27.6067142980        6.1089413663  W2        2844            0.0000000000
      8532      2844  TIP3      H2            -16.1107087858       28.4781842980        7.1509113663  W2        2844            0.0000000000
      8533      2845  TIP3      OH2           -11.1923687858       29.5799142980       -8.7517886337  W2        2845            0.0000000000
      8534      2845  TIP3      H1            -11.6521687858       29.0957442980       -8.0659386337  W2        2845            0.0000000000
      8535      2845  TIP3      H2            -10.9374987858       28.9114542980       -9.3877386337  W2        2845            0.0000000000
      8536      2846  TIP3      OH2           -11.9034387858       27.4726242980        3.6041713663  W2        2846            0.0000000000
      8537      2846  TIP3      H1            -12.5218287858       28.1472842980        3.8846413663  W2        2846            0.0000000000
      8538      2846  TIP3      H2            -11.5593187858       27.7940142980        2.7707913663  W2        2846            0.0000000000
      8539      2847  TIP3      OH2           -10.1213287858       27.8230942980      -10.4894686337  W2        2847            0.0000000000
      8540      2847  TIP3      H1            -10.3018287858       27.6682142980      -11.4166386337  W2        2847            0.0000000000
      8541      2847  TIP3      H2             -9.1712787858       27.9309642980      -10.4446786337  W2        2847            0.0000000000
      8542      2848  TIP3      OH2            -6.8836187858       29.9441542980        6.8816513663  W2        2848            0.0000000000
      8543      2848  TIP3      H1             -5.9304987858       30.0280642980        6.8542513663  W2        2848            0.0000000000
      8544      2848  TIP3      H2             -7.0441587858       29.2323342980        7.5011413663  W2        2848            0.0000000000
      8545      2849  TIP3      OH2            -0.7314987858       30.1775142980      -11.0436586337  W2        2849            0.0000000000
      8546      2849  TIP3      H1             -1.0050187858       29.7530642980      -11.8568286337  W2        2849            0.0000000000
      8547      2849  TIP3      H2             -0.6920887858       31.1089642980      -11.2606186337  W2        2849            0.0000000000
      8548      2850  TIP3      OH2           -11.5640687858       24.8277042980        4.6864813663  W2        2850            0.0000000000
      8549      2850  TIP3      H1            -11.4139787858       24.0988342980        4.0844513663  W2        2850            0.0000000000
      8550      2850  TIP3      H2            -11.5618287858       25.6048742980        4.1277013663  W2        2850            0.0000000000
      8551      2851  TIP3      OH2           -11.1514987858       23.1972842980        2.1792213663  W2        2851            0.0000000000
      8552      2851  TIP3      H1            -10.6157487858       23.6489542980        1.5271513663  W2        2851            0.0000000000
      8553      2851  TIP3      H2            -12.0035387858       23.0892642980        1.7566313663  W2        2851            0.0000000000
      8554      2852  TIP3      OH2            -9.5696587858       28.6369042980        2.4187413663  W2        2852            0.0000000000
      8555      2852  TIP3      H1             -8.8191787858       28.4806542980        1.8455213663  W2        2852            0.0000000000
      8556      2852  TIP3      H2             -9.9088287858       29.4885642980        2.1432913663  W2        2852            0.0000000000
      8557      2853  TIP3      OH2            -5.1540387858       26.4520842980        7.4472713663  W2        2853            0.0000000000
      8558      2853  TIP3      H1             -4.9619087858       25.5210242980        7.3357213663  W2        2853            0.0000000000
      8559      2853  TIP3      H2             -4.2964087858       26.8770342980        7.4368113663  W2        2853            0.0000000000
      8560      2854  TIP3      OH2            -3.8373187858       29.2406042980        5.5245413663  W2        2854            0.0000000000
      8561      2854  TIP3      H1             -4.1188187858       29.9500642980        4.9469213663  W2        2854            0.0000000000
      8562      2854  TIP3      H2             -2.8948887858       29.1679042980        5.3736613663  W2        2854            0.0000000000
      8563      2855  TIP3      OH2           -13.0854387858       26.0260542980        6.5980413663  W2        2855            0.0000000000
      8564      2855  TIP3      H1            -13.8525387858       25.4935342980        6.3878013663  W2        2855            0.0000000000
      8565      2855  TIP3      H2            -12.4065387858       25.7160942980        5.9986713663  W2        2855            0.0000000000
      8566      2856  TIP3      OH2           -10.3459487858       20.6538542980        2.6105813663  W2        2856            0.0000000000
      8567      2856  TIP3      H1            -10.4439887858       21.6001742980        2.5052013663  W2        2856            0.0000000000
      8568      2856  TIP3      H2            -11.0883287858       20.2812342980        2.1349313663  W2        2856            0.0000000000
      8569      2857  TIP3      OH2            -9.0818987858       24.9753942980        6.1744213663  W2        2857            0.0000000000
      8570      2857  TIP3      H1             -9.3173587858       24.7560642980        7.0759113663  W2        2857            0.0000000000
      8571      2857  TIP3      H2             -9.8652087858       24.7685142980        5.6646713663  W2        2857            0.0000000000
      8572      2858  TIP3      OH2            -6.3662387858       24.1027442980        5.2497713663  W2        2858            0.0000000000
      8573      2858  TIP3      H1             -7.3136987858       24.1347142980        5.3821013663  W2        2858            0.0000000000
      8574      2858  TIP3      H2             -6.0535687858       23.4774542980        5.9035913663  W2        2858            0.0000000000
      8575      2859  TIP3      OH2            -4.7320887858       22.7368542980        7.2549613663  W2        2859            0.0000000000
      8576      2859  TIP3      H1             -4.8289087858       21.7845842980        7.2491513663  W2        2859            0.0000000000
      8577      2859  TIP3      H2             -5.0537787858       23.0055342980        8.1155113663  W2        2859            0.0000000000
      8578      2860  TIP3      OH2           -14.9051587858       23.9464342980        6.3025113663  W2        2860            0.0000000000
      8579      2860  TIP3      H1            -14.6934187858       23.2400442980        5.6922613663  W2        2860            0.0000000000
      8580      2860  TIP3      H2            -15.0164087858       23.5090342980        7.1466313663  W2        2860            0.0000000000
      8581      2861  TIP3      OH2           -10.1241387858       19.9475942980        5.2818613663  W2        2861            0.0000000000
      8582      2861  TIP3      H1             -9.4122987858       19.3078142980        5.2677713663  W2        2861            0.0000000000
      8583      2861  TIP3      H2            -10.2250987858       20.2144242980        4.3681713663  W2        2861            0.0000000000
      8584      2862  TIP3      OH2            -9.7703887858       21.6304342980        7.3354913663  W2        2862            0.0000000000
      8585      2862  TIP3      H1             -9.9021687858       21.1548142980        6.5153413663  W2        2862            0.0000000000
      8586      2862  TIP3      H2            -10.3696487858       22.3747942980        7.2802013663  W2        2862            0.0000000000
      8587      2863  TIP3      OH2           -16.6556687858       33.1498442980      -10.0052986337  W2        2863            0.0000000000
      8588      2863  TIP3      H1            -15.7417487858       33.2287342980       -9.7319086337  W2        2863            0.0000000000
      8589      2863  TIP3      H2            -16.6483587858       32.4628042980      -10.6717386337  W2        2863            0.0000000000
      8590      2864  TIP3      OH2           -17.1366887858       36.6233942980       -3.1232886337  W2        2864            0.0000000000
      8591      2864  TIP3      H1            -17.4710087858       35.7431242980       -2.9512686337  W2        2864            0.0000000000
      8592      2864  TIP3      H2            -16.9144487858       36.9688942980       -2.2587286337  W2        2864            0.0000000000
      8593      2865  TIP3      OH2            -1.5741887858       32.7899542980        7.4171313663  W2        2865            0.0000000000
      8594      2865  TIP3      H1             -2.4400787858       32.6849242980        7.8113613663  W2        2865            0.0000000000
      8595      2865  TIP3      H2             -1.1975987858       33.5482842980        7.8636013663  W2        2865            0.0000000000
      8596      2866  TIP3      OH2            -0.2732187858       31.0463242980       -7.0686186337  W2        2866            0.0000000000
      8597      2866  TIP3      H1              0.5769212142       31.4674142980       -6.9414586337  W2        2866            0.0000000000
      8598      2866  TIP3      H2             -0.2677087858       30.3063342980       -6.4614786337  W2        2866            0.0000000000
      8599      2867  TIP3      OH2             0.1213412142       29.1000642980       -5.2450486337  W2        2867            0.0000000000
      8600      2867  TIP3      H1             -0.6051987858       28.6203242980       -4.8472886337  W2        2867            0.0000000000
      8601      2867  TIP3      H2              0.7026712142       29.3055342980       -4.5128886337  W2        2867            0.0000000000
      8602      2868  TIP3      OH2            -0.1195387858       31.8848142980       -0.2972886337  W2        2868            0.0000000000
      8603      2868  TIP3      H1              0.7138812142       31.5068142980       -0.5779286337  W2        2868            0.0000000000
      8604      2868  TIP3      H2             -0.0075087858       32.8279342980       -0.4163786337  W2        2868            0.0000000000
      8605      2869  TIP3      OH2            -1.6333087858       34.7625642980        2.0095513663  W2        2869            0.0000000000
      8606      2869  TIP3      H1             -2.2807787858       35.0877142980        2.6350713663  W2        2869            0.0000000000
      8607      2869  TIP3      H2             -2.1509087858       34.3223342980        1.3353813663  W2        2869            0.0000000000
      8608      2870  TIP3      OH2             0.3896512142       29.0009142980       -8.8539186337  W2        2870            0.0000000000
      8609      2870  TIP3      H1             -0.1322387858       29.3573242980       -9.5728286337  W2        2870            0.0000000000
      8610      2870  TIP3      H2              0.3565712142       29.6756942980       -8.1758286337  W2        2870            0.0000000000
      8611      2871  TIP3      OH2            -1.2614487858       26.2404742980      -10.3032086337  W2        2871            0.0000000000
      8612      2871  TIP3      H1             -1.1650087858       26.9071742980      -10.9832386337  W2        2871            0.0000000000
      8613      2871  TIP3      H2             -1.4014887858       25.4251042980      -10.7846586337  W2        2871            0.0000000000
      8614      2872  TIP3      OH2            -2.0919787858       27.6207142980       -4.6821786337  W2        2872            0.0000000000
      8615      2872  TIP3      H1             -2.2420987858       26.6755742980       -4.7023986337  W2        2872            0.0000000000
      8616      2872  TIP3      H2             -2.4455287858       27.9018542980       -3.8382686337  W2        2872            0.0000000000
      8617      2873  TIP3      OH2           -17.0567387858       29.6989342980       -0.6717986337  W2        2873            0.0000000000
      8618      2873  TIP3      H1            -16.8724487858       29.6171042980       -1.6075086337  W2        2873            0.0000000000
      8619      2873  TIP3      H2            -16.2074487858       29.5746342980       -0.2481586337  W2        2873            0.0000000000
      8620      2874  TIP3      OH2            -1.2356887858       29.5910442980        4.9566513663  W2        2874            0.0000000000
      8621      2874  TIP3      H1             -0.6529587858       28.8562742980        5.1483713663  W2        2874            0.0000000000
      8622      2874  TIP3      H2             -0.6717587858       30.3630742980        5.0032313663  W2        2874            0.0000000000
      8623      2875  TIP3      OH2             0.2610212142       27.4936242980        5.6411913663  W2        2875            0.0000000000
      8624      2875  TIP3      H1             -0.6023087858       27.1148342980        5.4756613663  W2        2875            0.0000000000
      8625      2875  TIP3      H2              0.8653912142       26.7551042980        5.5667713663  W2        2875            0.0000000000
      8626      2876  TIP3      OH2            -2.0140687858       23.6484542980      -11.1856586337  W2        2876            0.0000000000
      8627      2876  TIP3      H1             -1.4034887858       23.2771342980      -10.5488386337  W2        2876            0.0000000000
      8628      2876  TIP3      H2             -2.8509187858       23.2271442980      -10.9896586337  W2        2876            0.0000000000
      8629      2877  TIP3      OH2            -2.3814987858       25.2032942980       -6.2196686337  W2        2877            0.0000000000
      8630      2877  TIP3      H1             -2.1017887858       24.2963342980       -6.0954986337  W2        2877            0.0000000000
      8631      2877  TIP3      H2             -1.6223287858       25.6374442980       -6.6087486337  W2        2877            0.0000000000
      8632      2878  TIP3      OH2            -1.7696687858       25.7850342980       -0.7837786337  W2        2878            0.0000000000
      8633      2878  TIP3      H1             -0.8368687858       25.9970242980       -0.8181786337  W2        2878            0.0000000000
      8634      2878  TIP3      H2             -2.0049187858       25.8862442980        0.1385213663  W2        2878            0.0000000000
      8635      2879  TIP3      OH2            -1.7404787858       26.5215642980        1.9921613663  W2        2879            0.0000000000
      8636      2879  TIP3      H1             -2.5833487858       26.7896042980        2.3581413663  W2        2879            0.0000000000
      8637      2879  TIP3      H2             -1.2980487858       27.3437542980        1.7812713663  W2        2879            0.0000000000
      8638      2880  TIP3      OH2           -17.4592587858       24.9694342980        5.4690813663  W2        2880            0.0000000000
      8639      2880  TIP3      H1            -16.5397687858       24.8472642980        5.7053913663  W2        2880            0.0000000000
      8640      2880  TIP3      H2            -17.9088087858       24.2194042980        5.8584313663  W2        2880            0.0000000000
      8641      2881  TIP3      OH2             0.5426812142       20.5015842980        7.3456613663  W2        2881            0.0000000000
      8642      2881  TIP3      H1              0.8923812142       19.8479342980        6.7401313663  W2        2881            0.0000000000
      8643      2881  TIP3      H2              0.6896312142       21.3389942980        6.9059213663  W2        2881            0.0000000000
      8644      2882  TIP3      OH2            -1.7680187858       22.4662242980       -6.1714686337  W2        2882            0.0000000000
      8645      2882  TIP3      H1             -1.5855187858       22.0173742980       -5.3459686337  W2        2882            0.0000000000
      8646      2882  TIP3      H2             -2.3677287858       21.8816642980       -6.6350086337  W2        2882            0.0000000000
      8647      2883  TIP3      OH2           -16.2380087858       23.2815942980       -1.6396286337  W2        2883            0.0000000000
      8648      2883  TIP3      H1            -15.7928487858       22.4898442980       -1.3376586337  W2        2883            0.0000000000
      8649      2883  TIP3      H2            -15.7717087858       23.9981142980       -1.2090686337  W2        2883            0.0000000000
      8650      2884  TIP3      OH2           -17.9339787858       26.2808942980       -0.5706086337  W2        2884            0.0000000000
      8651      2884  TIP3      H1            -17.4419987858       26.0599442980       -1.3614086337  W2        2884            0.0000000000
      8652      2884  TIP3      H2            -17.5718887858       27.1212342980       -0.2896586337  W2        2884            0.0000000000
      8653      2885  TIP3      OH2             0.0624012142       22.6110442980        5.6947913663  W2        2885            0.0000000000
      8654      2885  TIP3      H1             -0.8550287858       22.8817542980        5.6591413663  W2        2885            0.0000000000
      8655      2885  TIP3      H2              0.1853412142       22.0758842980        4.9107613663  W2        2885            0.0000000000
      8656      2886  TIP3      OH2             0.0986012142       22.5340342980       -9.6434386337  W2        2886            0.0000000000
      8657      2886  TIP3      H1              0.5108612142       21.8126042980      -10.1186386337  W2        2886            0.0000000000
      8658      2886  TIP3      H2              0.7802512142       23.2034942980       -9.5850086337  W2        2886            0.0000000000
      8659      2887  TIP3      OH2           -17.6203287858       22.5388042980       -6.5163686337  W2        2887            0.0000000000
      8660      2887  TIP3      H1            -18.5454887858       22.7474642980       -6.6458186337  W2        2887            0.0000000000
      8661      2887  TIP3      H2            -17.1663387858       23.0228842980       -7.2061386337  W2        2887            0.0000000000
      8662      2888  TIP3      OH2           -17.6567887858       21.2767042980        1.8278813663  W2        2888            0.0000000000
      8663      2888  TIP3      H1            -18.3217387858       21.0307342980        2.4709713663  W2        2888            0.0000000000
      8664      2888  TIP3      H2            -18.0996587858       21.8987442980        1.2506813663  W2        2888            0.0000000000
      8665      2889  TIP3      OH2           -15.4648587858       34.4521142980        5.9724613663  W2        2889            0.0000000000
      8666      2889  TIP3      H1            -16.2856087858       34.6267642980        5.5119313663  W2        2889            0.0000000000
      8667      2889  TIP3      H2            -15.7170787858       34.3785842980        6.8929013663  W2        2889            0.0000000000
      8668      2890  TIP3      OH2           -12.5105687858       35.4262342980        2.2308613663  W2        2890            0.0000000000
      8669      2890  TIP3      H1            -12.9354587858       36.2360842980        1.9483213663  W2        2890            0.0000000000
      8670      2890  TIP3      H2            -11.6062887858       35.5116442980        1.9288413663  W2        2890            0.0000000000
      8671      2891  TIP3      OH2            -0.9370087858       20.7006742980        3.5138713663  W2        2891            0.0000000000
      8672      2891  TIP3      H1             -1.7496587858       21.0257042980        3.1263413663  W2        2891            0.0000000000
      8673      2891  TIP3      H2             -0.7041587858       19.9405242980        2.9807813663  W2        2891            0.0000000000
      8674      2892  TIP3      OH2           -13.5527787858       36.0157442980       -2.1564386337  W2        2892            0.0000000000
      8675      2892  TIP3      H1            -13.7717087858       35.0994842980       -1.9868386337  W2        2892            0.0000000000
      8676      2892  TIP3      H2            -12.7285587858       36.1557842980       -1.6902986337  W2        2892            0.0000000000
      8677      2893  TIP3      OH2           -11.0155287858       36.4856742980       -1.3076386337  W2        2893            0.0000000000
      8678      2893  TIP3      H1            -10.8029587858       35.5975742980       -1.5945486337  W2        2893            0.0000000000
      8679      2893  TIP3      H2            -10.9510187858       36.4514442980       -0.3532386337  W2        2893            0.0000000000
      8680      2894  TIP3      OH2            -7.5071587858       22.1497342980       -2.1633086337  W2        2894            0.0000000000
      8681      2894  TIP3      H1             -8.1814787858       21.5202942980       -1.9077286337  W2        2894            0.0000000000
      8682      2894  TIP3      H2             -6.9432387858       21.6656242980       -2.7665186337  W2        2894            0.0000000000
      8683      2895  TIP3      OH2            -2.3644387858       20.2571342980       -2.0505986337  W2        2895            0.0000000000
      8684      2895  TIP3      H1             -1.7606787858       20.8046742980       -2.5524986337  W2        2895            0.0000000000
      8685      2895  TIP3      H2             -3.2342387858       20.5761742980       -2.2911886337  W2        2895            0.0000000000
      8686      2896  TIP3      OH2            -0.6373987858       21.3960042980       -3.7175086337  W2        2896            0.0000000000
      8687      2896  TIP3      H1             -0.0256487858       20.8815742980       -4.2441486337  W2        2896            0.0000000000
      8688      2896  TIP3      H2             -0.2550587858       22.2732142980       -3.6940686337  W2        2896            0.0000000000
      8689      2897  TIP3      OH2           -15.1804087858       20.7837642980       -4.3413186337  W2        2897            0.0000000000
      8690      2897  TIP3      H1            -15.9574287858       20.5492542980       -4.8487286337  W2        2897            0.0000000000
      8691      2897  TIP3      H2            -14.6500487858       19.9869742980       -4.3325186337  W2        2897            0.0000000000
      8692      2898  TIP3      OH2           -16.3440687858       20.5815742980       -8.5377086337  W2        2898            0.0000000000
      8693      2898  TIP3      H1            -15.9049987858       21.1926242980       -9.1293586337  W2        2898            0.0000000000
      8694      2898  TIP3      H2            -16.9778287858       21.1199842980       -8.0637086337  W2        2898            0.0000000000
      8695      2899  TIP3      OH2           -10.6011487858       20.7104742980       -4.5280086337  W2        2899            0.0000000000
      8696      2899  TIP3      H1             -9.7268087858       21.0989042980       -4.5575786337  W2        2899            0.0000000000
      8697      2899  TIP3      H2            -10.7370687858       20.4952542980       -3.6052886337  W2        2899            0.0000000000
      8698      2900  TIP3      OH2            -5.0443087858       20.7404542980       -2.8788386337  W2        2900            0.0000000000
      8699      2900  TIP3      H1             -4.9681487858       20.8356142980       -3.8282386337  W2        2900            0.0000000000
      8700      2900  TIP3      H2             -5.3193887858       19.8327442980       -2.7499286337  W2        2900            0.0000000000
      8701      2901  TIP3      OH2            -3.6910487858       20.7662342980       -7.1863386337  W2        2901            0.0000000000
      8702      2901  TIP3      H1             -4.3939387858       21.3811542980       -7.3961986337  W2        2901            0.0000000000
      8703      2901  TIP3      H2             -4.1359087858       19.9289042980       -7.0552486337  W2        2901            0.0000000000
      8704      2902  TIP3      OH2           -16.4431187858       36.5297942980       -7.6401986337  W2        2902            0.0000000000
      8705      2902  TIP3      H1            -17.1281287858       36.4916842980       -8.3076886337  W2        2902            0.0000000000
      8706      2902  TIP3      H2            -16.4393987858       37.4425542980       -7.3519886337  W2        2902            0.0000000000
      8707      2903  TIP3      OH2           -14.4831587858       22.4977242980      -10.0952986337  W2        2903            0.0000000000
      8708      2903  TIP3      H1            -13.9918187858       21.8679642980      -10.6227486337  W2        2903            0.0000000000
      8709      2903  TIP3      H2            -13.8595287858       22.7936642980       -9.4321786337  W2        2903            0.0000000000
      8710      2904  TIP3      OH2            -9.4571487858       22.7908742980       -7.6382486337  W2        2904            0.0000000000
      8711      2904  TIP3      H1             -9.2790187858       22.1441942980       -6.9553886337  W2        2904            0.0000000000
      8712      2904  TIP3      H2             -9.5105287858       23.6246442980       -7.1711386337  W2        2904            0.0000000000
      8713      2905  TIP3      OH2           -15.2226087858       21.2979542980        5.1763013663  W2        2905            0.0000000000
      8714      2905  TIP3      H1            -15.5887887858       20.5322142980        5.6187713663  W2        2905            0.0000000000
      8715      2905  TIP3      H2            -14.3097587858       21.3269742980        5.4628113663  W2        2905            0.0000000000
      8716      2906  TIP3      OH2           -13.2495287858       20.6483942980        6.7120113663  W2        2906            0.0000000000
      8717      2906  TIP3      H1            -12.3511687858       20.3744142980        6.5273513663  W2        2906            0.0000000000
      8718      2906  TIP3      H2            -13.6362187858       19.9059942980        7.1762713663  W2        2906            0.0000000000
      8719      2907  TIP3      OH2            -4.8282987858       19.9809242980        6.8942913663  W2        2907            0.0000000000
      8720      2907  TIP3      H1             -4.7515787858       19.5549942980        7.7480613663  W2        2907            0.0000000000
      8721      2907  TIP3      H2             -3.9346387858       19.9943942980        6.5516413663  W2        2907            0.0000000000
      8722      2908  TIP3      OH2            -1.6521887858       36.0535542980        5.5867113663  W2        2908            0.0000000000
      8723      2908  TIP3      H1             -2.4339987858       35.8673542980        5.0667713663  W2        2908            0.0000000000
      8724      2908  TIP3      H2             -1.7241987858       36.9829842980        5.8039613663  W2        2908            0.0000000000
      8725      2909  TIP3      OH2            12.7538512142       29.9399942980       -4.3825686337  W2        2909            0.0000000000
      8726      2909  TIP3      H1             12.8429612142       30.8838142980       -4.5148586337  W2        2909            0.0000000000
      8727      2909  TIP3      H2             12.1156112142       29.6646342980       -5.0406286337  W2        2909            0.0000000000
      8728      2910  TIP3      OH2            11.6869812142       29.1950642980       -0.9637486337  W2        2910            0.0000000000
      8729      2910  TIP3      H1             11.6487312142       28.5486942980       -0.2587886337  W2        2910            0.0000000000
      8730      2910  TIP3      H2             11.3646312142       28.7285042980       -1.7348786337  W2        2910            0.0000000000
      8731      2911  TIP3      OH2             4.0554812142       28.8092742980        0.6292413663  W2        2911            0.0000000000
      8732      2911  TIP3      H1              4.0966912142       28.1836042980        1.3524813663  W2        2911            0.0000000000
      8733      2911  TIP3      H2              4.7582512142       29.4331342980        0.8112813663  W2        2911            0.0000000000
      8734      2912  TIP3      OH2            15.3930012142       32.1341042980       -2.6622386337  W2        2912            0.0000000000
      8735      2912  TIP3      H1             14.9522712142       31.4137042980       -2.2116786337  W2        2912            0.0000000000
      8736      2912  TIP3      H2             15.3799712142       32.8548242980       -2.0324686337  W2        2912            0.0000000000
      8737      2913  TIP3      OH2             4.9787912142       33.2591642980       -0.8358486337  W2        2913            0.0000000000
      8738      2913  TIP3      H1              4.6093112142       32.4572142980       -1.2054186337  W2        2913            0.0000000000
      8739      2913  TIP3      H2              5.9199012142       33.0906542980       -0.7895086337  W2        2913            0.0000000000
      8740      2914  TIP3      OH2             1.5888412142       26.9194242980       -5.4429686337  W2        2914            0.0000000000
      8741      2914  TIP3      H1              1.1411812142       27.7652942980       -5.4613186337  W2        2914            0.0000000000
      8742      2914  TIP3      H2              1.0279612142       26.3398442980       -5.9584586337  W2        2914            0.0000000000
      8743      2915  TIP3      OH2             2.2994512142       29.0813842980       -3.3171686337  W2        2915            0.0000000000
      8744      2915  TIP3      H1              2.5128012142       28.3115442980       -2.7898686337  W2        2915            0.0000000000
      8745      2915  TIP3      H2              3.0372112142       29.1710542980       -3.9204086337  W2        2915            0.0000000000
      8746      2916  TIP3      OH2            10.0764212142       31.6272042980       -0.5576486337  W2        2916            0.0000000000
      8747      2916  TIP3      H1             10.3802112142       30.9413442980       -1.1522386337  W2        2916            0.0000000000
      8748      2916  TIP3      H2             10.7978212142       31.7460742980        0.0601513663  W2        2916            0.0000000000
      8749      2917  TIP3      OH2            18.7394012142       23.2287342980        0.3029713663  W2        2917            0.0000000000
      8750      2917  TIP3      H1             18.7886212142       23.8388542980        1.0388813663  W2        2917            0.0000000000
      8751      2917  TIP3      H2             19.1649112142       23.6898242980       -0.4199186337  W2        2917            0.0000000000
      8752      2918  TIP3      OH2            13.2171212142       26.0214442980       -0.2301686337  W2        2918            0.0000000000
      8753      2918  TIP3      H1             13.3597112142       25.0751442980       -0.2100086337  W2        2918            0.0000000000
      8754      2918  TIP3      H2             13.1110212142       26.2284242980       -1.1586786337  W2        2918            0.0000000000
      8755      2919  TIP3      OH2             6.3719512142       24.1230842980       -2.9576886337  W2        2919            0.0000000000
      8756      2919  TIP3      H1              6.4150612142       24.9829342980       -3.3760586337  W2        2919            0.0000000000
      8757      2919  TIP3      H2              5.9143612142       23.5705542980       -3.5913686337  W2        2919            0.0000000000
      8758      2920  TIP3      OH2            14.0942212142       24.2536442980       -4.5568586337  W2        2920            0.0000000000
      8759      2920  TIP3      H1             14.7406512142       23.9249642980       -3.9320986337  W2        2920            0.0000000000
      8760      2920  TIP3      H2             14.6041612142       24.7715442980       -5.1797186337  W2        2920            0.0000000000
      8761      2921  TIP3      OH2             2.9921012142       26.5196642980       -2.1955486337  W2        2921            0.0000000000
      8762      2921  TIP3      H1              3.6457612142       25.9698342980       -1.7635386337  W2        2921            0.0000000000
      8763      2921  TIP3      H2              3.0160312142       26.2455642980       -3.1123486337  W2        2921            0.0000000000
      8764      2922  TIP3      OH2             8.1485512142       28.0697942980       -2.9803986337  W2        2922            0.0000000000
      8765      2922  TIP3      H1              8.7646512142       27.5433342980       -2.4709986337  W2        2922            0.0000000000
      8766      2922  TIP3      H2              7.5624312142       27.4296642980       -3.3840386337  W2        2922            0.0000000000
      8767      2923  TIP3      OH2            19.1308612142       24.7066542980        2.5389513663  W2        2923            0.0000000000
      8768      2923  TIP3      H1             18.4423212142       25.3647242980        2.4436113663  W2        2923            0.0000000000
      8769      2923  TIP3      H2             19.1463212142       24.5094442980        3.4754913663  W2        2923            0.0000000000
      8770      2924  TIP3      OH2             5.1821412142       23.0409242980        1.1163913663  W2        2924            0.0000000000
      8771      2924  TIP3      H1              4.9633112142       23.5709842980        0.3499913663  W2        2924            0.0000000000
      8772      2924  TIP3      H2              4.5142312142       23.2674742980        1.7635313663  W2        2924            0.0000000000
      8773      2925  TIP3      OH2            12.5511212142       32.5410342980       -5.3396986337  W2        2925            0.0000000000
      8774      2925  TIP3      H1             12.2556312142       32.2182642980       -6.1910086337  W2        2925            0.0000000000
      8775      2925  TIP3      H2             12.2269012142       33.4407042980       -5.2984386337  W2        2925            0.0000000000
      8776      2926  TIP3      OH2             7.7512812142       30.7164942980        1.4037613663  W2        2926            0.0000000000
      8777      2926  TIP3      H1              7.0111912142       31.3146442980        1.5072813663  W2        2926            0.0000000000
      8778      2926  TIP3      H2              8.4652312142       31.2704542980        1.0881213663  W2        2926            0.0000000000
      8779      2927  TIP3      OH2            15.8580612142       23.5445742980       -2.5762686337  W2        2927            0.0000000000
      8780      2927  TIP3      H1             15.6428612142       22.7789142980       -2.0436686337  W2        2927            0.0000000000
      8781      2927  TIP3      H2             16.5138012142       24.0170342980       -2.0634186337  W2        2927            0.0000000000
      8782      2928  TIP3      OH2             4.7758712142       24.9331042980       -0.9313886337  W2        2928            0.0000000000
      8783      2928  TIP3      H1              5.3895012142       25.5658642980       -0.5581486337  W2        2928            0.0000000000
      8784      2928  TIP3      H2              5.2879412142       24.4606042980       -1.5876986337  W2        2928            0.0000000000
      8785      2929  TIP3      OH2             6.1587112142       32.6807942980        2.1909113663  W2        2929            0.0000000000
      8786      2929  TIP3      H1              6.1534712142       33.5601442980        1.8128413663  W2        2929            0.0000000000
      8787      2929  TIP3      H2              5.3051212142       32.5972042980        2.6159013663  W2        2929            0.0000000000
      8788      2930  TIP3      OH2             2.2798012142       32.3515842980       -7.0271586337  W2        2930            0.0000000000
      8789      2930  TIP3      H1              2.0078912142       32.5806842980       -7.9158686337  W2        2930            0.0000000000
      8790      2930  TIP3      H2              2.3253712142       33.1894642980       -6.5666286337  W2        2930            0.0000000000
      8791      2931  TIP3      OH2            15.9047712142       33.9731742980       -0.3143086337  W2        2931            0.0000000000
      8792      2931  TIP3      H1             14.9631412142       34.0315642980       -0.1526186337  W2        2931            0.0000000000
      8793      2931  TIP3      H2             16.1813812142       34.8792242980       -0.4513386337  W2        2931            0.0000000000
      8794      2932  TIP3      OH2            16.2054712142       22.2597042980        1.1030813663  W2        2932            0.0000000000
      8795      2932  TIP3      H1             15.4693912142       22.8704142980        1.0652113663  W2        2932            0.0000000000
      8796      2932  TIP3      H2             16.8888712142       22.6746042980        0.5767213663  W2        2932            0.0000000000
      8797      2933  TIP3      OH2             9.2086112142       20.3464342980       -1.4311186337  W2        2933            0.0000000000
      8798      2933  TIP3      H1              9.0910312142       19.3980342980       -1.4852886337  W2        2933            0.0000000000
      8799      2933  TIP3      H2              8.3536212142       20.6790442980       -1.1580086337  W2        2933            0.0000000000
      8800      2934  TIP3      OH2            14.1568912142       35.7545242980       -3.6891486337  W2        2934            0.0000000000
      8801      2934  TIP3      H1             14.5821212142       35.0473142980       -4.1741886337  W2        2934            0.0000000000
      8802      2934  TIP3      H2             14.4738912142       36.5557942980       -4.1059286337  W2        2934            0.0000000000
      8803      2935  TIP3      OH2            15.3165412142       33.6553742980       -5.1804886337  W2        2935            0.0000000000
      8804      2935  TIP3      H1             15.0590212142       32.9653842980       -5.7918986337  W2        2935            0.0000000000
      8805      2935  TIP3      H2             15.3876212142       33.2124942980       -4.3348986337  W2        2935            0.0000000000
      8806      2936  TIP3      OH2            17.0025612142       32.2220442980        3.2968613663  W2        2936            0.0000000000
      8807      2936  TIP3      H1             17.1421912142       31.6302942980        2.5575613663  W2        2936            0.0000000000
      8808      2936  TIP3      H2             17.1698412142       33.0946342980        2.9407413663  W2        2936            0.0000000000
      8809      2937  TIP3      OH2            11.4751012142       29.1839942980       -6.9305386337  W2        2937            0.0000000000
      8810      2937  TIP3      H1             10.7636512142       29.7189642980       -7.2824886337  W2        2937            0.0000000000
      8811      2937  TIP3      H2             12.1660612142       29.2392042980       -7.5906486337  W2        2937            0.0000000000
      8812      2938  TIP3      OH2            11.5290212142       27.6414242980       -9.8920386337  W2        2938            0.0000000000
      8813      2938  TIP3      H1             12.2300112142       27.6641142980       -9.2406386337  W2        2938            0.0000000000
      8814      2938  TIP3      H2             11.8313112142       27.0133942980      -10.5481086337  W2        2938            0.0000000000
      8815      2939  TIP3      OH2            18.8444912142       28.5618442980        1.3629013663  W2        2939            0.0000000000
      8816      2939  TIP3      H1             18.1919012142       29.2564042980        1.4519913663  W2        2939            0.0000000000
      8817      2939  TIP3      H2             19.3095212142       28.7719342980        0.5530613663  W2        2939            0.0000000000
      8818      2940  TIP3      OH2            14.8808712142       29.3933242980       -5.9789486337  W2        2940            0.0000000000
      8819      2940  TIP3      H1             14.1489712142       29.6216942980       -5.4058886337  W2        2940            0.0000000000
      8820      2940  TIP3      H2             15.3280912142       28.6795942980       -5.5241986337  W2        2940            0.0000000000
      8821      2941  TIP3      OH2            14.7782212142       27.5675842980        3.0887513663  W2        2941            0.0000000000
      8822      2941  TIP3      H1             14.8581312142       28.3310242980        3.6606013663  W2        2941            0.0000000000
      8823      2941  TIP3      H2             14.1769912142       27.8468242980        2.3982613663  W2        2941            0.0000000000
      8824      2942  TIP3      OH2             6.5262412142       30.0239442980       -4.0964486337  W2        2942            0.0000000000
      8825      2942  TIP3      H1              6.1957612142       29.6532842980       -4.9147486337  W2        2942            0.0000000000
      8826      2942  TIP3      H2              7.1146512142       29.3533442980       -3.7496186337  W2        2942            0.0000000000
      8827      2943  TIP3      OH2             7.8929912142       33.4520042980       -1.4152286337  W2        2943            0.0000000000
      8828      2943  TIP3      H1              7.7981212142       32.8733142980       -2.1717686337  W2        2943            0.0000000000
      8829      2943  TIP3      H2              8.6223512142       33.0805742980       -0.9189486337  W2        2943            0.0000000000
      8830      2944  TIP3      OH2             6.8927912142       28.7925042980       -0.4629486337  W2        2944            0.0000000000
      8831      2944  TIP3      H1              7.4580412142       28.9139242980       -1.2258286337  W2        2944            0.0000000000
      8832      2944  TIP3      H2              7.2116812142       29.4300042980        0.1759013663  W2        2944            0.0000000000
      8833      2945  TIP3      OH2            13.2020112142       34.2956942980        0.2711013663  W2        2945            0.0000000000
      8834      2945  TIP3      H1             12.9616712142       34.9580042980        0.9190213663  W2        2945            0.0000000000
      8835      2945  TIP3      H2             13.0038312142       33.4612142980        0.6960613663  W2        2945            0.0000000000
      8836      2946  TIP3      OH2             7.7728612142       33.1917742980        4.2542413663  W2        2946            0.0000000000
      8837      2946  TIP3      H1              7.4616112142       33.9740942980        4.7095613663  W2        2946            0.0000000000
      8838      2946  TIP3      H2              7.1228812142       33.0386842980        3.5684413663  W2        2946            0.0000000000
      8839      2947  TIP3      OH2            13.7518212142       28.5556142980       -8.2938286337  W2        2947            0.0000000000
      8840      2947  TIP3      H1             14.3313712142       28.7056442980       -7.5469386337  W2        2947            0.0000000000
      8841      2947  TIP3      H2             14.1658212142       29.0263542980       -9.0171886337  W2        2947            0.0000000000
      8842      2948  TIP3      OH2             4.6928512142       29.3898842980        3.4828113663  W2        2948            0.0000000000
      8843      2948  TIP3      H1              4.7631712142       30.0405642980        4.1813113663  W2        2948            0.0000000000
      8844      2948  TIP3      H2              3.8020712142       29.4926342980        3.1479013663  W2        2948            0.0000000000
      8845      2949  TIP3      OH2            11.4783112142       35.2924642980       -4.8585186337  W2        2949            0.0000000000
      8846      2949  TIP3      H1             11.9520712142       35.5880942980       -4.0810986337  W2        2949            0.0000000000
      8847      2949  TIP3      H2             10.9152412142       36.0306242980       -5.0915586337  W2        2949            0.0000000000
      8848      2950  TIP3      OH2             6.0124512142       35.2632742980        5.0176213663  W2        2950            0.0000000000
      8849      2950  TIP3      H1              6.0199812142       35.1272442980        4.0701713663  W2        2950            0.0000000000
      8850      2950  TIP3      H2              5.0964912142       35.1460842980        5.2696213663  W2        2950            0.0000000000
      8851      2951  TIP3      OH2            17.4506612142       20.3056542980       -8.4808586337  W2        2951            0.0000000000
      8852      2951  TIP3      H1             16.5507312142       20.4445542980       -8.1857986337  W2        2951            0.0000000000
      8853      2951  TIP3      H2             17.7025012142       21.1371142980       -8.8826886337  W2        2951            0.0000000000
      8854      2952  TIP3      OH2             5.5165112142       29.0933742980       -6.5071686337  W2        2952            0.0000000000
      8855      2952  TIP3      H1              5.2246412142       29.8615442980       -6.9980386337  W2        2952            0.0000000000
      8856      2952  TIP3      H2              4.8420312142       28.4339942980       -6.6700286337  W2        2952            0.0000000000
      8857      2953  TIP3      OH2            18.6398012142       34.6718942980      -10.1044686337  W2        2953            0.0000000000
      8858      2953  TIP3      H1             18.7131512142       35.6109142980       -9.9339386337  W2        2953            0.0000000000
      8859      2953  TIP3      H2             19.5453112142       34.3667542980      -10.1607386337  W2        2953            0.0000000000
      8860      2954  TIP3      OH2             1.6095212142       31.4562942980        2.3078113663  W2        2954            0.0000000000
      8861      2954  TIP3      H1              1.1083612142       31.4282342980        1.4927813663  W2        2954            0.0000000000
      8862      2954  TIP3      H2              1.6148912142       30.5506142980        2.6175413663  W2        2954            0.0000000000
      8863      2955  TIP3      OH2             1.3597912142       34.2366742980       -0.8081686337  W2        2955            0.0000000000
      8864      2955  TIP3      H1              2.3058512142       34.0923742980       -0.8272186337  W2        2955            0.0000000000
      8865      2955  TIP3      H2              1.2474212142       35.0209542980       -0.2710486337  W2        2955            0.0000000000
      8866      2956  TIP3      OH2            19.5576412142       34.9026442980        4.8742013663  W2        2956            0.0000000000
      8867      2956  TIP3      H1             19.5083212142       33.9474542980        4.8369613663  W2        2956            0.0000000000
      8868      2956  TIP3      H2             18.7308712142       35.1701742980        5.2755813663  W2        2956            0.0000000000
      8869      2957  TIP3      OH2            10.5360412142       34.4765642980        3.7503413663  W2        2957            0.0000000000
      8870      2957  TIP3      H1             10.6235012142       35.3030242980        4.2252513663  W2        2957            0.0000000000
      8871      2957  TIP3      H2              9.6725512142       34.1469442980        3.9992713663  W2        2957            0.0000000000
      8872      2958  TIP3      OH2            16.7096212142       26.3958942980        5.3544213663  W2        2958            0.0000000000
      8873      2958  TIP3      H1             16.3023012142       26.8764542980        4.6337513663  W2        2958            0.0000000000
      8874      2958  TIP3      H2             16.7501912142       25.4904942980        5.0465013663  W2        2958            0.0000000000
      8875      2959  TIP3      OH2             3.8585712142       32.7798342980        3.3510913663  W2        2959            0.0000000000
      8876      2959  TIP3      H1              4.0747012142       32.4183942980        4.2106713663  W2        2959            0.0000000000
      8877      2959  TIP3      H2              3.0030412142       32.4052142980        3.1414413663  W2        2959            0.0000000000
      8878      2960  TIP3      OH2             6.4773712142       21.2498842980       -0.6534886337  W2        2960            0.0000000000
      8879      2960  TIP3      H1              5.6157412142       21.1627042980       -1.0611986337  W2        2960            0.0000000000
      8880      2960  TIP3      H2              6.4549412142       22.1058942980       -0.2257286337  W2        2960            0.0000000000
      8881      2961  TIP3      OH2            11.1401512142       20.9719242980        2.7212113663  W2        2961            0.0000000000
      8882      2961  TIP3      H1             11.5604612142       20.5566342980        3.4742713663  W2        2961            0.0000000000
      8883      2961  TIP3      H2             10.2071112142       20.7932542980        2.8384113663  W2        2961            0.0000000000
      8884      2962  TIP3      OH2            14.4666412142       24.7274442980        3.5746613663  W2        2962            0.0000000000
      8885      2962  TIP3      H1             13.9525912142       24.6016642980        4.3722613663  W2        2962            0.0000000000
      8886      2962  TIP3      H2             14.3111112142       25.6397542980        3.3302813663  W2        2962            0.0000000000
      8887      2963  TIP3      OH2            15.2291312142       29.5884442980      -10.6640386337  W2        2963            0.0000000000
      8888      2963  TIP3      H1             15.2712112142       29.3658342980      -11.5940386337  W2        2963            0.0000000000
      8889      2963  TIP3      H2             16.0783412142       29.9871542980      -10.4740486337  W2        2963            0.0000000000
      8890      2964  TIP3      OH2            10.8018812142       23.4642642980       -9.9937086337  W2        2964            0.0000000000
      8891      2964  TIP3      H1             10.5483612142       23.4834242980       -9.0708986337  W2        2964            0.0000000000
      8892      2964  TIP3      H2             10.5450912142       22.5928042980      -10.2950886337  W2        2964            0.0000000000
      8893      2965  TIP3      OH2             6.5683812142       26.2153342980        0.4415313663  W2        2965            0.0000000000
      8894      2965  TIP3      H1              5.9265912142       26.1750642980        1.1505413663  W2        2965            0.0000000000
      8895      2965  TIP3      H2              6.6055812142       27.1418042980        0.2038313663  W2        2965            0.0000000000
      8896      2966  TIP3      OH2             6.5652912142       26.4363442980       -4.6464686337  W2        2966            0.0000000000
      8897      2966  TIP3      H1              5.6725812142       26.0959542980       -4.7050886337  W2        2966            0.0000000000
      8898      2966  TIP3      H2              7.0159512142       26.0594342980       -5.4021486337  W2        2966            0.0000000000
      8899      2967  TIP3      OH2            12.1008412142       26.8523742980       -5.8293886337  W2        2967            0.0000000000
      8900      2967  TIP3      H1             11.6918712142       27.6672342980       -6.1209086337  W2        2967            0.0000000000
      8901      2967  TIP3      H2             12.8214612142       26.7123842980       -6.4436786337  W2        2967            0.0000000000
      8902      2968  TIP3      OH2            11.2030012142       27.0280142980        5.6586813663  W2        2968            0.0000000000
      8903      2968  TIP3      H1             10.6403812142       26.3231742980        5.9794613663  W2        2968            0.0000000000
      8904      2968  TIP3      H2             12.0293412142       26.9072042980        6.1264413663  W2        2968            0.0000000000
      8905      2969  TIP3      OH2            13.1056112142       26.2984142980       -3.0154186337  W2        2969            0.0000000000
      8906      2969  TIP3      H1             12.9100612142       26.9040942980       -3.7303586337  W2        2969            0.0000000000
      8907      2969  TIP3      H2             13.2868712142       25.4649342980       -3.4497886337  W2        2969            0.0000000000
      8908      2970  TIP3      OH2             4.3184312142       26.5356842980        2.3087313663  W2        2970            0.0000000000
      8909      2970  TIP3      H1              4.2803712142       26.9358442980        3.1774413663  W2        2970            0.0000000000
      8910      2970  TIP3      H2              3.8275412142       25.7189242980        2.3990213663  W2        2970            0.0000000000
      8911      2971  TIP3      OH2             7.6841712142       23.9099142980      -10.8926686337  W2        2971            0.0000000000
      8912      2971  TIP3      H1              7.2532412142       23.4649242980      -10.1629286337  W2        2971            0.0000000000
      8913      2971  TIP3      H2              6.9660412142       24.2815442980      -11.4049186337  W2        2971            0.0000000000
      8914      2972  TIP3      OH2             0.9265112142       23.6518642980       -3.8407986337  W2        2972            0.0000000000
      8915      2972  TIP3      H1              1.5572812142       23.6230742980       -3.1214086337  W2        2972            0.0000000000
      8916      2972  TIP3      H2              1.3759412142       23.2267342980       -4.5712086337  W2        2972            0.0000000000
      8917      2973  TIP3      OH2             2.2007212142       24.3980642980       -8.4167586337  W2        2973            0.0000000000
      8918      2973  TIP3      H1              2.6748912142       24.9890542980       -9.0016686337  W2        2973            0.0000000000
      8919      2973  TIP3      H2              1.4833612142       24.9283542980       -8.0697486337  W2        2973            0.0000000000
      8920      2974  TIP3      OH2            12.3695312142       27.9365442980        1.6558213663  W2        2974            0.0000000000
      8921      2974  TIP3      H1             12.6930112142       27.3055142980        1.0128713663  W2        2974            0.0000000000
      8922      2974  TIP3      H2             11.9294612142       27.4017642980        2.3165613663  W2        2974            0.0000000000
      8923      2975  TIP3      OH2             9.1468212142       23.8640942980       -3.5600586337  W2        2975            0.0000000000
      8924      2975  TIP3      H1              8.2359312142       23.9207742980       -3.2714586337  W2        2975            0.0000000000
      8925      2975  TIP3      H2              9.6521112142       23.8036442980       -2.7493386337  W2        2975            0.0000000000
      8926      2976  TIP3      OH2             3.9751612142       25.4927242980       -4.7332986337  W2        2976            0.0000000000
      8927      2976  TIP3      H1              3.0859612142       25.5922742980       -5.0733386337  W2        2976            0.0000000000
      8928      2976  TIP3      H2              4.2716512142       24.6510242980       -5.0795086337  W2        2976            0.0000000000
      8929      2977  TIP3      OH2             7.6283412142       25.4929842980       -7.0768386337  W2        2977            0.0000000000
      8930      2977  TIP3      H1              8.5598912142       25.6219842980       -6.8985286337  W2        2977            0.0000000000
      8931      2977  TIP3      H2              7.4133712142       26.1624142980       -7.7263686337  W2        2977            0.0000000000
      8932      2978  TIP3      OH2            13.5520112142       23.0987242980       -0.2958786337  W2        2978            0.0000000000
      8933      2978  TIP3      H1             12.8751712142       23.2300342980        0.3680913663  W2        2978            0.0000000000
      8934      2978  TIP3      H2             13.0665012142       22.9436742980       -1.1061086337  W2        2978            0.0000000000
      8935      2979  TIP3      OH2             6.3023612142       26.6872042980       -9.5102286337  W2        2979            0.0000000000
      8936      2979  TIP3      H1              5.7598712142       26.3075842980      -10.2014686337  W2        2979            0.0000000000
      8937      2979  TIP3      H2              7.1358512142       26.8816742980       -9.9388186337  W2        2979            0.0000000000
      8938      2980  TIP3      OH2             4.4375012142       31.2443942980        5.5889313663  W2        2980            0.0000000000
      8939      2980  TIP3      H1              5.1697412142       31.4989842980        6.1503813663  W2        2980            0.0000000000
      8940      2980  TIP3      H2              3.6573712142       31.4489342980        6.1044713663  W2        2980            0.0000000000
      8941      2981  TIP3      OH2            10.4667912142       26.6513942980       -1.6730986337  W2        2981            0.0000000000
      8942      2981  TIP3      H1             11.0311312142       26.1050542980       -2.2201386337  W2        2981            0.0000000000
      8943      2981  TIP3      H2             10.3191312142       26.1295842980       -0.8843386337  W2        2981            0.0000000000
      8944      2982  TIP3      OH2             5.4687612142       22.7880042980       -5.2546186337  W2        2982            0.0000000000
      8945      2982  TIP3      H1              5.1517112142       21.8855342980       -5.2900786337  W2        2982            0.0000000000
      8946      2982  TIP3      H2              6.2501712142       22.7897442980       -5.8074586337  W2        2982            0.0000000000
      8947      2983  TIP3      OH2             9.0933812142       25.0400042980        0.7409413663  W2        2983            0.0000000000
      8948      2983  TIP3      H1              8.2579112142       25.4939542980        0.8511813663  W2        2983            0.0000000000
      8949      2983  TIP3      H2              9.6174412142       25.3158542980        1.4929313663  W2        2983            0.0000000000
      8950      2984  TIP3      OH2             9.6376412142       31.2527742980       -7.5744186337  W2        2984            0.0000000000
      8951      2984  TIP3      H1              8.8927412142       30.7453042980       -7.8966286337  W2        2984            0.0000000000
      8952      2984  TIP3      H2              9.5033612142       31.3015742980       -6.6279386337  W2        2984            0.0000000000
      8953      2985  TIP3      OH2            16.7875312142       30.3855942980        1.2123413663  W2        2985            0.0000000000
      8954      2985  TIP3      H1             17.4294112142       30.8422242980        0.6685613663  W2        2985            0.0000000000
      8955      2985  TIP3      H2             15.9572212142       30.4988342980        0.7497513663  W2        2985            0.0000000000
      8956      2986  TIP3      OH2            13.5353212142       24.0667642980       -9.3751586337  W2        2986            0.0000000000
      8957      2986  TIP3      H1             12.5967412142       24.1783242980       -9.5262786337  W2        2986            0.0000000000
      8958      2986  TIP3      H2             13.8325312142       24.9234542980       -9.0685886337  W2        2986            0.0000000000
      8959      2987  TIP3      OH2            11.1568512142       31.4371042980        3.6624913663  W2        2987            0.0000000000
      8960      2987  TIP3      H1             10.8114612142       31.0553442980        4.4694513663  W2        2987            0.0000000000
      8961      2987  TIP3      H2             10.9568612142       32.3704642980        3.7337813663  W2        2987            0.0000000000
      8962      2988  TIP3      OH2            14.2536712142       25.9340342980       -7.7144186337  W2        2988            0.0000000000
      8963      2988  TIP3      H1             15.1455712142       25.7965342980       -7.3952986337  W2        2988            0.0000000000
      8964      2988  TIP3      H2             14.3100312142       26.7246442980       -8.2510686337  W2        2988            0.0000000000
      8965      2989  TIP3      OH2             4.7624712142       30.5477742980       -1.8046286337  W2        2989            0.0000000000
      8966      2989  TIP3      H1              5.5071912142       30.5453442980       -2.4059786337  W2        2989            0.0000000000
      8967      2989  TIP3      H2              4.8401312142       29.7241542980       -1.3231186337  W2        2989            0.0000000000
      8968      2990  TIP3      OH2            11.7630512142       32.7112042980       -8.5489586337  W2        2990            0.0000000000
      8969      2990  TIP3      H1             11.4678912142       33.5379942980       -8.1674786337  W2        2990            0.0000000000
      8970      2990  TIP3      H2             11.0600512142       32.0918942980       -8.3528186337  W2        2990            0.0000000000
      8971      2991  TIP3      OH2             1.7704412142       29.0084642980        3.5102213663  W2        2991            0.0000000000
      8972      2991  TIP3      H1              1.9933012142       28.5904242980        4.3419713663  W2        2991            0.0000000000
      8973      2991  TIP3      H2              1.1684512142       28.3959642980        3.0875013663  W2        2991            0.0000000000
      8974      2992  TIP3      OH2             8.7869312142       28.5254542980        5.7231913663  W2        2992            0.0000000000
      8975      2992  TIP3      H1              8.4910112142       28.3597542980        4.8281013663  W2        2992            0.0000000000
      8976      2992  TIP3      H2              9.7184512142       28.3054842980        5.7125813663  W2        2992            0.0000000000
      8977      2993  TIP3      OH2            13.4072112142       33.8986542980        3.6129913663  W2        2993            0.0000000000
      8978      2993  TIP3      H1             12.5066412142       34.0819142980        3.3453813663  W2        2993            0.0000000000
      8979      2993  TIP3      H2             13.4413212142       34.1575842980        4.5338713663  W2        2993            0.0000000000
      8980      2994  TIP3      OH2            19.1385412142       26.1434442980       -8.0197486337  W2        2994            0.0000000000
      8981      2994  TIP3      H1             18.5841712142       25.7472442980       -8.6919986337  W2        2994            0.0000000000
      8982      2994  TIP3      H2             19.2389012142       27.0539642980       -8.2974186337  W2        2994            0.0000000000
      8983      2995  TIP3      OH2            19.1017412142       31.9436142980        4.8174013663  W2        2995            0.0000000000
      8984      2995  TIP3      H1             18.2505912142       32.1819942980        4.4500413663  W2        2995            0.0000000000
      8985      2995  TIP3      H2             19.6920812142       31.9269342980        4.0641113663  W2        2995            0.0000000000
      8986      2996  TIP3      OH2            17.4337112142       34.9294842980       -7.5545386337  W2        2996            0.0000000000
      8987      2996  TIP3      H1             17.0608212142       34.1038642980       -7.2454786337  W2        2996            0.0000000000
      8988      2996  TIP3      H2             17.7110612142       34.7464242980       -8.4521986337  W2        2996            0.0000000000
      8989      2997  TIP3      OH2            14.5941012142       29.7374342980       -0.5333486337  W2        2997            0.0000000000
      8990      2997  TIP3      H1             13.6657912142       29.5056242980       -0.5604186337  W2        2997            0.0000000000
      8991      2997  TIP3      H2             15.0452112142       28.9604142980       -0.8634686337  W2        2997            0.0000000000
      8992      2998  TIP3      OH2             7.1374112142       34.0655942980       -4.4004786337  W2        2998            0.0000000000
      8993      2998  TIP3      H1              7.6646312142       34.8390342980       -4.6005986337  W2        2998            0.0000000000
      8994      2998  TIP3      H2              6.2572612142       34.2905142980       -4.7020786337  W2        2998            0.0000000000
      8995      2999  TIP3      OH2             2.8921812142       28.9280042980       -9.8132386337  W2        2999            0.0000000000
      8996      2999  TIP3      H1              3.5081712142       29.5547242980       -9.4337586337  W2        2999            0.0000000000
      8997      2999  TIP3      H2              2.0304412142       29.2439842980       -9.5415886337  W2        2999            0.0000000000
      8998      3000  TIP3      OH2             8.5646412142       31.7285842980       -4.8240486337  W2        3000            0.0000000000
      8999      3000  TIP3      H1              8.3236412142       32.6540242980       -4.7825186337  W2        3000            0.0000000000
      9000      3000  TIP3      H2              7.8240012142       31.2697142980       -4.4276586337  W2        3000            0.0000000000
      9001      3001  TIP3      OH2             9.0793012142       35.8779442980        1.4910613663  W2        3001            0.0000000000
      9002      3001  TIP3      H1              9.4417712142       36.7325042980        1.2575013663  W2        3001            0.0000000000
      9003      3001  TIP3      H2              9.6108212142       35.5861042980        2.2316913663  W2        3001            0.0000000000
      9004      3002  TIP3      OH2             7.2477212142       36.7503442980       -5.2788286337  W2        3002            0.0000000000
      9005      3002  TIP3      H1              6.2977712142       36.8560842980       -5.2274986337  W2        3002            0.0000000000
      9006      3002  TIP3      H2              7.5995312142       37.5710842980       -4.9340786337  W2        3002            0.0000000000
      9007      3003  TIP3      OH2            12.6233812142       31.9770142980        1.1916213663  W2        3003            0.0000000000
      9008      3003  TIP3      H1             12.1975112142       31.7491842980        2.0180213663  W2        3003            0.0000000000
      9009      3003  TIP3      H2             13.2039612142       31.2381942980        1.0091513663  W2        3003            0.0000000000
      9010      3004  TIP3      OH2            14.8262712142       32.9060642980       -9.7344786337  W2        3004            0.0000000000
      9011      3004  TIP3      H1             15.1795812142       32.5260442980       -8.9301286337  W2        3004            0.0000000000
      9012      3004  TIP3      H2             13.8776212142       32.8125442980       -9.6475486337  W2        3004            0.0000000000
      9013      3005  TIP3      OH2            15.2818012142       36.5289642980        3.6611013663  W2        3005            0.0000000000
      9014      3005  TIP3      H1             14.6801212142       35.9732542980        3.1657313663  W2        3005            0.0000000000
      9015      3005  TIP3      H2             15.5631712142       37.1959442980        3.0348413663  W2        3005            0.0000000000
      9016      3006  TIP3      OH2             3.4043912142       23.7617342980        3.0683613663  W2        3006            0.0000000000
      9017      3006  TIP3      H1              2.5116212142       24.1002742980        3.0007613663  W2        3006            0.0000000000
      9018      3006  TIP3      H2              3.3056712142       22.9063442980        3.4864413663  W2        3006            0.0000000000
      9019      3007  TIP3      OH2            15.6922012142       31.5782642980       -7.5076886337  W2        3007            0.0000000000
      9020      3007  TIP3      H1             15.4149612142       30.8501942980       -6.9515786337  W2        3007            0.0000000000
      9021      3007  TIP3      H2             16.6195012142       31.6974642980       -7.3024286337  W2        3007            0.0000000000
      9022      3008  TIP3      OH2             3.0555912142       35.5661742980        1.5033013663  W2        3008            0.0000000000
      9023      3008  TIP3      H1              3.2726212142       34.6344142980        1.4722713663  W2        3008            0.0000000000
      9024      3008  TIP3      H2              3.3019412142       35.8406742980        2.3865813663  W2        3008            0.0000000000
      9025      3009  TIP3      OH2             8.9170512142       34.0176742980      -11.2874786337  W2        3009            0.0000000000
      9026      3009  TIP3      H1              9.1560312142       33.2694842980      -11.8345886337  W2        3009            0.0000000000
      9027      3009  TIP3      H2              8.6481812142       33.6298442980      -10.4546986337  W2        3009            0.0000000000
      9028      3010  TIP3      OH2             7.8541112142       33.5880542980       -8.8312186337  W2        3010            0.0000000000
      9029      3010  TIP3      H1              8.0009112142       33.0680342980       -8.0411286337  W2        3010            0.0000000000
      9030      3010  TIP3      H2              7.8512812142       34.4948142980       -8.5246286337  W2        3010            0.0000000000
      9031      3011  TIP3      OH2             4.3072212142       30.8403842980       -8.3206786337  W2        3011            0.0000000000
      9032      3011  TIP3      H1              3.6211512142       31.1926342980       -7.7537086337  W2        3011            0.0000000000
      9033      3011  TIP3      H2              4.8300112142       31.6033442980       -8.5672486337  W2        3011            0.0000000000
      9034      3012  TIP3      OH2            12.1387312142       23.5027642980        1.9582213663  W2        3012            0.0000000000
      9035      3012  TIP3      H1             12.8375212142       23.5766342980        2.6081913663  W2        3012            0.0000000000
      9036      3012  TIP3      H2             11.7578712142       22.6382642980        2.1125113663  W2        3012            0.0000000000
      9037      3013  TIP3      OH2            12.9232212142       23.1549342980       -6.9445486337  W2        3013            0.0000000000
      9038      3013  TIP3      H1             13.1430512142       23.6264742980       -7.7480086337  W2        3013            0.0000000000
      9039      3013  TIP3      H2             13.4816212142       23.5491942980       -6.2744886337  W2        3013            0.0000000000
      9040      3014  TIP3      OH2            10.5918312142       35.2854142980       -8.0817986337  W2        3014            0.0000000000
      9041      3014  TIP3      H1              9.7754412142       35.7823842980       -8.0293686337  W2        3014            0.0000000000
      9042      3014  TIP3      H2             11.1214612142       35.7607642980       -8.7219186337  W2        3014            0.0000000000
      9043      3015  TIP3      OH2            10.1232112142       24.8828142980       -6.1097086337  W2        3015            0.0000000000
      9044      3015  TIP3      H1             10.9354712142       25.3871342980       -6.0635386337  W2        3015            0.0000000000
      9045      3015  TIP3      H2              9.8785112142       24.7377842980       -5.1957486337  W2        3015            0.0000000000
      9046      3016  TIP3      OH2            10.6588512142       25.8690842980        3.0749513663  W2        3016            0.0000000000
      9047      3016  TIP3      H1             10.7778812142       26.4426242980        3.8319913663  W2        3016            0.0000000000
      9048      3016  TIP3      H2             11.3143112142       25.1810242980        3.1897313663  W2        3016            0.0000000000
      9049      3017  TIP3      OH2            11.0068812142       21.9641142980       -5.1715986337  W2        3017            0.0000000000
      9050      3017  TIP3      H1             10.6602312142       22.5811742980       -4.5271686337  W2        3017            0.0000000000
      9051      3017  TIP3      H2             11.6655712142       22.4646842980       -5.6530486337  W2        3017            0.0000000000
      9052      3018  TIP3      OH2             7.9301412142       36.3291342980       -8.1001086337  W2        3018            0.0000000000
      9053      3018  TIP3      H1              8.0910112142       37.1288842980       -8.6008486337  W2        3018            0.0000000000
      9054      3018  TIP3      H2              7.7329212142       36.6357342980       -7.2150486337  W2        3018            0.0000000000
      9055      3019  TIP3      OH2             6.6645812142       23.0270542980       -8.4843486337  W2        3019            0.0000000000
      9056      3019  TIP3      H1              6.5810612142       23.9153642980       -8.1377086337  W2        3019            0.0000000000
      9057      3019  TIP3      H2              7.5546112142       22.7617242980       -8.2526686337  W2        3019            0.0000000000
      9058      3020  TIP3      OH2            16.8634312142       23.7761142980        3.9099213663  W2        3020            0.0000000000
      9059      3020  TIP3      H1             15.9470112142       24.0382842980        3.8222913663  W2        3020            0.0000000000
      9060      3020  TIP3      H2             17.1989312142       23.7730142980        3.0134513663  W2        3020            0.0000000000
      9061      3021  TIP3      OH2            15.4655312142       27.5262142980       -1.9943486337  W2        3021            0.0000000000
      9062      3021  TIP3      H1             14.6679712142       27.1112342980       -2.3228486337  W2        3021            0.0000000000
      9063      3021  TIP3      H2             15.9106412142       26.8355842980       -1.5032986337  W2        3021            0.0000000000
      9064      3022  TIP3      OH2             4.9231112142       33.4542742980       -9.4238986337  W2        3022            0.0000000000
      9065      3022  TIP3      H1              5.5152612142       34.1537542980       -9.1476586337  W2        3022            0.0000000000
      9066      3022  TIP3      H2              5.3824112142       33.0212242980      -10.1434386337  W2        3022            0.0000000000
      9067      3023  TIP3      OH2             3.2390312142       26.1185742980      -10.3079586337  W2        3023            0.0000000000
      9068      3023  TIP3      H1              3.1942912142       27.0578842980      -10.1292586337  W2        3023            0.0000000000
      9069      3023  TIP3      H2              2.3513512142       25.8830642980      -10.5777486337  W2        3023            0.0000000000
      9070      3024  TIP3      OH2             4.0472312142       20.9002342980       -1.6348586337  W2        3024            0.0000000000
      9071      3024  TIP3      H1              3.8182112142       20.9594842980       -2.5623586337  W2        3024            0.0000000000
      9072      3024  TIP3      H2              3.6045712142       20.1087842980       -1.3284486337  W2        3024            0.0000000000
      9073      3025  TIP3      OH2             2.9775612142       34.8409442980       -5.4742786337  W2        3025            0.0000000000
      9074      3025  TIP3      H1              2.1454212142       35.3132142980       -5.4471386337  W2        3025            0.0000000000
      9075      3025  TIP3      H2              3.5233912142       35.3507042980       -6.0729686337  W2        3025            0.0000000000
      9076      3026  TIP3      OH2             6.8632712142       36.3727542980        7.4759413663  W2        3026            0.0000000000
      9077      3026  TIP3      H1              7.6309912142       35.9138342980        7.8168613663  W2        3026            0.0000000000
      9078      3026  TIP3      H2              6.8418912142       36.1467342980        6.5460613663  W2        3026            0.0000000000
      9079      3027  TIP3      OH2            10.9552312142       35.8808142980      -11.1488786337  W2        3027            0.0000000000
      9080      3027  TIP3      H1             10.3113312142       35.2496742980      -10.8275086337  W2        3027            0.0000000000
      9081      3027  TIP3      H2             11.7170612142       35.3496142980      -11.3805286337  W2        3027            0.0000000000
      9082      3028  TIP3      OH2            13.4401412142       34.7528642980        6.2050913663  W2        3028            0.0000000000
      9083      3028  TIP3      H1             13.0890912142       33.8961642980        6.4481313663  W2        3028            0.0000000000
      9084      3028  TIP3      H2             14.1664612142       34.8955342980        6.8119913663  W2        3028            0.0000000000
      9085      3029  TIP3      OH2            15.5595212142       35.6978042980      -10.9150786337  W2        3029            0.0000000000
      9086      3029  TIP3      H1             15.8425612142       34.9033242980      -10.4623886337  W2        3029            0.0000000000
      9087      3029  TIP3      H2             16.2993112142       35.9309042980      -11.4759686337  W2        3029            0.0000000000
      9088      3030  TIP3      OH2             2.1728812142       31.2637242980        6.8099513663  W2        3030            0.0000000000
      9089      3030  TIP3      H1              2.3169312142       30.3617942980        6.5236213663  W2        3030            0.0000000000
      9090      3030  TIP3      H2              1.4006212142       31.5499342980        6.3221813663  W2        3030            0.0000000000
      9091      3031  TIP3      OH2             6.5142512142       31.6072942980      -11.0575886337  W2        3031            0.0000000000
      9092      3031  TIP3      H1              6.5786612142       30.8132542980      -10.5269486337  W2        3031            0.0000000000
      9093      3031  TIP3      H2              7.1671712142       31.4885742980      -11.7473886337  W2        3031            0.0000000000
      9094      3032  TIP3      OH2             8.8284912142       31.2335342980        6.2425913663  W2        3032            0.0000000000
      9095      3032  TIP3      H1              8.4998712142       31.5043442980        5.3853313663  W2        3032            0.0000000000
      9096      3032  TIP3      H2              8.9803112142       30.2925142980        6.1550913663  W2        3032            0.0000000000
      9097      3033  TIP3      OH2            11.8665912142       32.6544642980      -11.3217886337  W2        3033            0.0000000000
      9098      3033  TIP3      H1             11.5980012142       32.8346742980      -10.4208986337  W2        3033            0.0000000000
      9099      3033  TIP3      H2             11.6601512142       31.7290842980      -11.4532086337  W2        3033            0.0000000000
      9100      3034  TIP3      OH2            14.5630112142       31.1492642980        3.6258213663  W2        3034            0.0000000000
      9101      3034  TIP3      H1             15.3084912142       31.7376342980        3.5062213663  W2        3034            0.0000000000
      9102      3034  TIP3      H2             13.8056912142       31.7312342980        3.6891313663  W2        3034            0.0000000000
      9103      3035  TIP3      OH2             3.0055312142       28.4640542980        6.2298813663  W2        3035            0.0000000000
      9104      3035  TIP3      H1              3.4136512142       27.6067142980        6.1089413663  W2        3035            0.0000000000
      9105      3035  TIP3      H2              2.7452912142       28.4781842980        7.1509113663  W2        3035            0.0000000000
      9106      3036  TIP3      OH2             7.6636312142       29.5799142980       -8.7517886337  W2        3036            0.0000000000
      9107      3036  TIP3      H1              7.2038312142       29.0957442980       -8.0659386337  W2        3036            0.0000000000
      9108      3036  TIP3      H2              7.9185012142       28.9114542980       -9.3877386337  W2        3036            0.0000000000
      9109      3037  TIP3      OH2             6.9525612142       27.4726242980        3.6041713663  W2        3037            0.0000000000
      9110      3037  TIP3      H1              6.3341712142       28.1472842980        3.8846413663  W2        3037            0.0000000000
      9111      3037  TIP3      H2              7.2966812142       27.7940142980        2.7707913663  W2        3037            0.0000000000
      9112      3038  TIP3      OH2             8.7346712142       27.8230942980      -10.4894686337  W2        3038            0.0000000000
      9113      3038  TIP3      H1              8.5541712142       27.6682142980      -11.4166386337  W2        3038            0.0000000000
      9114      3038  TIP3      H2              9.6847212142       27.9309642980      -10.4446786337  W2        3038            0.0000000000
      9115      3039  TIP3      OH2            11.9723812142       29.9441542980        6.8816513663  W2        3039            0.0000000000
      9116      3039  TIP3      H1             12.9255012142       30.0280642980        6.8542513663  W2        3039            0.0000000000
      9117      3039  TIP3      H2             11.8118412142       29.2323342980        7.5011413663  W2        3039            0.0000000000
      9118      3040  TIP3      OH2            18.1245012142       30.1775142980      -11.0436586337  W2        3040            0.0000000000
      9119      3040  TIP3      H1             17.8509812142       29.7530642980      -11.8568286337  W2        3040            0.0000000000
      9120      3040  TIP3      H2             18.1639112142       31.1089642980      -11.2606186337  W2        3040            0.0000000000
      9121      3041  TIP3      OH2             7.2919312142       24.8277042980        4.6864813663  W2        3041            0.0000000000
      9122      3041  TIP3      H1              7.4420212142       24.0988342980        4.0844513663  W2        3041            0.0000000000
      9123      3041  TIP3      H2              7.2941712142       25.6048742980        4.1277013663  W2        3041            0.0000000000
      9124      3042  TIP3      OH2             7.7045012142       23.1972842980        2.1792213663  W2        3042            0.0000000000
      9125      3042  TIP3      H1              8.2402512142       23.6489542980        1.5271513663  W2        3042            0.0000000000
      9126      3042  TIP3      H2              6.8524612142       23.0892642980        1.7566313663  W2        3042            0.0000000000
      9127      3043  TIP3      OH2             9.2863412142       28.6369042980        2.4187413663  W2        3043            0.0000000000
      9128      3043  TIP3      H1             10.0368212142       28.4806542980        1.8455213663  W2        3043            0.0000000000
      9129      3043  TIP3      H2              8.9471712142       29.4885642980        2.1432913663  W2        3043            0.0000000000
      9130      3044  TIP3      OH2            13.7019612142       26.4520842980        7.4472713663  W2        3044            0.0000000000
      9131      3044  TIP3      H1             13.8940912142       25.5210242980        7.3357213663  W2        3044            0.0000000000
      9132      3044  TIP3      H2             14.5595912142       26.8770342980        7.4368113663  W2        3044            0.0000000000
      9133      3045  TIP3      OH2            15.0186812142       29.2406042980        5.5245413663  W2        3045            0.0000000000
      9134      3045  TIP3      H1             14.7371812142       29.9500642980        4.9469213663  W2        3045            0.0000000000
      9135      3045  TIP3      H2             15.9611112142       29.1679042980        5.3736613663  W2        3045            0.0000000000
      9136      3046  TIP3      OH2             5.7705612142       26.0260542980        6.5980413663  W2        3046            0.0000000000
      9137      3046  TIP3      H1              5.0034612142       25.4935342980        6.3878013663  W2        3046            0.0000000000
      9138      3046  TIP3      H2              6.4494612142       25.7160942980        5.9986713663  W2        3046            0.0000000000
      9139      3047  TIP3      OH2             8.5100512142       20.6538542980        2.6105813663  W2        3047            0.0000000000
      9140      3047  TIP3      H1              8.4120112142       21.6001742980        2.5052013663  W2        3047            0.0000000000
      9141      3047  TIP3      H2              7.7676712142       20.2812342980        2.1349313663  W2        3047            0.0000000000
      9142      3048  TIP3      OH2             9.7741012142       24.9753942980        6.1744213663  W2        3048            0.0000000000
      9143      3048  TIP3      H1              9.5386412142       24.7560642980        7.0759113663  W2        3048            0.0000000000
      9144      3048  TIP3      H2              8.9907912142       24.7685142980        5.6646713663  W2        3048            0.0000000000
      9145      3049  TIP3      OH2            12.4897612142       24.1027442980        5.2497713663  W2        3049            0.0000000000
      9146      3049  TIP3      H1             11.5423012142       24.1347142980        5.3821013663  W2        3049            0.0000000000
      9147      3049  TIP3      H2             12.8024312142       23.4774542980        5.9035913663  W2        3049            0.0000000000
      9148      3050  TIP3      OH2            14.1239112142       22.7368542980        7.2549613663  W2        3050            0.0000000000
      9149      3050  TIP3      H1             14.0270912142       21.7845842980        7.2491513663  W2        3050            0.0000000000
      9150      3050  TIP3      H2             13.8022212142       23.0055342980        8.1155113663  W2        3050            0.0000000000
      9151      3051  TIP3      OH2             3.9508412142       23.9464342980        6.3025113663  W2        3051            0.0000000000
      9152      3051  TIP3      H1              4.1625812142       23.2400442980        5.6922613663  W2        3051            0.0000000000
      9153      3051  TIP3      H2              3.8395912142       23.5090342980        7.1466313663  W2        3051            0.0000000000
      9154      3052  TIP3      OH2             8.7318612142       19.9475942980        5.2818613663  W2        3052            0.0000000000
      9155      3052  TIP3      H1              9.4437012142       19.3078142980        5.2677713663  W2        3052            0.0000000000
      9156      3052  TIP3      H2              8.6309012142       20.2144242980        4.3681713663  W2        3052            0.0000000000
      9157      3053  TIP3      OH2             9.0856112142       21.6304342980        7.3354913663  W2        3053            0.0000000000
      9158      3053  TIP3      H1              8.9538312142       21.1548142980        6.5153413663  W2        3053            0.0000000000
      9159      3053  TIP3      H2              8.4863512142       22.3747942980        7.2802013663  W2        3053            0.0000000000
      9160      3054  TIP3      OH2             2.2003312142       33.1498442980      -10.0052986337  W2        3054            0.0000000000
      9161      3054  TIP3      H1              3.1142512142       33.2287342980       -9.7319086337  W2        3054            0.0000000000
      9162      3054  TIP3      H2              2.2076412142       32.4628042980      -10.6717386337  W2        3054            0.0000000000
      9163      3055  TIP3      OH2             1.7193112142       36.6233942980       -3.1232886337  W2        3055            0.0000000000
      9164      3055  TIP3      H1              1.3849912142       35.7431242980       -2.9512686337  W2        3055            0.0000000000
      9165      3055  TIP3      H2              1.9415512142       36.9688942980       -2.2587286337  W2        3055            0.0000000000
      9166      3056  TIP3      OH2            17.2818112142       32.7899542980        7.4171313663  W2        3056            0.0000000000
      9167      3056  TIP3      H1             16.4159212142       32.6849242980        7.8113613663  W2        3056            0.0000000000
      9168      3056  TIP3      H2             17.6584012142       33.5482842980        7.8636013663  W2        3056            0.0000000000
      9169      3057  TIP3      OH2            18.5827812142       31.0463242980       -7.0686186337  W2        3057            0.0000000000
      9170      3057  TIP3      H1             19.4329212142       31.4674142980       -6.9414586337  W2        3057            0.0000000000
      9171      3057  TIP3      H2             18.5882912142       30.3063342980       -6.4614786337  W2        3057            0.0000000000
      9172      3058  TIP3      OH2            18.9773412142       29.1000642980       -5.2450486337  W2        3058            0.0000000000
      9173      3058  TIP3      H1             18.2508012142       28.6203242980       -4.8472886337  W2        3058            0.0000000000
      9174      3058  TIP3      H2             19.5586712142       29.3055342980       -4.5128886337  W2        3058            0.0000000000
      9175      3059  TIP3      OH2            18.7364612142       31.8848142980       -0.2972886337  W2        3059            0.0000000000
      9176      3059  TIP3      H1             19.5698812142       31.5068142980       -0.5779286337  W2        3059            0.0000000000
      9177      3059  TIP3      H2             18.8484912142       32.8279342980       -0.4163786337  W2        3059            0.0000000000
      9178      3060  TIP3      OH2            17.2226912142       34.7625642980        2.0095513663  W2        3060            0.0000000000
      9179      3060  TIP3      H1             16.5752212142       35.0877142980        2.6350713663  W2        3060            0.0000000000
      9180      3060  TIP3      H2             16.7050912142       34.3223342980        1.3353813663  W2        3060            0.0000000000
      9181      3061  TIP3      OH2            19.2456512142       29.0009142980       -8.8539186337  W2        3061            0.0000000000
      9182      3061  TIP3      H1             18.7237612142       29.3573242980       -9.5728286337  W2        3061            0.0000000000
      9183      3061  TIP3      H2             19.2125712142       29.6756942980       -8.1758286337  W2        3061            0.0000000000
      9184      3062  TIP3      OH2            17.5945512142       26.2404742980      -10.3032086337  W2        3062            0.0000000000
      9185      3062  TIP3      H1             17.6909912142       26.9071742980      -10.9832386337  W2        3062            0.0000000000
      9186      3062  TIP3      H2             17.4545112142       25.4251042980      -10.7846586337  W2        3062            0.0000000000
      9187      3063  TIP3      OH2            16.7640212142       27.6207142980       -4.6821786337  W2        3063            0.0000000000
      9188      3063  TIP3      H1             16.6139012142       26.6755742980       -4.7023986337  W2        3063            0.0000000000
      9189      3063  TIP3      H2             16.4104712142       27.9018542980       -3.8382686337  W2        3063            0.0000000000
      9190      3064  TIP3      OH2             1.7992612142       29.6989342980       -0.6717986337  W2        3064            0.0000000000
      9191      3064  TIP3      H1              1.9835512142       29.6171042980       -1.6075086337  W2        3064            0.0000000000
      9192      3064  TIP3      H2              2.6485512142       29.5746342980       -0.2481586337  W2        3064            0.0000000000
      9193      3065  TIP3      OH2            17.6203112142       29.5910442980        4.9566513663  W2        3065            0.0000000000
      9194      3065  TIP3      H1             18.2030412142       28.8562742980        5.1483713663  W2        3065            0.0000000000
      9195      3065  TIP3      H2             18.1842412142       30.3630742980        5.0032313663  W2        3065            0.0000000000
      9196      3066  TIP3      OH2            19.1170212142       27.4936242980        5.6411913663  W2        3066            0.0000000000
      9197      3066  TIP3      H1             18.2536912142       27.1148342980        5.4756613663  W2        3066            0.0000000000
      9198      3066  TIP3      H2             19.7213912142       26.7551042980        5.5667713663  W2        3066            0.0000000000
      9199      3067  TIP3      OH2            16.8419312142       23.6484542980      -11.1856586337  W2        3067            0.0000000000
      9200      3067  TIP3      H1             17.4525112142       23.2771342980      -10.5488386337  W2        3067            0.0000000000
      9201      3067  TIP3      H2             16.0050812142       23.2271442980      -10.9896586337  W2        3067            0.0000000000
      9202      3068  TIP3      OH2            16.4745012142       25.2032942980       -6.2196686337  W2        3068            0.0000000000
      9203      3068  TIP3      H1             16.7542112142       24.2963342980       -6.0954986337  W2        3068            0.0000000000
      9204      3068  TIP3      H2             17.2336712142       25.6374442980       -6.6087486337  W2        3068            0.0000000000
      9205      3069  TIP3      OH2            17.0863312142       25.7850342980       -0.7837786337  W2        3069            0.0000000000
      9206      3069  TIP3      H1             18.0191312142       25.9970242980       -0.8181786337  W2        3069            0.0000000000
      9207      3069  TIP3      H2             16.8510812142       25.8862442980        0.1385213663  W2        3069            0.0000000000
      9208      3070  TIP3      OH2            17.1155212142       26.5215642980        1.9921613663  W2        3070            0.0000000000
      9209      3070  TIP3      H1             16.2726512142       26.7896042980        2.3581413663  W2        3070            0.0000000000
      9210      3070  TIP3      H2             17.5579512142       27.3437542980        1.7812713663  W2        3070            0.0000000000
      9211      3071  TIP3      OH2             1.3967412142       24.9694342980        5.4690813663  W2        3071            0.0000000000
      9212      3071  TIP3      H1              2.3162312142       24.8472642980        5.7053913663  W2        3071            0.0000000000
      9213      3071  TIP3      H2              0.9471912142       24.2194042980        5.8584313663  W2        3071            0.0000000000
      9214      3072  TIP3      OH2            19.3986812142       20.5015842980        7.3456613663  W2        3072            0.0000000000
      9215      3072  TIP3      H1             19.7483812142       19.8479342980        6.7401313663  W2        3072            0.0000000000
      9216      3072  TIP3      H2             19.5456312142       21.3389942980        6.9059213663  W2        3072            0.0000000000
      9217      3073  TIP3      OH2            17.0879812142       22.4662242980       -6.1714686337  W2        3073            0.0000000000
      9218      3073  TIP3      H1             17.2704812142       22.0173742980       -5.3459686337  W2        3073            0.0000000000
      9219      3073  TIP3      H2             16.4882712142       21.8816642980       -6.6350086337  W2        3073            0.0000000000
      9220      3074  TIP3      OH2             2.6179912142       23.2815942980       -1.6396286337  W2        3074            0.0000000000
      9221      3074  TIP3      H1              3.0631512142       22.4898442980       -1.3376586337  W2        3074            0.0000000000
      9222      3074  TIP3      H2              3.0842912142       23.9981142980       -1.2090686337  W2        3074            0.0000000000
      9223      3075  TIP3      OH2             0.9220212142       26.2808942980       -0.5706086337  W2        3075            0.0000000000
      9224      3075  TIP3      H1              1.4140012142       26.0599442980       -1.3614086337  W2        3075            0.0000000000
      9225      3075  TIP3      H2              1.2841112142       27.1212342980       -0.2896586337  W2        3075            0.0000000000
      9226      3076  TIP3      OH2            18.9184012142       22.6110442980        5.6947913663  W2        3076            0.0000000000
      9227      3076  TIP3      H1             18.0009712142       22.8817542980        5.6591413663  W2        3076            0.0000000000
      9228      3076  TIP3      H2             19.0413412142       22.0758842980        4.9107613663  W2        3076            0.0000000000
      9229      3077  TIP3      OH2            18.9546012142       22.5340342980       -9.6434386337  W2        3077            0.0000000000
      9230      3077  TIP3      H1             19.3668612142       21.8126042980      -10.1186386337  W2        3077            0.0000000000
      9231      3077  TIP3      H2             19.6362512142       23.2034942980       -9.5850086337  W2        3077            0.0000000000
      9232      3078  TIP3      OH2             1.2356712142       22.5388042980       -6.5163686337  W2        3078            0.0000000000
      9233      3078  TIP3      H1              0.3105112142       22.7474642980       -6.6458186337  W2        3078            0.0000000000
      9234      3078  TIP3      H2              1.6896612142       23.0228842980       -7.2061386337  W2        3078            0.0000000000
      9235      3079  TIP3      OH2             1.1992112142       21.2767042980        1.8278813663  W2        3079            0.0000000000
      9236      3079  TIP3      H1              0.5342612142       21.0307342980        2.4709713663  W2        3079            0.0000000000
      9237      3079  TIP3      H2              0.7563412142       21.8987442980        1.2506813663  W2        3079            0.0000000000
      9238      3080  TIP3      OH2             3.3911412142       34.4521142980        5.9724613663  W2        3080            0.0000000000
      9239      3080  TIP3      H1              2.5703912142       34.6267642980        5.5119313663  W2        3080            0.0000000000
      9240      3080  TIP3      H2              3.1389212142       34.3785842980        6.8929013663  W2        3080            0.0000000000
      9241      3081  TIP3      OH2             6.3454312142       35.4262342980        2.2308613663  W2        3081            0.0000000000
      9242      3081  TIP3      H1              5.9205412142       36.2360842980        1.9483213663  W2        3081            0.0000000000
      9243      3081  TIP3      H2              7.2497112142       35.5116442980        1.9288413663  W2        3081            0.0000000000
      9244      3082  TIP3      OH2            17.9189912142       20.7006742980        3.5138713663  W2        3082            0.0000000000
      9245      3082  TIP3      H1             17.1063412142       21.0257042980        3.1263413663  W2        3082            0.0000000000
      9246      3082  TIP3      H2             18.1518412142       19.9405242980        2.9807813663  W2        3082            0.0000000000
      9247      3083  TIP3      OH2             5.3032212142       36.0157442980       -2.1564386337  W2        3083            0.0000000000
      9248      3083  TIP3      H1              5.0842912142       35.0994842980       -1.9868386337  W2        3083            0.0000000000
      9249      3083  TIP3      H2              6.1274412142       36.1557842980       -1.6902986337  W2        3083            0.0000000000
      9250      3084  TIP3      OH2             7.8404712142       36.4856742980       -1.3076386337  W2        3084            0.0000000000
      9251      3084  TIP3      H1              8.0530412142       35.5975742980       -1.5945486337  W2        3084            0.0000000000
      9252      3084  TIP3      H2              7.9049812142       36.4514442980       -0.3532386337  W2        3084            0.0000000000
      9253      3085  TIP3      OH2            11.3488412142       22.1497342980       -2.1633086337  W2        3085            0.0000000000
      9254      3085  TIP3      H1             10.6745212142       21.5202942980       -1.9077286337  W2        3085            0.0000000000
      9255      3085  TIP3      H2             11.9127612142       21.6656242980       -2.7665186337  W2        3085            0.0000000000
      9256      3086  TIP3      OH2            16.4915612142       20.2571342980       -2.0505986337  W2        3086            0.0000000000
      9257      3086  TIP3      H1             17.0953212142       20.8046742980       -2.5524986337  W2        3086            0.0000000000
      9258      3086  TIP3      H2             15.6217612142       20.5761742980       -2.2911886337  W2        3086            0.0000000000
      9259      3087  TIP3      OH2            18.2186012142       21.3960042980       -3.7175086337  W2        3087            0.0000000000
      9260      3087  TIP3      H1             18.8303512142       20.8815742980       -4.2441486337  W2        3087            0.0000000000
      9261      3087  TIP3      H2             18.6009412142       22.2732142980       -3.6940686337  W2        3087            0.0000000000
      9262      3088  TIP3      OH2             3.6755912142       20.7837642980       -4.3413186337  W2        3088            0.0000000000
      9263      3088  TIP3      H1              2.8985712142       20.5492542980       -4.8487286337  W2        3088            0.0000000000
      9264      3088  TIP3      H2              4.2059512142       19.9869742980       -4.3325186337  W2        3088            0.0000000000
      9265      3089  TIP3      OH2             2.5119312142       20.5815742980       -8.5377086337  W2        3089            0.0000000000
      9266      3089  TIP3      H1              2.9510012142       21.1926242980       -9.1293586337  W2        3089            0.0000000000
      9267      3089  TIP3      H2              1.8781712142       21.1199842980       -8.0637086337  W2        3089            0.0000000000
      9268      3090  TIP3      OH2             8.2548512142       20.7104742980       -4.5280086337  W2        3090            0.0000000000
      9269      3090  TIP3      H1              9.1291912142       21.0989042980       -4.5575786337  W2        3090            0.0000000000
      9270      3090  TIP3      H2              8.1189312142       20.4952542980       -3.6052886337  W2        3090            0.0000000000
      9271      3091  TIP3      OH2            13.8116912142       20.7404542980       -2.8788386337  W2        3091            0.0000000000
      9272      3091  TIP3      H1             13.8878512142       20.8356142980       -3.8282386337  W2        3091            0.0000000000
      9273      3091  TIP3      H2             13.5366112142       19.8327442980       -2.7499286337  W2        3091            0.0000000000
      9274      3092  TIP3      OH2            15.1649512142       20.7662342980       -7.1863386337  W2        3092            0.0000000000
      9275      3092  TIP3      H1             14.4620612142       21.3811542980       -7.3961986337  W2        3092            0.0000000000
      9276      3092  TIP3      H2             14.7200912142       19.9289042980       -7.0552486337  W2        3092            0.0000000000
      9277      3093  TIP3      OH2             2.4128812142       36.5297942980       -7.6401986337  W2        3093            0.0000000000
      9278      3093  TIP3      H1              1.7278712142       36.4916842980       -8.3076886337  W2        3093            0.0000000000
      9279      3093  TIP3      H2              2.4166012142       37.4425542980       -7.3519886337  W2        3093            0.0000000000
      9280      3094  TIP3      OH2             4.3728412142       22.4977242980      -10.0952986337  W2        3094            0.0000000000
      9281      3094  TIP3      H1              4.8641812142       21.8679642980      -10.6227486337  W2        3094            0.0000000000
      9282      3094  TIP3      H2              4.9964712142       22.7936642980       -9.4321786337  W2        3094            0.0000000000
      9283      3095  TIP3      OH2             9.3988512142       22.7908742980       -7.6382486337  W2        3095            0.0000000000
      9284      3095  TIP3      H1              9.5769812142       22.1441942980       -6.9553886337  W2        3095            0.0000000000
      9285      3095  TIP3      H2              9.3454712142       23.6246442980       -7.1711386337  W2        3095            0.0000000000
      9286      3096  TIP3      OH2             3.6333912142       21.2979542980        5.1763013663  W2        3096            0.0000000000
      9287      3096  TIP3      H1              3.2672112142       20.5322142980        5.6187713663  W2        3096            0.0000000000
      9288      3096  TIP3      H2              4.5462412142       21.3269742980        5.4628113663  W2        3096            0.0000000000
      9289      3097  TIP3      OH2             5.6064712142       20.6483942980        6.7120113663  W2        3097            0.0000000000
      9290      3097  TIP3      H1              6.5048312142       20.3744142980        6.5273513663  W2        3097            0.0000000000
      9291      3097  TIP3      H2              5.2197812142       19.9059942980        7.1762713663  W2        3097            0.0000000000
      9292      3098  TIP3      OH2            14.0277012142       19.9809242980        6.8942913663  W2        3098            0.0000000000
      9293      3098  TIP3      H1             14.1044212142       19.5549942980        7.7480613663  W2        3098            0.0000000000
      9294      3098  TIP3      H2             14.9213612142       19.9943942980        6.5516413663  W2        3098            0.0000000000
      9295      3099  TIP3      OH2            17.2038112142       36.0535542980        5.5867113663  W2        3099            0.0000000000
      9296      3099  TIP3      H1             16.4220012142       35.8673542980        5.0667713663  W2        3099            0.0000000000
      9297      3099  TIP3      H2             17.1318012142       36.9829842980        5.8039613663  W2        3099            0.0000000000
      9298      3100  TIP3      OH2            31.6098512142       29.9399942980       -4.3825686337  W2        3100            0.0000000000
      9299      3100  TIP3      H1             31.6989612142       30.8838142980       -4.5148586337  W2        3100            0.0000000000
      9300      3100  TIP3      H2             30.9716112142       29.6646342980       -5.0406286337  W2        3100            0.0000000000
      9301      3101  TIP3      OH2            30.5429812142       29.1950642980       -0.9637486337  W2        3101            0.0000000000
      9302      3101  TIP3      H1             30.5047312142       28.5486942980       -0.2587886337  W2        3101            0.0000000000
      9303      3101  TIP3      H2             30.2206312142       28.7285042980       -1.7348786337  W2        3101            0.0000000000
      9304      3102  TIP3      OH2            22.9114812142       28.8092742980        0.6292413663  W2        3102            0.0000000000
      9305      3102  TIP3      H1             22.9526912142       28.1836042980        1.3524813663  W2        3102            0.0000000000
      9306      3102  TIP3      H2             23.6142512142       29.4331342980        0.8112813663  W2        3102            0.0000000000
      9307      3103  TIP3      OH2            34.2490012142       32.1341042980       -2.6622386337  W2        3103            0.0000000000
      9308      3103  TIP3      H1             33.8082712142       31.4137042980       -2.2116786337  W2        3103            0.0000000000
      9309      3103  TIP3      H2             34.2359712142       32.8548242980       -2.0324686337  W2        3103            0.0000000000
      9310      3104  TIP3      OH2            23.8347912142       33.2591642980       -0.8358486337  W2        3104            0.0000000000
      9311      3104  TIP3      H1             23.4653112142       32.4572142980       -1.2054186337  W2        3104            0.0000000000
      9312      3104  TIP3      H2             24.7759012142       33.0906542980       -0.7895086337  W2        3104            0.0000000000
      9313      3105  TIP3      OH2            20.4448412142       26.9194242980       -5.4429686337  W2        3105            0.0000000000
      9314      3105  TIP3      H1             19.9971812142       27.7652942980       -5.4613186337  W2        3105            0.0000000000
      9315      3105  TIP3      H2             19.8839612142       26.3398442980       -5.9584586337  W2        3105            0.0000000000
      9316      3106  TIP3      OH2            21.1554512142       29.0813842980       -3.3171686337  W2        3106            0.0000000000
      9317      3106  TIP3      H1             21.3688012142       28.3115442980       -2.7898686337  W2        3106            0.0000000000
      9318      3106  TIP3      H2             21.8932112142       29.1710542980       -3.9204086337  W2        3106            0.0000000000
      9319      3107  TIP3      OH2            28.9324212142       31.6272042980       -0.5576486337  W2        3107            0.0000000000
      9320      3107  TIP3      H1             29.2362112142       30.9413442980       -1.1522386337  W2        3107            0.0000000000
      9321      3107  TIP3      H2             29.6538212142       31.7460742980        0.0601513663  W2        3107            0.0000000000
      9322      3108  TIP3      OH2            32.0731212142       26.0214442980       -0.2301686337  W2        3108            0.0000000000
      9323      3108  TIP3      H1             32.2157112142       25.0751442980       -0.2100086337  W2        3108            0.0000000000
      9324      3108  TIP3      H2             31.9670212142       26.2284242980       -1.1586786337  W2        3108            0.0000000000
      9325      3109  TIP3      OH2            25.2279512142       24.1230842980       -2.9576886337  W2        3109            0.0000000000
      9326      3109  TIP3      H1             25.2710612142       24.9829342980       -3.3760586337  W2        3109            0.0000000000
      9327      3109  TIP3      H2             24.7703612142       23.5705542980       -3.5913686337  W2        3109            0.0000000000
      9328      3110  TIP3      OH2            32.9502212142       24.2536442980       -4.5568586337  W2        3110            0.0000000000
      9329      3110  TIP3      H1             33.5966512142       23.9249642980       -3.9320986337  W2        3110            0.0000000000
      9330      3110  TIP3      H2             33.4601612142       24.7715442980       -5.1797186337  W2        3110            0.0000000000
      9331      3111  TIP3      OH2            21.8481012142       26.5196642980       -2.1955486337  W2        3111            0.0000000000
      9332      3111  TIP3      H1             22.5017612142       25.9698342980       -1.7635386337  W2        3111            0.0000000000
      9333      3111  TIP3      H2             21.8720312142       26.2455642980       -3.1123486337  W2        3111            0.0000000000
      9334      3112  TIP3      OH2            27.0045512142       28.0697942980       -2.9803986337  W2        3112            0.0000000000
      9335      3112  TIP3      H1             27.6206512142       27.5433342980       -2.4709986337  W2        3112            0.0000000000
      9336      3112  TIP3      H2             26.4184312142       27.4296642980       -3.3840386337  W2        3112            0.0000000000
      9337      3113  TIP3      OH2            24.0381412142       23.0409242980        1.1163913663  W2        3113            0.0000000000
      9338      3113  TIP3      H1             23.8193112142       23.5709842980        0.3499913663  W2        3113            0.0000000000
      9339      3113  TIP3      H2             23.3702312142       23.2674742980        1.7635313663  W2        3113            0.0000000000
      9340      3114  TIP3      OH2            31.4071212142       32.5410342980       -5.3396986337  W2        3114            0.0000000000
      9341      3114  TIP3      H1             31.1116312142       32.2182642980       -6.1910086337  W2        3114            0.0000000000
      9342      3114  TIP3      H2             31.0829012142       33.4407042980       -5.2984386337  W2        3114            0.0000000000
      9343      3115  TIP3      OH2            26.6072812142       30.7164942980        1.4037613663  W2        3115            0.0000000000
      9344      3115  TIP3      H1             25.8671912142       31.3146442980        1.5072813663  W2        3115            0.0000000000
      9345      3115  TIP3      H2             27.3212312142       31.2704542980        1.0881213663  W2        3115            0.0000000000
      9346      3116  TIP3      OH2            34.7140612142       23.5445742980       -2.5762686337  W2        3116            0.0000000000
      9347      3116  TIP3      H1             34.4988612142       22.7789142980       -2.0436686337  W2        3116            0.0000000000
      9348      3116  TIP3      H2             35.3698012142       24.0170342980       -2.0634186337  W2        3116            0.0000000000
      9349      3117  TIP3      OH2            23.6318712142       24.9331042980       -0.9313886337  W2        3117            0.0000000000
      9350      3117  TIP3      H1             24.2455012142       25.5658642980       -0.5581486337  W2        3117            0.0000000000
      9351      3117  TIP3      H2             24.1439412142       24.4606042980       -1.5876986337  W2        3117            0.0000000000
      9352      3118  TIP3      OH2            25.0147112142       32.6807942980        2.1909113663  W2        3118            0.0000000000
      9353      3118  TIP3      H1             25.0094712142       33.5601442980        1.8128413663  W2        3118            0.0000000000
      9354      3118  TIP3      H2             24.1611212142       32.5972042980        2.6159013663  W2        3118            0.0000000000
      9355      3119  TIP3      OH2            21.1358012142       32.3515842980       -7.0271586337  W2        3119            0.0000000000
      9356      3119  TIP3      H1             20.8638912142       32.5806842980       -7.9158686337  W2        3119            0.0000000000
      9357      3119  TIP3      H2             21.1813712142       33.1894642980       -6.5666286337  W2        3119            0.0000000000
      9358      3120  TIP3      OH2            34.7607712142       33.9731742980       -0.3143086337  W2        3120            0.0000000000
      9359      3120  TIP3      H1             33.8191412142       34.0315642980       -0.1526186337  W2        3120            0.0000000000
      9360      3120  TIP3      H2             35.0373812142       34.8792242980       -0.4513386337  W2        3120            0.0000000000
      9361      3121  TIP3      OH2            35.0614712142       22.2597042980        1.1030813663  W2        3121            0.0000000000
      9362      3121  TIP3      H1             34.3253912142       22.8704142980        1.0652113663  W2        3121            0.0000000000
      9363      3121  TIP3      H2             35.7448712142       22.6746042980        0.5767213663  W2        3121            0.0000000000
      9364      3122  TIP3      OH2            28.0646112142       20.3464342980       -1.4311186337  W2        3122            0.0000000000
      9365      3122  TIP3      H1             27.9470312142       19.3980342980       -1.4852886337  W2        3122            0.0000000000
      9366      3122  TIP3      H2             27.2096212142       20.6790442980       -1.1580086337  W2        3122            0.0000000000
      9367      3123  TIP3      OH2            33.0128912142       35.7545242980       -3.6891486337  W2        3123            0.0000000000
      9368      3123  TIP3      H1             33.4381212142       35.0473142980       -4.1741886337  W2        3123            0.0000000000
      9369      3123  TIP3      H2             33.3298912142       36.5557942980       -4.1059286337  W2        3123            0.0000000000
      9370      3124  TIP3      OH2            34.1725412142       33.6553742980       -5.1804886337  W2        3124            0.0000000000
      9371      3124  TIP3      H1             33.9150212142       32.9653842980       -5.7918986337  W2        3124            0.0000000000
      9372      3124  TIP3      H2             34.2436212142       33.2124942980       -4.3348986337  W2        3124            0.0000000000
      9373      3125  TIP3      OH2            35.8585612142       32.2220442980        3.2968613663  W2        3125            0.0000000000
      9374      3125  TIP3      H1             35.9981912142       31.6302942980        2.5575613663  W2        3125            0.0000000000
      9375      3125  TIP3      H2             36.0258412142       33.0946342980        2.9407413663  W2        3125            0.0000000000
      9376      3126  TIP3      OH2            30.3311012142       29.1839942980       -6.9305386337  W2        3126            0.0000000000
      9377      3126  TIP3      H1             29.6196512142       29.7189642980       -7.2824886337  W2        3126            0.0000000000
      9378      3126  TIP3      H2             31.0220612142       29.2392042980       -7.5906486337  W2        3126            0.0000000000
      9379      3127  TIP3      OH2            30.3850212142       27.6414242980       -9.8920386337  W2        3127            0.0000000000
      9380      3127  TIP3      H1             31.0860112142       27.6641142980       -9.2406386337  W2        3127            0.0000000000
      9381      3127  TIP3      H2             30.6873112142       27.0133942980      -10.5481086337  W2        3127            0.0000000000
      9382      3128  TIP3      OH2            33.7368712142       29.3933242980       -5.9789486337  W2        3128            0.0000000000
      9383      3128  TIP3      H1             33.0049712142       29.6216942980       -5.4058886337  W2        3128            0.0000000000
      9384      3128  TIP3      H2             34.1840912142       28.6795942980       -5.5241986337  W2        3128            0.0000000000
      9385      3129  TIP3      OH2            33.6342212142       27.5675842980        3.0887513663  W2        3129            0.0000000000
      9386      3129  TIP3      H1             33.7141312142       28.3310242980        3.6606013663  W2        3129            0.0000000000
      9387      3129  TIP3      H2             33.0329912142       27.8468242980        2.3982613663  W2        3129            0.0000000000
      9388      3130  TIP3      OH2            25.3822412142       30.0239442980       -4.0964486337  W2        3130            0.0000000000
      9389      3130  TIP3      H1             25.0517612142       29.6532842980       -4.9147486337  W2        3130            0.0000000000
      9390      3130  TIP3      H2             25.9706512142       29.3533442980       -3.7496186337  W2        3130            0.0000000000
      9391      3131  TIP3      OH2            26.7489912142       33.4520042980       -1.4152286337  W2        3131            0.0000000000
      9392      3131  TIP3      H1             26.6541212142       32.8733142980       -2.1717686337  W2        3131            0.0000000000
      9393      3131  TIP3      H2             27.4783512142       33.0805742980       -0.9189486337  W2        3131            0.0000000000
      9394      3132  TIP3      OH2            25.7487912142       28.7925042980       -0.4629486337  W2        3132            0.0000000000
      9395      3132  TIP3      H1             26.3140412142       28.9139242980       -1.2258286337  W2        3132            0.0000000000
      9396      3132  TIP3      H2             26.0676812142       29.4300042980        0.1759013663  W2        3132            0.0000000000
      9397      3133  TIP3      OH2            32.0580112142       34.2956942980        0.2711013663  W2        3133            0.0000000000
      9398      3133  TIP3      H1             31.8176712142       34.9580042980        0.9190213663  W2        3133            0.0000000000
      9399      3133  TIP3      H2             31.8598312142       33.4612142980        0.6960613663  W2        3133            0.0000000000
      9400      3134  TIP3      OH2            26.6288612142       33.1917742980        4.2542413663  W2        3134            0.0000000000
      9401      3134  TIP3      H1             26.3176112142       33.9740942980        4.7095613663  W2        3134            0.0000000000
      9402      3134  TIP3      H2             25.9788812142       33.0386842980        3.5684413663  W2        3134            0.0000000000
      9403      3135  TIP3      OH2            32.6078212142       28.5556142980       -8.2938286337  W2        3135            0.0000000000
      9404      3135  TIP3      H1             33.1873712142       28.7056442980       -7.5469386337  W2        3135            0.0000000000
      9405      3135  TIP3      H2             33.0218212142       29.0263542980       -9.0171886337  W2        3135            0.0000000000
      9406      3136  TIP3      OH2            23.5488512142       29.3898842980        3.4828113663  W2        3136            0.0000000000
      9407      3136  TIP3      H1             23.6191712142       30.0405642980        4.1813113663  W2        3136            0.0000000000
      9408      3136  TIP3      H2             22.6580712142       29.4926342980        3.1479013663  W2        3136            0.0000000000
      9409      3137  TIP3      OH2            30.3343112142       35.2924642980       -4.8585186337  W2        3137            0.0000000000
      9410      3137  TIP3      H1             30.8080712142       35.5880942980       -4.0810986337  W2        3137            0.0000000000
      9411      3137  TIP3      H2             29.7712412142       36.0306242980       -5.0915586337  W2        3137            0.0000000000
      9412      3138  TIP3      OH2            24.8684512142       35.2632742980        5.0176213663  W2        3138            0.0000000000
      9413      3138  TIP3      H1             24.8759812142       35.1272442980        4.0701713663  W2        3138            0.0000000000
      9414      3138  TIP3      H2             23.9524912142       35.1460842980        5.2696213663  W2        3138            0.0000000000
      9415      3139  TIP3      OH2            36.3066612142       20.3056542980       -8.4808586337  W2        3139            0.0000000000
      9416      3139  TIP3      H1             35.4067312142       20.4445542980       -8.1857986337  W2        3139            0.0000000000
      9417      3139  TIP3      H2             36.5585012142       21.1371142980       -8.8826886337  W2        3139            0.0000000000
      9418      3140  TIP3      OH2            24.3725112142       29.0933742980       -6.5071686337  W2        3140            0.0000000000
      9419      3140  TIP3      H1             24.0806412142       29.8615442980       -6.9980386337  W2        3140            0.0000000000
      9420      3140  TIP3      H2             23.6980312142       28.4339942980       -6.6700286337  W2        3140            0.0000000000
      9421      3141  TIP3      OH2            20.4655212142       31.4562942980        2.3078113663  W2        3141            0.0000000000
      9422      3141  TIP3      H1             19.9643612142       31.4282342980        1.4927813663  W2        3141            0.0000000000
      9423      3141  TIP3      H2             20.4708912142       30.5506142980        2.6175413663  W2        3141            0.0000000000
      9424      3142  TIP3      OH2            20.2157912142       34.2366742980       -0.8081686337  W2        3142            0.0000000000
      9425      3142  TIP3      H1             21.1618512142       34.0923742980       -0.8272186337  W2        3142            0.0000000000
      9426      3142  TIP3      H2             20.1034212142       35.0209542980       -0.2710486337  W2        3142            0.0000000000
      9427      3143  TIP3      OH2            29.3920412142       34.4765642980        3.7503413663  W2        3143            0.0000000000
      9428      3143  TIP3      H1             29.4795012142       35.3030242980        4.2252513663  W2        3143            0.0000000000
      9429      3143  TIP3      H2             28.5285512142       34.1469442980        3.9992713663  W2        3143            0.0000000000
      9430      3144  TIP3      OH2            35.5656212142       26.3958942980        5.3544213663  W2        3144            0.0000000000
      9431      3144  TIP3      H1             35.1583012142       26.8764542980        4.6337513663  W2        3144            0.0000000000
      9432      3144  TIP3      H2             35.6061912142       25.4904942980        5.0465013663  W2        3144            0.0000000000
      9433      3145  TIP3      OH2            22.7145712142       32.7798342980        3.3510913663  W2        3145            0.0000000000
      9434      3145  TIP3      H1             22.9307012142       32.4183942980        4.2106713663  W2        3145            0.0000000000
      9435      3145  TIP3      H2             21.8590412142       32.4052142980        3.1414413663  W2        3145            0.0000000000
      9436      3146  TIP3      OH2            25.3333712142       21.2498842980       -0.6534886337  W2        3146            0.0000000000
      9437      3146  TIP3      H1             24.4717412142       21.1627042980       -1.0611986337  W2        3146            0.0000000000
      9438      3146  TIP3      H2             25.3109412142       22.1058942980       -0.2257286337  W2        3146            0.0000000000
      9439      3147  TIP3      OH2            29.9961512142       20.9719242980        2.7212113663  W2        3147            0.0000000000
      9440      3147  TIP3      H1             30.4164612142       20.5566342980        3.4742713663  W2        3147            0.0000000000
      9441      3147  TIP3      H2             29.0631112142       20.7932542980        2.8384113663  W2        3147            0.0000000000
      9442      3148  TIP3      OH2            33.3226412142       24.7274442980        3.5746613663  W2        3148            0.0000000000
      9443      3148  TIP3      H1             32.8085912142       24.6016642980        4.3722613663  W2        3148            0.0000000000
      9444      3148  TIP3      H2             33.1671112142       25.6397542980        3.3302813663  W2        3148            0.0000000000
      9445      3149  TIP3      OH2            34.0851312142       29.5884442980      -10.6640386337  W2        3149            0.0000000000
      9446      3149  TIP3      H1             34.1272112142       29.3658342980      -11.5940386337  W2        3149            0.0000000000
      9447      3149  TIP3      H2             34.9343412142       29.9871542980      -10.4740486337  W2        3149            0.0000000000
      9448      3150  TIP3      OH2            29.6578812142       23.4642642980       -9.9937086337  W2        3150            0.0000000000
      9449      3150  TIP3      H1             29.4043612142       23.4834242980       -9.0708986337  W2        3150            0.0000000000
      9450      3150  TIP3      H2             29.4010912142       22.5928042980      -10.2950886337  W2        3150            0.0000000000
      9451      3151  TIP3      OH2            25.4243812142       26.2153342980        0.4415313663  W2        3151            0.0000000000
      9452      3151  TIP3      H1             24.7825912142       26.1750642980        1.1505413663  W2        3151            0.0000000000
      9453      3151  TIP3      H2             25.4615812142       27.1418042980        0.2038313663  W2        3151            0.0000000000
      9454      3152  TIP3      OH2            25.4212912142       26.4363442980       -4.6464686337  W2        3152            0.0000000000
      9455      3152  TIP3      H1             24.5285812142       26.0959542980       -4.7050886337  W2        3152            0.0000000000
      9456      3152  TIP3      H2             25.8719512142       26.0594342980       -5.4021486337  W2        3152            0.0000000000
      9457      3153  TIP3      OH2            30.9568412142       26.8523742980       -5.8293886337  W2        3153            0.0000000000
      9458      3153  TIP3      H1             30.5478712142       27.6672342980       -6.1209086337  W2        3153            0.0000000000
      9459      3153  TIP3      H2             31.6774612142       26.7123842980       -6.4436786337  W2        3153            0.0000000000
      9460      3154  TIP3      OH2            30.0590012142       27.0280142980        5.6586813663  W2        3154            0.0000000000
      9461      3154  TIP3      H1             29.4963812142       26.3231742980        5.9794613663  W2        3154            0.0000000000
      9462      3154  TIP3      H2             30.8853412142       26.9072042980        6.1264413663  W2        3154            0.0000000000
      9463      3155  TIP3      OH2            31.9616112142       26.2984142980       -3.0154186337  W2        3155            0.0000000000
      9464      3155  TIP3      H1             31.7660612142       26.9040942980       -3.7303586337  W2        3155            0.0000000000
      9465      3155  TIP3      H2             32.1428712142       25.4649342980       -3.4497886337  W2        3155            0.0000000000
      9466      3156  TIP3      OH2            23.1744312142       26.5356842980        2.3087313663  W2        3156            0.0000000000
      9467      3156  TIP3      H1             23.1363712142       26.9358442980        3.1774413663  W2        3156            0.0000000000
      9468      3156  TIP3      H2             22.6835412142       25.7189242980        2.3990213663  W2        3156            0.0000000000
      9469      3157  TIP3      OH2            26.5401712142       23.9099142980      -10.8926686337  W2        3157            0.0000000000
      9470      3157  TIP3      H1             26.1092412142       23.4649242980      -10.1629286337  W2        3157            0.0000000000
      9471      3157  TIP3      H2             25.8220412142       24.2815442980      -11.4049186337  W2        3157            0.0000000000
      9472      3158  TIP3      OH2            19.7825112142       23.6518642980       -3.8407986337  W2        3158            0.0000000000
      9473      3158  TIP3      H1             20.4132812142       23.6230742980       -3.1214086337  W2        3158            0.0000000000
      9474      3158  TIP3      H2             20.2319412142       23.2267342980       -4.5712086337  W2        3158            0.0000000000
      9475      3159  TIP3      OH2            21.0567212142       24.3980642980       -8.4167586337  W2        3159            0.0000000000
      9476      3159  TIP3      H1             21.5308912142       24.9890542980       -9.0016686337  W2        3159            0.0000000000
      9477      3159  TIP3      H2             20.3393612142       24.9283542980       -8.0697486337  W2        3159            0.0000000000
      9478      3160  TIP3      OH2            31.2255312142       27.9365442980        1.6558213663  W2        3160            0.0000000000
      9479      3160  TIP3      H1             31.5490112142       27.3055142980        1.0128713663  W2        3160            0.0000000000
      9480      3160  TIP3      H2             30.7854612142       27.4017642980        2.3165613663  W2        3160            0.0000000000
      9481      3161  TIP3      OH2            28.0028212142       23.8640942980       -3.5600586337  W2        3161            0.0000000000
      9482      3161  TIP3      H1             27.0919312142       23.9207742980       -3.2714586337  W2        3161            0.0000000000
      9483      3161  TIP3      H2             28.5081112142       23.8036442980       -2.7493386337  W2        3161            0.0000000000
      9484      3162  TIP3      OH2            22.8311612142       25.4927242980       -4.7332986337  W2        3162            0.0000000000
      9485      3162  TIP3      H1             21.9419612142       25.5922742980       -5.0733386337  W2        3162            0.0000000000
      9486      3162  TIP3      H2             23.1276512142       24.6510242980       -5.0795086337  W2        3162            0.0000000000
      9487      3163  TIP3      OH2            26.4843412142       25.4929842980       -7.0768386337  W2        3163            0.0000000000
      9488      3163  TIP3      H1             27.4158912142       25.6219842980       -6.8985286337  W2        3163            0.0000000000
      9489      3163  TIP3      H2             26.2693712142       26.1624142980       -7.7263686337  W2        3163            0.0000000000
      9490      3164  TIP3      OH2            32.4080112142       23.0987242980       -0.2958786337  W2        3164            0.0000000000
      9491      3164  TIP3      H1             31.7311712142       23.2300342980        0.3680913663  W2        3164            0.0000000000
      9492      3164  TIP3      H2             31.9225012142       22.9436742980       -1.1061086337  W2        3164            0.0000000000
      9493      3165  TIP3      OH2            25.1583612142       26.6872042980       -9.5102286337  W2        3165            0.0000000000
      9494      3165  TIP3      H1             24.6158712142       26.3075842980      -10.2014686337  W2        3165            0.0000000000
      9495      3165  TIP3      H2             25.9918512142       26.8816742980       -9.9388186337  W2        3165            0.0000000000
      9496      3166  TIP3      OH2            23.2935012142       31.2443942980        5.5889313663  W2        3166            0.0000000000
      9497      3166  TIP3      H1             24.0257412142       31.4989842980        6.1503813663  W2        3166            0.0000000000
      9498      3166  TIP3      H2             22.5133712142       31.4489342980        6.1044713663  W2        3166            0.0000000000
      9499      3167  TIP3      OH2            29.3227912142       26.6513942980       -1.6730986337  W2        3167            0.0000000000
      9500      3167  TIP3      H1             29.8871312142       26.1050542980       -2.2201386337  W2        3167            0.0000000000
      9501      3167  TIP3      H2             29.1751312142       26.1295842980       -0.8843386337  W2        3167            0.0000000000
      9502      3168  TIP3      OH2            24.3247612142       22.7880042980       -5.2546186337  W2        3168            0.0000000000
      9503      3168  TIP3      H1             24.0077112142       21.8855342980       -5.2900786337  W2        3168            0.0000000000
      9504      3168  TIP3      H2             25.1061712142       22.7897442980       -5.8074586337  W2        3168            0.0000000000
      9505      3169  TIP3      OH2            27.9493812142       25.0400042980        0.7409413663  W2        3169            0.0000000000
      9506      3169  TIP3      H1             27.1139112142       25.4939542980        0.8511813663  W2        3169            0.0000000000
      9507      3169  TIP3      H2             28.4734412142       25.3158542980        1.4929313663  W2        3169            0.0000000000
      9508      3170  TIP3      OH2            28.4936412142       31.2527742980       -7.5744186337  W2        3170            0.0000000000
      9509      3170  TIP3      H1             27.7487412142       30.7453042980       -7.8966286337  W2        3170            0.0000000000
      9510      3170  TIP3      H2             28.3593612142       31.3015742980       -6.6279386337  W2        3170            0.0000000000
      9511      3171  TIP3      OH2            35.6435312142       30.3855942980        1.2123413663  W2        3171            0.0000000000
      9512      3171  TIP3      H1             36.2854112142       30.8422242980        0.6685613663  W2        3171            0.0000000000
      9513      3171  TIP3      H2             34.8132212142       30.4988342980        0.7497513663  W2        3171            0.0000000000
      9514      3172  TIP3      OH2            32.3913212142       24.0667642980       -9.3751586337  W2        3172            0.0000000000
      9515      3172  TIP3      H1             31.4527412142       24.1783242980       -9.5262786337  W2        3172            0.0000000000
      9516      3172  TIP3      H2             32.6885312142       24.9234542980       -9.0685886337  W2        3172            0.0000000000
      9517      3173  TIP3      OH2            30.0128512142       31.4371042980        3.6624913663  W2        3173            0.0000000000
      9518      3173  TIP3      H1             29.6674612142       31.0553442980        4.4694513663  W2        3173            0.0000000000
      9519      3173  TIP3      H2             29.8128612142       32.3704642980        3.7337813663  W2        3173            0.0000000000
      9520      3174  TIP3      OH2            33.1096712142       25.9340342980       -7.7144186337  W2        3174            0.0000000000
      9521      3174  TIP3      H1             34.0015712142       25.7965342980       -7.3952986337  W2        3174            0.0000000000
      9522      3174  TIP3      H2             33.1660312142       26.7246442980       -8.2510686337  W2        3174            0.0000000000
      9523      3175  TIP3      OH2            23.6184712142       30.5477742980       -1.8046286337  W2        3175            0.0000000000
      9524      3175  TIP3      H1             24.3631912142       30.5453442980       -2.4059786337  W2        3175            0.0000000000
      9525      3175  TIP3      H2             23.6961312142       29.7241542980       -1.3231186337  W2        3175            0.0000000000
      9526      3176  TIP3      OH2            30.6190512142       32.7112042980       -8.5489586337  W2        3176            0.0000000000
      9527      3176  TIP3      H1             30.3238912142       33.5379942980       -8.1674786337  W2        3176            0.0000000000
      9528      3176  TIP3      H2             29.9160512142       32.0918942980       -8.3528186337  W2        3176            0.0000000000
      9529      3177  TIP3      OH2            20.6264412142       29.0084642980        3.5102213663  W2        3177            0.0000000000
      9530      3177  TIP3      H1             20.8493012142       28.5904242980        4.3419713663  W2        3177            0.0000000000
      9531      3177  TIP3      H2             20.0244512142       28.3959642980        3.0875013663  W2        3177            0.0000000000
      9532      3178  TIP3      OH2            27.6429312142       28.5254542980        5.7231913663  W2        3178            0.0000000000
      9533      3178  TIP3      H1             27.3470112142       28.3597542980        4.8281013663  W2        3178            0.0000000000
      9534      3178  TIP3      H2             28.5744512142       28.3054842980        5.7125813663  W2        3178            0.0000000000
      9535      3179  TIP3      OH2            32.2632112142       33.8986542980        3.6129913663  W2        3179            0.0000000000
      9536      3179  TIP3      H1             31.3626412142       34.0819142980        3.3453813663  W2        3179            0.0000000000
      9537      3179  TIP3      H2             32.2973212142       34.1575842980        4.5338713663  W2        3179            0.0000000000
      9538      3180  TIP3      OH2            36.2897112142       34.9294842980       -7.5545386337  W2        3180            0.0000000000
      9539      3180  TIP3      H1             35.9168212142       34.1038642980       -7.2454786337  W2        3180            0.0000000000
      9540      3180  TIP3      H2             36.5670612142       34.7464242980       -8.4521986337  W2        3180            0.0000000000
      9541      3181  TIP3      OH2            33.4501012142       29.7374342980       -0.5333486337  W2        3181            0.0000000000
      9542      3181  TIP3      H1             32.5217912142       29.5056242980       -0.5604186337  W2        3181            0.0000000000
      9543      3181  TIP3      H2             33.9012112142       28.9604142980       -0.8634686337  W2        3181            0.0000000000
      9544      3182  TIP3      OH2            25.9934112142       34.0655942980       -4.4004786337  W2        3182            0.0000000000
      9545      3182  TIP3      H1             26.5206312142       34.8390342980       -4.6005986337  W2        3182            0.0000000000
      9546      3182  TIP3      H2             25.1132612142       34.2905142980       -4.7020786337  W2        3182            0.0000000000
      9547      3183  TIP3      OH2            21.7481812142       28.9280042980       -9.8132386337  W2        3183            0.0000000000
      9548      3183  TIP3      H1             22.3641712142       29.5547242980       -9.4337586337  W2        3183            0.0000000000
      9549      3183  TIP3      H2             20.8864412142       29.2439842980       -9.5415886337  W2        3183            0.0000000000
      9550      3184  TIP3      OH2            27.4206412142       31.7285842980       -4.8240486337  W2        3184            0.0000000000
      9551      3184  TIP3      H1             27.1796412142       32.6540242980       -4.7825186337  W2        3184            0.0000000000
      9552      3184  TIP3      H2             26.6800012142       31.2697142980       -4.4276586337  W2        3184            0.0000000000
      9553      3185  TIP3      OH2            27.9353012142       35.8779442980        1.4910613663  W2        3185            0.0000000000
      9554      3185  TIP3      H1             28.2977712142       36.7325042980        1.2575013663  W2        3185            0.0000000000
      9555      3185  TIP3      H2             28.4668212142       35.5861042980        2.2316913663  W2        3185            0.0000000000
      9556      3186  TIP3      OH2            26.1037212142       36.7503442980       -5.2788286337  W2        3186            0.0000000000
      9557      3186  TIP3      H1             25.1537712142       36.8560842980       -5.2274986337  W2        3186            0.0000000000
      9558      3186  TIP3      H2             26.4555312142       37.5710842980       -4.9340786337  W2        3186            0.0000000000
      9559      3187  TIP3      OH2            31.4793812142       31.9770142980        1.1916213663  W2        3187            0.0000000000
      9560      3187  TIP3      H1             31.0535112142       31.7491842980        2.0180213663  W2        3187            0.0000000000
      9561      3187  TIP3      H2             32.0599612142       31.2381942980        1.0091513663  W2        3187            0.0000000000
      9562      3188  TIP3      OH2            33.6822712142       32.9060642980       -9.7344786337  W2        3188            0.0000000000
      9563      3188  TIP3      H1             34.0355812142       32.5260442980       -8.9301286337  W2        3188            0.0000000000
      9564      3188  TIP3      H2             32.7336212142       32.8125442980       -9.6475486337  W2        3188            0.0000000000
      9565      3189  TIP3      OH2            34.1378012142       36.5289642980        3.6611013663  W2        3189            0.0000000000
      9566      3189  TIP3      H1             33.5361212142       35.9732542980        3.1657313663  W2        3189            0.0000000000
      9567      3189  TIP3      H2             34.4191712142       37.1959442980        3.0348413663  W2        3189            0.0000000000
      9568      3190  TIP3      OH2            22.2603912142       23.7617342980        3.0683613663  W2        3190            0.0000000000
      9569      3190  TIP3      H1             21.3676212142       24.1002742980        3.0007613663  W2        3190            0.0000000000
      9570      3190  TIP3      H2             22.1616712142       22.9063442980        3.4864413663  W2        3190            0.0000000000
      9571      3191  TIP3      OH2            34.5482012142       31.5782642980       -7.5076886337  W2        3191            0.0000000000
      9572      3191  TIP3      H1             34.2709612142       30.8501942980       -6.9515786337  W2        3191            0.0000000000
      9573      3191  TIP3      H2             35.4755012142       31.6974642980       -7.3024286337  W2        3191            0.0000000000
      9574      3192  TIP3      OH2            21.9115912142       35.5661742980        1.5033013663  W2        3192            0.0000000000
      9575      3192  TIP3      H1             22.1286212142       34.6344142980        1.4722713663  W2        3192            0.0000000000
      9576      3192  TIP3      H2             22.1579412142       35.8406742980        2.3865813663  W2        3192            0.0000000000
      9577      3193  TIP3      OH2            27.7730512142       34.0176742980      -11.2874786337  W2        3193            0.0000000000
      9578      3193  TIP3      H1             28.0120312142       33.2694842980      -11.8345886337  W2        3193            0.0000000000
      9579      3193  TIP3      H2             27.5041812142       33.6298442980      -10.4546986337  W2        3193            0.0000000000
      9580      3194  TIP3      OH2            26.7101112142       33.5880542980       -8.8312186337  W2        3194            0.0000000000
      9581      3194  TIP3      H1             26.8569112142       33.0680342980       -8.0411286337  W2        3194            0.0000000000
      9582      3194  TIP3      H2             26.7072812142       34.4948142980       -8.5246286337  W2        3194            0.0000000000
      9583      3195  TIP3      OH2            23.1632212142       30.8403842980       -8.3206786337  W2        3195            0.0000000000
      9584      3195  TIP3      H1             22.4771512142       31.1926342980       -7.7537086337  W2        3195            0.0000000000
      9585      3195  TIP3      H2             23.6860112142       31.6033442980       -8.5672486337  W2        3195            0.0000000000
      9586      3196  TIP3      OH2            30.9947312142       23.5027642980        1.9582213663  W2        3196            0.0000000000
      9587      3196  TIP3      H1             31.6935212142       23.5766342980        2.6081913663  W2        3196            0.0000000000
      9588      3196  TIP3      H2             30.6138712142       22.6382642980        2.1125113663  W2        3196            0.0000000000
      9589      3197  TIP3      OH2            31.7792212142       23.1549342980       -6.9445486337  W2        3197            0.0000000000
      9590      3197  TIP3      H1             31.9990512142       23.6264742980       -7.7480086337  W2        3197            0.0000000000
      9591      3197  TIP3      H2             32.3376212142       23.5491942980       -6.2744886337  W2        3197            0.0000000000
      9592      3198  TIP3      OH2            29.4478312142       35.2854142980       -8.0817986337  W2        3198            0.0000000000
      9593      3198  TIP3      H1             28.6314412142       35.7823842980       -8.0293686337  W2        3198            0.0000000000
      9594      3198  TIP3      H2             29.9774612142       35.7607642980       -8.7219186337  W2        3198            0.0000000000
      9595      3199  TIP3      OH2            28.9792112142       24.8828142980       -6.1097086337  W2        3199            0.0000000000
      9596      3199  TIP3      H1             29.7914712142       25.3871342980       -6.0635386337  W2        3199            0.0000000000
      9597      3199  TIP3      H2             28.7345112142       24.7377842980       -5.1957486337  W2        3199            0.0000000000
      9598      3200  TIP3      OH2            29.5148512142       25.8690842980        3.0749513663  W2        3200            0.0000000000
      9599      3200  TIP3      H1             29.6338812142       26.4426242980        3.8319913663  W2        3200            0.0000000000
      9600      3200  TIP3      H2             30.1703112142       25.1810242980        3.1897313663  W2        3200            0.0000000000
      9601      3201  TIP3      OH2            29.8628812142       21.9641142980       -5.1715986337  W2        3201            0.0000000000
      9602      3201  TIP3      H1             29.5162312142       22.5811742980       -4.5271686337  W2        3201            0.0000000000
      9603      3201  TIP3      H2             30.5215712142       22.4646842980       -5.6530486337  W2        3201            0.0000000000
      9604      3202  TIP3      OH2            26.7861412142       36.3291342980       -8.1001086337  W2        3202            0.0000000000
      9605      3202  TIP3      H1             26.9470112142       37.1288842980       -8.6008486337  W2        3202            0.0000000000
      9606      3202  TIP3      H2             26.5889212142       36.6357342980       -7.2150486337  W2        3202            0.0000000000
      9607      3203  TIP3      OH2            25.5205812142       23.0270542980       -8.4843486337  W2        3203            0.0000000000
      9608      3203  TIP3      H1             25.4370612142       23.9153642980       -8.1377086337  W2        3203            0.0000000000
      9609      3203  TIP3      H2             26.4106112142       22.7617242980       -8.2526686337  W2        3203            0.0000000000
      9610      3204  TIP3      OH2            35.7194312142       23.7761142980        3.9099213663  W2        3204            0.0000000000
      9611      3204  TIP3      H1             34.8030112142       24.0382842980        3.8222913663  W2        3204            0.0000000000
      9612      3204  TIP3      H2             36.0549312142       23.7730142980        3.0134513663  W2        3204            0.0000000000
      9613      3205  TIP3      OH2            34.3215312142       27.5262142980       -1.9943486337  W2        3205            0.0000000000
      9614      3205  TIP3      H1             33.5239712142       27.1112342980       -2.3228486337  W2        3205            0.0000000000
      9615      3205  TIP3      H2             34.7666412142       26.8355842980       -1.5032986337  W2        3205            0.0000000000
      9616      3206  TIP3      OH2            23.7791112142       33.4542742980       -9.4238986337  W2        3206            0.0000000000
      9617      3206  TIP3      H1             24.3712612142       34.1537542980       -9.1476586337  W2        3206            0.0000000000
      9618      3206  TIP3      H2             24.2384112142       33.0212242980      -10.1434386337  W2        3206            0.0000000000
      9619      3207  TIP3      OH2            22.0950312142       26.1185742980      -10.3079586337  W2        3207            0.0000000000
      9620      3207  TIP3      H1             22.0502912142       27.0578842980      -10.1292586337  W2        3207            0.0000000000
      9621      3207  TIP3      H2             21.2073512142       25.8830642980      -10.5777486337  W2        3207            0.0000000000
      9622      3208  TIP3      OH2            22.9032312142       20.9002342980       -1.6348586337  W2        3208            0.0000000000
      9623      3208  TIP3      H1             22.6742112142       20.9594842980       -2.5623586337  W2        3208            0.0000000000
      9624      3208  TIP3      H2             22.4605712142       20.1087842980       -1.3284486337  W2        3208            0.0000000000
      9625      3209  TIP3      OH2            21.8335612142       34.8409442980       -5.4742786337  W2        3209            0.0000000000
      9626      3209  TIP3      H1             21.0014212142       35.3132142980       -5.4471386337  W2        3209            0.0000000000
      9627      3209  TIP3      H2             22.3793912142       35.3507042980       -6.0729686337  W2        3209            0.0000000000
      9628      3210  TIP3      OH2            25.7192712142       36.3727542980        7.4759413663  W2        3210            0.0000000000
      9629      3210  TIP3      H1             26.4869912142       35.9138342980        7.8168613663  W2        3210            0.0000000000
      9630      3210  TIP3      H2             25.6978912142       36.1467342980        6.5460613663  W2        3210            0.0000000000
      9631      3211  TIP3      OH2            29.8112312142       35.8808142980      -11.1488786337  W2        3211            0.0000000000
      9632      3211  TIP3      H1             29.1673312142       35.2496742980      -10.8275086337  W2        3211            0.0000000000
      9633      3211  TIP3      H2             30.5730612142       35.3496142980      -11.3805286337  W2        3211            0.0000000000
      9634      3212  TIP3      OH2            32.2961412142       34.7528642980        6.2050913663  W2        3212            0.0000000000
      9635      3212  TIP3      H1             31.9450912142       33.8961642980        6.4481313663  W2        3212            0.0000000000
      9636      3212  TIP3      H2             33.0224612142       34.8955342980        6.8119913663  W2        3212            0.0000000000
      9637      3213  TIP3      OH2            34.4155212142       35.6978042980      -10.9150786337  W2        3213            0.0000000000
      9638      3213  TIP3      H1             34.6985612142       34.9033242980      -10.4623886337  W2        3213            0.0000000000
      9639      3213  TIP3      H2             35.1553112142       35.9309042980      -11.4759686337  W2        3213            0.0000000000
      9640      3214  TIP3      OH2            21.0288812142       31.2637242980        6.8099513663  W2        3214            0.0000000000
      9641      3214  TIP3      H1             21.1729312142       30.3617942980        6.5236213663  W2        3214            0.0000000000
      9642      3214  TIP3      H2             20.2566212142       31.5499342980        6.3221813663  W2        3214            0.0000000000
      9643      3215  TIP3      OH2            25.3702512142       31.6072942980      -11.0575886337  W2        3215            0.0000000000
      9644      3215  TIP3      H1             25.4346612142       30.8132542980      -10.5269486337  W2        3215            0.0000000000
      9645      3215  TIP3      H2             26.0231712142       31.4885742980      -11.7473886337  W2        3215            0.0000000000
      9646      3216  TIP3      OH2            27.6844912142       31.2335342980        6.2425913663  W2        3216            0.0000000000
      9647      3216  TIP3      H1             27.3558712142       31.5043442980        5.3853313663  W2        3216            0.0000000000
      9648      3216  TIP3      H2             27.8363112142       30.2925142980        6.1550913663  W2        3216            0.0000000000
      9649      3217  TIP3      OH2            30.7225912142       32.6544642980      -11.3217886337  W2        3217            0.0000000000
      9650      3217  TIP3      H1             30.4540012142       32.8346742980      -10.4208986337  W2        3217            0.0000000000
      9651      3217  TIP3      H2             30.5161512142       31.7290842980      -11.4532086337  W2        3217            0.0000000000
      9652      3218  TIP3      OH2            33.4190112142       31.1492642980        3.6258213663  W2        3218            0.0000000000
      9653      3218  TIP3      H1             34.1644912142       31.7376342980        3.5062213663  W2        3218            0.0000000000
      9654      3218  TIP3      H2             32.6616912142       31.7312342980        3.6891313663  W2        3218            0.0000000000
      9655      3219  TIP3      OH2            21.8615312142       28.4640542980        6.2298813663  W2        3219            0.0000000000
      9656      3219  TIP3      H1             22.2696512142       27.6067142980        6.1089413663  W2        3219            0.0000000000
      9657      3219  TIP3      H2             21.6012912142       28.4781842980        7.1509113663  W2        3219            0.0000000000
      9658      3220  TIP3      OH2            26.5196312142       29.5799142980       -8.7517886337  W2        3220            0.0000000000
      9659      3220  TIP3      H1             26.0598312142       29.0957442980       -8.0659386337  W2        3220            0.0000000000
      9660      3220  TIP3      H2             26.7745012142       28.9114542980       -9.3877386337  W2        3220            0.0000000000
      9661      3221  TIP3      OH2            25.8085612142       27.4726242980        3.6041713663  W2        3221            0.0000000000
      9662      3221  TIP3      H1             25.1901712142       28.1472842980        3.8846413663  W2        3221            0.0000000000
      9663      3221  TIP3      H2             26.1526812142       27.7940142980        2.7707913663  W2        3221            0.0000000000
      9664      3222  TIP3      OH2            27.5906712142       27.8230942980      -10.4894686337  W2        3222            0.0000000000
      9665      3222  TIP3      H1             27.4101712142       27.6682142980      -11.4166386337  W2        3222            0.0000000000
      9666      3222  TIP3      H2             28.5407212142       27.9309642980      -10.4446786337  W2        3222            0.0000000000
      9667      3223  TIP3      OH2            30.8283812142       29.9441542980        6.8816513663  W2        3223            0.0000000000
      9668      3223  TIP3      H1             31.7815012142       30.0280642980        6.8542513663  W2        3223            0.0000000000
      9669      3223  TIP3      H2             30.6678412142       29.2323342980        7.5011413663  W2        3223            0.0000000000
      9670      3224  TIP3      OH2            26.1479312142       24.8277042980        4.6864813663  W2        3224            0.0000000000
      9671      3224  TIP3      H1             26.2980212142       24.0988342980        4.0844513663  W2        3224            0.0000000000
      9672      3224  TIP3      H2             26.1501712142       25.6048742980        4.1277013663  W2        3224            0.0000000000
      9673      3225  TIP3      OH2            26.5605012142       23.1972842980        2.1792213663  W2        3225            0.0000000000
      9674      3225  TIP3      H1             27.0962512142       23.6489542980        1.5271513663  W2        3225            0.0000000000
      9675      3225  TIP3      H2             25.7084612142       23.0892642980        1.7566313663  W2        3225            0.0000000000
      9676      3226  TIP3      OH2            28.1423412142       28.6369042980        2.4187413663  W2        3226            0.0000000000
      9677      3226  TIP3      H1             28.8928212142       28.4806542980        1.8455213663  W2        3226            0.0000000000
      9678      3226  TIP3      H2             27.8031712142       29.4885642980        2.1432913663  W2        3226            0.0000000000
      9679      3227  TIP3      OH2            32.5579612142       26.4520842980        7.4472713663  W2        3227            0.0000000000
      9680      3227  TIP3      H1             32.7500912142       25.5210242980        7.3357213663  W2        3227            0.0000000000
      9681      3227  TIP3      H2             33.4155912142       26.8770342980        7.4368113663  W2        3227            0.0000000000
      9682      3228  TIP3      OH2            33.8746812142       29.2406042980        5.5245413663  W2        3228            0.0000000000
      9683      3228  TIP3      H1             33.5931812142       29.9500642980        4.9469213663  W2        3228            0.0000000000
      9684      3228  TIP3      H2             34.8171112142       29.1679042980        5.3736613663  W2        3228            0.0000000000
      9685      3229  TIP3      OH2            24.6265612142       26.0260542980        6.5980413663  W2        3229            0.0000000000
      9686      3229  TIP3      H1             23.8594612142       25.4935342980        6.3878013663  W2        3229            0.0000000000
      9687      3229  TIP3      H2             25.3054612142       25.7160942980        5.9986713663  W2        3229            0.0000000000
      9688      3230  TIP3      OH2            27.3660512142       20.6538542980        2.6105813663  W2        3230            0.0000000000
      9689      3230  TIP3      H1             27.2680112142       21.6001742980        2.5052013663  W2        3230            0.0000000000
      9690      3230  TIP3      H2             26.6236712142       20.2812342980        2.1349313663  W2        3230            0.0000000000
      9691      3231  TIP3      OH2            28.6301012142       24.9753942980        6.1744213663  W2        3231            0.0000000000
      9692      3231  TIP3      H1             28.3946412142       24.7560642980        7.0759113663  W2        3231            0.0000000000
      9693      3231  TIP3      H2             27.8467912142       24.7685142980        5.6646713663  W2        3231            0.0000000000
      9694      3232  TIP3      OH2            31.3457612142       24.1027442980        5.2497713663  W2        3232            0.0000000000
      9695      3232  TIP3      H1             30.3983012142       24.1347142980        5.3821013663  W2        3232            0.0000000000
      9696      3232  TIP3      H2             31.6584312142       23.4774542980        5.9035913663  W2        3232            0.0000000000
      9697      3233  TIP3      OH2            32.9799112142       22.7368542980        7.2549613663  W2        3233            0.0000000000
      9698      3233  TIP3      H1             32.8830912142       21.7845842980        7.2491513663  W2        3233            0.0000000000
      9699      3233  TIP3      H2             32.6582212142       23.0055342980        8.1155113663  W2        3233            0.0000000000
      9700      3234  TIP3      OH2            22.8068412142       23.9464342980        6.3025113663  W2        3234            0.0000000000
      9701      3234  TIP3      H1             23.0185812142       23.2400442980        5.6922613663  W2        3234            0.0000000000
      9702      3234  TIP3      H2             22.6955912142       23.5090342980        7.1466313663  W2        3234            0.0000000000
      9703      3235  TIP3      OH2            27.5878612142       19.9475942980        5.2818613663  W2        3235            0.0000000000
      9704      3235  TIP3      H1             28.2997012142       19.3078142980        5.2677713663  W2        3235            0.0000000000
      9705      3235  TIP3      H2             27.4869012142       20.2144242980        4.3681713663  W2        3235            0.0000000000
      9706      3236  TIP3      OH2            27.9416112142       21.6304342980        7.3354913663  W2        3236            0.0000000000
      9707      3236  TIP3      H1             27.8098312142       21.1548142980        6.5153413663  W2        3236            0.0000000000
      9708      3236  TIP3      H2             27.3423512142       22.3747942980        7.2802013663  W2        3236            0.0000000000
      9709      3237  TIP3      OH2            21.0563312142       33.1498442980      -10.0052986337  W2        3237            0.0000000000
      9710      3237  TIP3      H1             21.9702512142       33.2287342980       -9.7319086337  W2        3237            0.0000000000
      9711      3237  TIP3      H2             21.0636412142       32.4628042980      -10.6717386337  W2        3237            0.0000000000
      9712      3238  TIP3      OH2            20.5753112142       36.6233942980       -3.1232886337  W2        3238            0.0000000000
      9713      3238  TIP3      H1             20.2409912142       35.7431242980       -2.9512686337  W2        3238            0.0000000000
      9714      3238  TIP3      H2             20.7975512142       36.9688942980       -2.2587286337  W2        3238            0.0000000000
      9715      3239  TIP3      OH2            36.1378112142       32.7899542980        7.4171313663  W2        3239            0.0000000000
      9716      3239  TIP3      H1             35.2719212142       32.6849242980        7.8113613663  W2        3239            0.0000000000
      9717      3239  TIP3      H2             36.5144012142       33.5482842980        7.8636013663  W2        3239            0.0000000000
      9718      3240  TIP3      OH2            36.0786912142       34.7625642980        2.0095513663  W2        3240            0.0000000000
      9719      3240  TIP3      H1             35.4312212142       35.0877142980        2.6350713663  W2        3240            0.0000000000
      9720      3240  TIP3      H2             35.5610912142       34.3223342980        1.3353813663  W2        3240            0.0000000000
      9721      3241  TIP3      OH2            36.4505512142       26.2404742980      -10.3032086337  W2        3241            0.0000000000
      9722      3241  TIP3      H1             36.5469912142       26.9071742980      -10.9832386337  W2        3241            0.0000000000
      9723      3241  TIP3      H2             36.3105112142       25.4251042980      -10.7846586337  W2        3241            0.0000000000
      9724      3242  TIP3      OH2            35.6200212142       27.6207142980       -4.6821786337  W2        3242            0.0000000000
      9725      3242  TIP3      H1             35.4699012142       26.6755742980       -4.7023986337  W2        3242            0.0000000000
      9726      3242  TIP3      H2             35.2664712142       27.9018542980       -3.8382686337  W2        3242            0.0000000000
      9727      3243  TIP3      OH2            20.6552612142       29.6989342980       -0.6717986337  W2        3243            0.0000000000
      9728      3243  TIP3      H1             20.8395512142       29.6171042980       -1.6075086337  W2        3243            0.0000000000
      9729      3243  TIP3      H2             21.5045512142       29.5746342980       -0.2481586337  W2        3243            0.0000000000
      9730      3244  TIP3      OH2            36.4763112142       29.5910442980        4.9566513663  W2        3244            0.0000000000
      9731      3244  TIP3      H1             37.0590412142       28.8562742980        5.1483713663  W2        3244            0.0000000000
      9732      3244  TIP3      H2             37.0402412142       30.3630742980        5.0032313663  W2        3244            0.0000000000
      9733      3245  TIP3      OH2            35.6979312142       23.6484542980      -11.1856586337  W2        3245            0.0000000000
      9734      3245  TIP3      H1             36.3085112142       23.2771342980      -10.5488386337  W2        3245            0.0000000000
      9735      3245  TIP3      H2             34.8610812142       23.2271442980      -10.9896586337  W2        3245            0.0000000000
      9736      3246  TIP3      OH2            35.3305012142       25.2032942980       -6.2196686337  W2        3246            0.0000000000
      9737      3246  TIP3      H1             35.6102112142       24.2963342980       -6.0954986337  W2        3246            0.0000000000
      9738      3246  TIP3      H2             36.0896712142       25.6374442980       -6.6087486337  W2        3246            0.0000000000
      9739      3247  TIP3      OH2            35.9423312142       25.7850342980       -0.7837786337  W2        3247            0.0000000000
      9740      3247  TIP3      H1             36.8751312142       25.9970242980       -0.8181786337  W2        3247            0.0000000000
      9741      3247  TIP3      H2             35.7070812142       25.8862442980        0.1385213663  W2        3247            0.0000000000
      9742      3248  TIP3      OH2            35.9715212142       26.5215642980        1.9921613663  W2        3248            0.0000000000
      9743      3248  TIP3      H1             35.1286512142       26.7896042980        2.3581413663  W2        3248            0.0000000000
      9744      3248  TIP3      H2             36.4139512142       27.3437542980        1.7812713663  W2        3248            0.0000000000
      9745      3249  TIP3      OH2            20.2527412142       24.9694342980        5.4690813663  W2        3249            0.0000000000
      9746      3249  TIP3      H1             21.1722312142       24.8472642980        5.7053913663  W2        3249            0.0000000000
      9747      3249  TIP3      H2             19.8031912142       24.2194042980        5.8584313663  W2        3249            0.0000000000
      9748      3250  TIP3      OH2            35.9439812142       22.4662242980       -6.1714686337  W2        3250            0.0000000000
      9749      3250  TIP3      H1             36.1264812142       22.0173742980       -5.3459686337  W2        3250            0.0000000000
      9750      3250  TIP3      H2             35.3442712142       21.8816642980       -6.6350086337  W2        3250            0.0000000000
      9751      3251  TIP3      OH2            21.4739912142       23.2815942980       -1.6396286337  W2        3251            0.0000000000
      9752      3251  TIP3      H1             21.9191512142       22.4898442980       -1.3376586337  W2        3251            0.0000000000
      9753      3251  TIP3      H2             21.9402912142       23.9981142980       -1.2090686337  W2        3251            0.0000000000
      9754      3252  TIP3      OH2            19.7780212142       26.2808942980       -0.5706086337  W2        3252            0.0000000000
      9755      3252  TIP3      H1             20.2700012142       26.0599442980       -1.3614086337  W2        3252            0.0000000000
      9756      3252  TIP3      H2             20.1401112142       27.1212342980       -0.2896586337  W2        3252            0.0000000000
      9757      3253  TIP3      OH2            20.0916712142       22.5388042980       -6.5163686337  W2        3253            0.0000000000
      9758      3253  TIP3      H1             19.1665112142       22.7474642980       -6.6458186337  W2        3253            0.0000000000
      9759      3253  TIP3      H2             20.5456612142       23.0228842980       -7.2061386337  W2        3253            0.0000000000
      9760      3254  TIP3      OH2            20.0552112142       21.2767042980        1.8278813663  W2        3254            0.0000000000
      9761      3254  TIP3      H1             19.3902612142       21.0307342980        2.4709713663  W2        3254            0.0000000000
      9762      3254  TIP3      H2             19.6123412142       21.8987442980        1.2506813663  W2        3254            0.0000000000
      9763      3255  TIP3      OH2            22.2471412142       34.4521142980        5.9724613663  W2        3255            0.0000000000
      9764      3255  TIP3      H1             21.4263912142       34.6267642980        5.5119313663  W2        3255            0.0000000000
      9765      3255  TIP3      H2             21.9949212142       34.3785842980        6.8929013663  W2        3255            0.0000000000
      9766      3256  TIP3      OH2            25.2014312142       35.4262342980        2.2308613663  W2        3256            0.0000000000
      9767      3256  TIP3      H1             24.7765412142       36.2360842980        1.9483213663  W2        3256            0.0000000000
      9768      3256  TIP3      H2             26.1057112142       35.5116442980        1.9288413663  W2        3256            0.0000000000
      9769      3257  TIP3      OH2            24.1592212142       36.0157442980       -2.1564386337  W2        3257            0.0000000000
      9770      3257  TIP3      H1             23.9402912142       35.0994842980       -1.9868386337  W2        3257            0.0000000000
      9771      3257  TIP3      H2             24.9834412142       36.1557842980       -1.6902986337  W2        3257            0.0000000000
      9772      3258  TIP3      OH2            26.6964712142       36.4856742980       -1.3076386337  W2        3258            0.0000000000
      9773      3258  TIP3      H1             26.9090412142       35.5975742980       -1.5945486337  W2        3258            0.0000000000
      9774      3258  TIP3      H2             26.7609812142       36.4514442980       -0.3532386337  W2        3258            0.0000000000
      9775      3259  TIP3      OH2            30.2048412142       22.1497342980       -2.1633086337  W2        3259            0.0000000000
      9776      3259  TIP3      H1             29.5305212142       21.5202942980       -1.9077286337  W2        3259            0.0000000000
      9777      3259  TIP3      H2             30.7687612142       21.6656242980       -2.7665186337  W2        3259            0.0000000000
      9778      3260  TIP3      OH2            35.3475612142       20.2571342980       -2.0505986337  W2        3260            0.0000000000
      9779      3260  TIP3      H1             35.9513212142       20.8046742980       -2.5524986337  W2        3260            0.0000000000
      9780      3260  TIP3      H2             34.4777612142       20.5761742980       -2.2911886337  W2        3260            0.0000000000
      9781      3261  TIP3      OH2            22.5315912142       20.7837642980       -4.3413186337  W2        3261            0.0000000000
      9782      3261  TIP3      H1             21.7545712142       20.5492542980       -4.8487286337  W2        3261            0.0000000000
      9783      3261  TIP3      H2             23.0619512142       19.9869742980       -4.3325186337  W2        3261            0.0000000000
      9784      3262  TIP3      OH2            21.3679312142       20.5815742980       -8.5377086337  W2        3262            0.0000000000
      9785      3262  TIP3      H1             21.8070012142       21.1926242980       -9.1293586337  W2        3262            0.0000000000
      9786      3262  TIP3      H2             20.7341712142       21.1199842980       -8.0637086337  W2        3262            0.0000000000
      9787      3263  TIP3      OH2            27.1108512142       20.7104742980       -4.5280086337  W2        3263            0.0000000000
      9788      3263  TIP3      H1             27.9851912142       21.0989042980       -4.5575786337  W2        3263            0.0000000000
      9789      3263  TIP3      H2             26.9749312142       20.4952542980       -3.6052886337  W2        3263            0.0000000000
      9790      3264  TIP3      OH2            32.6676912142       20.7404542980       -2.8788386337  W2        3264            0.0000000000
      9791      3264  TIP3      H1             32.7438512142       20.8356142980       -3.8282386337  W2        3264            0.0000000000
      9792      3264  TIP3      H2             32.3926112142       19.8327442980       -2.7499286337  W2        3264            0.0000000000
      9793      3265  TIP3      OH2            34.0209512142       20.7662342980       -7.1863386337  W2        3265            0.0000000000
      9794      3265  TIP3      H1             33.3180612142       21.3811542980       -7.3961986337  W2        3265            0.0000000000
      9795      3265  TIP3      H2             33.5760912142       19.9289042980       -7.0552486337  W2        3265            0.0000000000
      9796      3266  TIP3      OH2            21.2688812142       36.5297942980       -7.6401986337  W2        3266            0.0000000000
      9797      3266  TIP3      H1             20.5838712142       36.4916842980       -8.3076886337  W2        3266            0.0000000000
      9798      3266  TIP3      H2             21.2726012142       37.4425542980       -7.3519886337  W2        3266            0.0000000000
      9799      3267  TIP3      OH2            23.2288412142       22.4977242980      -10.0952986337  W2        3267            0.0000000000
      9800      3267  TIP3      H1             23.7201812142       21.8679642980      -10.6227486337  W2        3267            0.0000000000
      9801      3267  TIP3      H2             23.8524712142       22.7936642980       -9.4321786337  W2        3267            0.0000000000
      9802      3268  TIP3      OH2            28.2548512142       22.7908742980       -7.6382486337  W2        3268            0.0000000000
      9803      3268  TIP3      H1             28.4329812142       22.1441942980       -6.9553886337  W2        3268            0.0000000000
      9804      3268  TIP3      H2             28.2014712142       23.6246442980       -7.1711386337  W2        3268            0.0000000000
      9805      3269  TIP3      OH2            22.4893912142       21.2979542980        5.1763013663  W2        3269            0.0000000000
      9806      3269  TIP3      H1             22.1232112142       20.5322142980        5.6187713663  W2        3269            0.0000000000
      9807      3269  TIP3      H2             23.4022412142       21.3269742980        5.4628113663  W2        3269            0.0000000000
      9808      3270  TIP3      OH2            24.4624712142       20.6483942980        6.7120113663  W2        3270            0.0000000000
      9809      3270  TIP3      H1             25.3608312142       20.3744142980        6.5273513663  W2        3270            0.0000000000
      9810      3270  TIP3      H2             24.0757812142       19.9059942980        7.1762713663  W2        3270            0.0000000000
      9811      3271  TIP3      OH2            32.8837012142       19.9809242980        6.8942913663  W2        3271            0.0000000000
      9812      3271  TIP3      H1             32.9604212142       19.5549942980        7.7480613663  W2        3271            0.0000000000
      9813      3271  TIP3      H2             33.7773612142       19.9943942980        6.5516413663  W2        3271            0.0000000000
      9814      3272  TIP3      OH2            36.0598112142       36.0535542980        5.5867113663  W2        3272            0.0000000000
      9815      3272  TIP3      H1             35.2780012142       35.8673542980        5.0667713663  W2        3272            0.0000000000
      9816      3272  TIP3      H2             35.9878012142       36.9829842980        5.8039613663  W2        3272            0.0000000000
      9817      3273  TIP3      OH2           -26.1829787858      -28.9265757020        8.9639613663  W2        3303            0.0000000000
      9818      3273  TIP3      H1            -25.4819887858      -28.9038857020        9.6153613663  W2        3303            0.0000000000
      9819      3273  TIP3      H2            -25.8806887858      -29.5546057020        8.3078913663  W2        3303            0.0000000000
      9820      3274  TIP3      OH2           -23.9601787858      -28.0123857020       10.5621713663  W2        3312            0.0000000000
      9821      3274  TIP3      H1            -23.3806287858      -27.8623557020       11.3090613663  W2        3312            0.0000000000
      9822      3274  TIP3      H2            -23.5461787858      -27.5416457020        9.8388113663  W2        3312            0.0000000000
      9823      3275  TIP3      OH2           -20.2613387858      -36.2623457020       10.3751413663  W2        3316            0.0000000000
      9824      3275  TIP3      H1            -21.1612687858      -36.1234457020       10.6702013663  W2        3316            0.0000000000
      9825      3275  TIP3      H2            -20.0094987858      -35.4308857020        9.9733113663  W2        3316            0.0000000000
      9826      3276  TIP3      OH2           -19.0721987858      -21.8961057020        8.7515313663  W2        3318            0.0000000000
      9827      3276  TIP3      H1            -18.9988487858      -20.9570857020        8.9220613663  W2        3318            0.0000000000
      9828      3276  TIP3      H2            -18.1666887858      -22.2012457020        8.6952613663  W2        3318            0.0000000000
      9829      3277  TIP3      OH2           -23.6597787858      -19.1650457020        9.4146413663  W2        3325            0.0000000000
      9830      3277  TIP3      H1            -23.2849387858      -19.9094357020        8.9439013663  W2        3325            0.0000000000
      9831      3277  TIP3      H2            -23.6554087858      -19.4349857020       10.3329713663  W2        3325            0.0000000000
      9832      3278  TIP3      OH2           -22.4828687858      -26.9795557020        8.1919613663  W2        3332            0.0000000000
      9833      3278  TIP3      H1            -22.4407887858      -27.2021657020        7.2619613663  W2        3332            0.0000000000
      9834      3278  TIP3      H2            -21.6336587858      -26.5808457020        8.3819513663  W2        3332            0.0000000000
      9835      3279  TIP3      OH2           -26.9101187858      -33.1037357020        8.8622913663  W2        3333            0.0000000000
      9836      3279  TIP3      H1            -27.1636387858      -33.0845757020        9.7851013663  W2        3333            0.0000000000
      9837      3279  TIP3      H2            -27.1669087858      -33.9751957020        8.5609113663  W2        3333            0.0000000000
      9838      3280  TIP3      OH2           -30.0278287858      -32.6580857020        7.9633313663  W2        3340            0.0000000000
      9839      3280  TIP3      H1            -30.4587587858      -33.1030757020        8.6930713663  W2        3340            0.0000000000
      9840      3280  TIP3      H2            -30.7459587858      -32.2864557020        7.4510813663  W2        3340            0.0000000000
      9841      3281  TIP3      OH2           -35.5112787858      -32.1699357020       10.4392413663  W2        3342            0.0000000000
      9842      3281  TIP3      H1            -35.0371087858      -31.5789457020        9.8543313663  W2        3342            0.0000000000
      9843      3281  TIP3      H2            -36.2286387858      -31.6396457020       10.7862513663  W2        3342            0.0000000000
      9844      3282  TIP3      OH2           -31.4096387858      -29.8807957020        9.3457713663  W2        3348            0.0000000000
      9845      3282  TIP3      H1            -31.9521287858      -30.2604157020        8.6545313663  W2        3348            0.0000000000
      9846      3282  TIP3      H2            -30.5761487858      -29.6863257020        8.9171813663  W2        3348            0.0000000000
      9847      3283  TIP3      OH2           -24.1766787858      -32.5012357020        9.4808413663  W2        3356            0.0000000000
      9848      3283  TIP3      H1            -25.1152587858      -32.3896757020        9.3297213663  W2        3356            0.0000000000
      9849      3283  TIP3      H2            -23.8794687858      -31.6445457020        9.7874113663  W2        3356            0.0000000000
      9850      3284  TIP3      OH2           -23.4583287858      -30.6339657020       11.1415813663  W2        3358            0.0000000000
      9851      3284  TIP3      H1            -22.5664287858      -30.7714657020       11.4607013663  W2        3358            0.0000000000
      9852      3284  TIP3      H2            -23.4019687858      -29.8433557020       10.6049313663  W2        3358            0.0000000000
      9853      3285  TIP3      OH2           -25.9489487858      -23.8567957020       10.3070413663  W2        3360            0.0000000000
      9854      3285  TIP3      H1            -26.2441087858      -23.0300057020       10.6885213663  W2        3360            0.0000000000
      9855      3285  TIP3      H2            -26.6519487858      -24.4761057020       10.5031813663  W2        3360            0.0000000000
      9856      3286  TIP3      OH2           -18.5734587858      -30.4245557020       10.8362513663  W2        3364            0.0000000000
      9857      3286  TIP3      H1            -19.1278287858      -30.8207557020       10.1640013663  W2        3364            0.0000000000
      9858      3286  TIP3      H2            -18.4730987858      -29.5140357020       10.5585813663  W2        3364            0.0000000000
      9859      3287  TIP3      OH2           -34.8198187858      -27.6399957020        9.0427613663  W2        3369            0.0000000000
      9860      3287  TIP3      H1            -34.2038287858      -27.0132757020        9.4222413663  W2        3369            0.0000000000
      9861      3287  TIP3      H2            -35.6815587858      -27.3240157020        9.3144113663  W2        3369            0.0000000000
      9862      3288  TIP3      OH2           -22.8857287858      -23.6619357020        9.1215213663  W2        3374            0.0000000000
      9863      3288  TIP3      H1            -22.5324187858      -24.0419557020        9.9258713663  W2        3374            0.0000000000
      9864      3288  TIP3      H2            -23.8343787858      -23.7554557020        9.2084513663  W2        3374            0.0000000000
      9865      3289  TIP3      OH2           -18.3822887858      -19.1826857020        9.3225413663  W2        3376            0.0000000000
      9866      3289  TIP3      H1            -17.6384987858      -18.5966357020        9.1827013663  W2        3376            0.0000000000
      9867      3289  TIP3      H2            -19.0764787858      -18.6141057020        9.6557813663  W2        3376            0.0000000000
      9868      3290  TIP3      OH2           -28.7949487858      -22.5503257020        7.5685213663  W2        3380            0.0000000000
      9869      3290  TIP3      H1            -28.5559687858      -23.2985157020        7.0214113663  W2        3380            0.0000000000
      9870      3290  TIP3      H2            -29.0638187858      -22.9381557020        8.4013013663  W2        3380            0.0000000000
      9871      3291  TIP3      OH2           -29.8578887858      -22.9799457020       10.0247813663  W2        3381            0.0000000000
      9872      3291  TIP3      H1            -29.7110887858      -23.4999657020       10.8148713663  W2        3381            0.0000000000
      9873      3291  TIP3      H2            -29.8607187858      -22.0731857020       10.3313713663  W2        3381            0.0000000000
      9874      3292  TIP3      OH2           -33.4047787858      -25.7276157020       10.5353213663  W2        3382            0.0000000000
      9875      3292  TIP3      H1            -34.0908487858      -25.3753657020       11.1022913663  W2        3382            0.0000000000
      9876      3292  TIP3      H2            -32.8819887858      -24.9646557020       10.2887513663  W2        3382            0.0000000000
      9877      3293  TIP3      OH2           -27.1201687858      -21.2825857020       10.7742013663  W2        3385            0.0000000000
      9878      3293  TIP3      H1            -27.9365587858      -20.7856157020       10.8266313663  W2        3385            0.0000000000
      9879      3293  TIP3      H2            -26.5905387858      -20.8072357020       10.1340813663  W2        3385            0.0000000000
      9880      3294  TIP3      OH2           -29.7818587858      -20.2388657020       10.7558913663  W2        3389            0.0000000000
      9881      3294  TIP3      H1            -29.6209887858      -19.4391157020       10.2551513663  W2        3389            0.0000000000
      9882      3294  TIP3      H2            -29.9790787858      -19.9322657020       11.6409513663  W2        3389            0.0000000000
      9883      3295  TIP3      OH2           -31.0474187858      -33.5409457020       10.3716513663  W2        3390            0.0000000000
      9884      3295  TIP3      H1            -31.1309387858      -32.6526357020       10.7182913663  W2        3390            0.0000000000
      9885      3295  TIP3      H2            -30.1573887858      -33.8062757020       10.6033313663  W2        3390            0.0000000000
      9886      3296  TIP3      OH2           -32.7888887858      -23.1137257020        9.4321013663  W2        3393            0.0000000000
      9887      3296  TIP3      H1            -32.1967387858      -22.4142457020        9.7083413663  W2        3393            0.0000000000
      9888      3296  TIP3      H2            -32.3295887858      -23.5467757020        8.7125613663  W2        3393            0.0000000000
      9889      3297  TIP3      OH2           -34.4729687858      -30.4494257020        8.5480413663  W2        3394            0.0000000000
      9890      3297  TIP3      H1            -34.5177087858      -29.5101157020        8.7267413663  W2        3394            0.0000000000
      9891      3297  TIP3      H2            -35.3606487858      -30.6849357020        8.2782513663  W2        3394            0.0000000000
      9892      3298  TIP3      OH2           -26.7567687858      -20.6871857020        7.7071213663  W2        3400            0.0000000000
      9893      3298  TIP3      H1            -27.4006687858      -21.3183257020        8.0284913663  W2        3400            0.0000000000
      9894      3298  TIP3      H2            -25.9949387858      -21.2183857020        7.4754713663  W2        3400            0.0000000000
      9895      3299  TIP3      OH2           -22.1524787858      -20.8701957020        7.9409213663  W2        3402            0.0000000000
      9896      3299  TIP3      H1            -21.8694387858      -21.6646757020        8.3936113663  W2        3402            0.0000000000
      9897      3299  TIP3      H2            -21.4126887858      -20.6370957020        7.3800313663  W2        3402            0.0000000000
      9898      3300  TIP3      OH2           -31.1977487858      -24.9607057020        7.7984113663  W2        3404            0.0000000000
      9899      3300  TIP3      H1            -31.1333387858      -25.7547457020        8.3290513663  W2        3404            0.0000000000
      9900      3300  TIP3      H2            -30.5448287858      -25.0794257020        7.1086113663  W2        3404            0.0000000000
      9901      3301  TIP3      OH2           -25.8454087858      -23.9135357020        7.5342113663  W2        3406            0.0000000000
      9902      3301  TIP3      H1            -26.1139987858      -23.7333257020        8.4351013663  W2        3406            0.0000000000
      9903      3301  TIP3      H2            -26.0518487858      -24.8389157020        7.4027913663  W2        3406            0.0000000000
      9904      3302  TIP3      OH2           -30.0483687858      -26.9880857020       10.1042113663  W2        3409            0.0000000000
      9905      3302  TIP3      H1            -30.5081687858      -27.4722557020       10.7900613663  W2        3409            0.0000000000
      9906      3302  TIP3      H2            -29.7934987858      -27.6565457020        9.4682613663  W2        3409            0.0000000000
      9907      3303  TIP3      OH2           -28.9773287858      -28.7449057020        8.3665313663  W2        3411            0.0000000000
      9908      3303  TIP3      H1            -29.1578287858      -28.8997857020        7.4393613663  W2        3411            0.0000000000
      9909      3303  TIP3      H2            -28.0272787858      -28.6370357020        8.4113213663  W2        3411            0.0000000000
      9910      3304  TIP3      OH2           -19.5874987858      -26.3904857020        7.8123413663  W2        3413            0.0000000000
      9911      3304  TIP3      H1            -19.8610187858      -26.8149357020        6.9991713663  W2        3413            0.0000000000
      9912      3304  TIP3      H2            -19.5480887858      -25.4590357020        7.5953813663  W2        3413            0.0000000000
      9913      3305  TIP3      OH2           -29.0801587858      -18.0545357020        9.3678913663  W2        3427            0.0000000000
      9914      3305  TIP3      H1            -28.1470887858      -17.8966657020        9.5117313663  W2        3427            0.0000000000
      9915      3305  TIP3      H2            -29.3442787858      -17.3792357020        8.7430413663  W2        3427            0.0000000000
      9916      3306  TIP3      OH2           -35.5116687858      -23.4181557020        8.8507013663  W2        3428            0.0000000000
      9917      3306  TIP3      H1            -34.5977487858      -23.3392657020        9.1240913663  W2        3428            0.0000000000
      9918      3306  TIP3      H2            -35.5043587858      -24.1051957020        8.1842613663  W2        3428            0.0000000000
      9919      3307  TIP3      OH2           -18.4663487858      -27.5670857020       10.0020813663  W2        3438            0.0000000000
      9920      3307  TIP3      H1            -18.9882387858      -27.2106757020        9.2831713663  W2        3438            0.0000000000
      9921      3307  TIP3      H2            -18.4994287858      -26.8923057020       10.6801713663  W2        3438            0.0000000000
      9922      3308  TIP3      OH2           -20.1174487858      -30.3275257020        8.5527913663  W2        3439            0.0000000000
      9923      3308  TIP3      H1            -20.0210087858      -29.6608257020        7.8727613663  W2        3439            0.0000000000
      9924      3308  TIP3      H2            -20.2574887858      -31.1428957020        8.0713413663  W2        3439            0.0000000000
      9925      3309  TIP3      OH2           -20.8700687858      -32.9195457020        7.6703413663  W2        3444            0.0000000000
      9926      3309  TIP3      H1            -20.2594887858      -33.2908657020        8.3071613663  W2        3444            0.0000000000
      9927      3309  TIP3      H2            -21.7069187858      -33.3408557020        7.8663413663  W2        3444            0.0000000000
      9928      3310  TIP3      OH2           -18.7573987858      -34.0339657020        9.2125613663  W2        3454            0.0000000000
      9929      3310  TIP3      H1            -18.3451387858      -34.7553957020        8.7373613663  W2        3454            0.0000000000
      9930      3310  TIP3      H2            -18.0757487858      -33.3645057020        9.2709913663  W2        3454            0.0000000000
      9931      3311  TIP3      OH2           -35.2000687858      -35.9864257020       10.3182913663  W2        3475            0.0000000000
      9932      3311  TIP3      H1            -34.7609987858      -35.3753757020        9.7266413663  W2        3475            0.0000000000
      9933      3311  TIP3      H2            -35.8338287858      -35.4480157020       10.7922913663  W2        3475            0.0000000000
      9934      3312  TIP3      OH2           -33.3391587858      -34.0702757020        8.7607013663  W2        3480            0.0000000000
      9935      3312  TIP3      H1            -32.8478187858      -34.7000357020        8.2332513663  W2        3480            0.0000000000
      9936      3312  TIP3      H2            -32.7155287858      -33.7743357020        9.4238213663  W2        3480            0.0000000000
      9937      3313  TIP3      OH2           -26.4347687858      -18.8287157020        9.6134213663  W2        3482            0.0000000000
      9938      3313  TIP3      H1            -25.5687487858      -18.4619757020        9.4352413663  W2        3482            0.0000000000
      9939      3313  TIP3      H2            -26.6814887858      -19.2679157020        8.7995013663  W2        3482            0.0000000000
      9940      3314  TIP3      OH2           -33.4809987858      -19.1181257020        8.2410113663  W2        3486            0.0000000000
      9941      3314  TIP3      H1            -33.7485387858      -18.8318357020        9.1143213663  W2        3486            0.0000000000
      9942      3314  TIP3      H2            -32.7097387858      -19.6642057020        8.3932613663  W2        3486            0.0000000000
      9943      3315  TIP3      OH2            -7.3269787858      -28.9265757020        8.9639613663  W2        3519            0.0000000000
      9944      3315  TIP3      H1             -6.6259887858      -28.9038857020        9.6153613663  W2        3519            0.0000000000
      9945      3315  TIP3      H2             -7.0246887858      -29.5546057020        8.3078913663  W2        3519            0.0000000000
      9946      3316  TIP3      OH2            -5.1041787858      -28.0123857020       10.5621713663  W2        3528            0.0000000000
      9947      3316  TIP3      H1             -4.5246287858      -27.8623557020       11.3090613663  W2        3528            0.0000000000
      9948      3316  TIP3      H2             -4.6901787858      -27.5416457020        9.8388113663  W2        3528            0.0000000000
      9949      3317  TIP3      OH2            -1.4053387858      -36.2623457020       10.3751413663  W2        3532            0.0000000000
      9950      3317  TIP3      H1             -2.3052687858      -36.1234457020       10.6702013663  W2        3532            0.0000000000
      9951      3317  TIP3      H2             -1.1534987858      -35.4308857020        9.9733113663  W2        3532            0.0000000000
      9952      3318  TIP3      OH2            -0.2161987858      -21.8961057020        8.7515313663  W2        3534            0.0000000000
      9953      3318  TIP3      H1             -0.1428487858      -20.9570857020        8.9220613663  W2        3534            0.0000000000
      9954      3318  TIP3      H2              0.6893112142      -22.2012457020        8.6952613663  W2        3534            0.0000000000
      9955      3319  TIP3      OH2            -4.8037787858      -19.1650457020        9.4146413663  W2        3541            0.0000000000
      9956      3319  TIP3      H1             -4.4289387858      -19.9094357020        8.9439013663  W2        3541            0.0000000000
      9957      3319  TIP3      H2             -4.7994087858      -19.4349857020       10.3329713663  W2        3541            0.0000000000
      9958      3320  TIP3      OH2            -3.6268687858      -26.9795557020        8.1919613663  W2        3548            0.0000000000
      9959      3320  TIP3      H1             -3.5847887858      -27.2021657020        7.2619613663  W2        3548            0.0000000000
      9960      3320  TIP3      H2             -2.7776587858      -26.5808457020        8.3819513663  W2        3548            0.0000000000
      9961      3321  TIP3      OH2            -8.0541187858      -33.1037357020        8.8622913663  W2        3549            0.0000000000
      9962      3321  TIP3      H1             -8.3076387858      -33.0845757020        9.7851013663  W2        3549            0.0000000000
      9963      3321  TIP3      H2             -8.3109087858      -33.9751957020        8.5609113663  W2        3549            0.0000000000
      9964      3322  TIP3      OH2           -11.1718287858      -32.6580857020        7.9633313663  W2        3556            0.0000000000
      9965      3322  TIP3      H1            -11.6027587858      -33.1030757020        8.6930713663  W2        3556            0.0000000000
      9966      3322  TIP3      H2            -11.8899587858      -32.2864557020        7.4510813663  W2        3556            0.0000000000
      9967      3323  TIP3      OH2           -16.6552787858      -32.1699357020       10.4392413663  W2        3558            0.0000000000
      9968      3323  TIP3      H1            -16.1811087858      -31.5789457020        9.8543313663  W2        3558            0.0000000000
      9969      3323  TIP3      H2            -17.3726387858      -31.6396457020       10.7862513663  W2        3558            0.0000000000
      9970      3324  TIP3      OH2           -12.5536387858      -29.8807957020        9.3457713663  W2        3564            0.0000000000
      9971      3324  TIP3      H1            -13.0961287858      -30.2604157020        8.6545313663  W2        3564            0.0000000000
      9972      3324  TIP3      H2            -11.7201487858      -29.6863257020        8.9171813663  W2        3564            0.0000000000
      9973      3325  TIP3      OH2            -5.3206787858      -32.5012357020        9.4808413663  W2        3572            0.0000000000
      9974      3325  TIP3      H1             -6.2592587858      -32.3896757020        9.3297213663  W2        3572            0.0000000000
      9975      3325  TIP3      H2             -5.0234687858      -31.6445457020        9.7874113663  W2        3572            0.0000000000
      9976      3326  TIP3      OH2            -4.6023287858      -30.6339657020       11.1415813663  W2        3574            0.0000000000
      9977      3326  TIP3      H1             -3.7104287858      -30.7714657020       11.4607013663  W2        3574            0.0000000000
      9978      3326  TIP3      H2             -4.5459687858      -29.8433557020       10.6049313663  W2        3574            0.0000000000
      9979      3327  TIP3      OH2            -7.0929487858      -23.8567957020       10.3070413663  W2        3576            0.0000000000
      9980      3327  TIP3      H1             -7.3881087858      -23.0300057020       10.6885213663  W2        3576            0.0000000000
      9981      3327  TIP3      H2             -7.7959487858      -24.4761057020       10.5031813663  W2        3576            0.0000000000
      9982      3328  TIP3      OH2             0.2825412142      -30.4245557020       10.8362513663  W2        3580            0.0000000000
      9983      3328  TIP3      H1             -0.2718287858      -30.8207557020       10.1640013663  W2        3580            0.0000000000
      9984      3328  TIP3      H2              0.3829012142      -29.5140357020       10.5585813663  W2        3580            0.0000000000
      9985      3329  TIP3      OH2           -15.9638187858      -27.6399957020        9.0427613663  W2        3585            0.0000000000
      9986      3329  TIP3      H1            -15.3478287858      -27.0132757020        9.4222413663  W2        3585            0.0000000000
      9987      3329  TIP3      H2            -16.8255587858      -27.3240157020        9.3144113663  W2        3585            0.0000000000
      9988      3330  TIP3      OH2            -4.0297287858      -23.6619357020        9.1215213663  W2        3590            0.0000000000
      9989      3330  TIP3      H1             -3.6764187858      -24.0419557020        9.9258713663  W2        3590            0.0000000000
      9990      3330  TIP3      H2             -4.9783787858      -23.7554557020        9.2084513663  W2        3590            0.0000000000
      9991      3331  TIP3      OH2             0.4737112142      -19.1826857020        9.3225413663  W2        3592            0.0000000000
      9992      3331  TIP3      H1              1.2175012142      -18.5966357020        9.1827013663  W2        3592            0.0000000000
      9993      3331  TIP3      H2             -0.2204787858      -18.6141057020        9.6557813663  W2        3592            0.0000000000
      9994      3332  TIP3      OH2            -9.9389487858      -22.5503257020        7.5685213663  W2        3596            0.0000000000
      9995      3332  TIP3      H1             -9.6999687858      -23.2985157020        7.0214113663  W2        3596            0.0000000000
      9996      3332  TIP3      H2            -10.2078187858      -22.9381557020        8.4013013663  W2        3596            0.0000000000
      9997      3333  TIP3      OH2           -11.0018887858      -22.9799457020       10.0247813663  W2        3597            0.0000000000
      9998      3333  TIP3      H1            -10.8550887858      -23.4999657020       10.8148713663  W2        3597            0.0000000000
      9999      3333  TIP3      H2            -11.0047187858      -22.0731857020       10.3313713663  W2        3597            0.0000000000
     10000      3334  TIP3      OH2           -14.5487787858      -25.7276157020       10.5353213663  W2        3598            0.0000000000
     10001      3334  TIP3      H1            -15.2348487858      -25.3753657020       11.1022913663  W2        3598            0.0000000000
     10002      3334  TIP3      H2            -14.0259887858      -24.9646557020       10.2887513663  W2        3598            0.0000000000
     10003      3335  TIP3      OH2            -8.2641687858      -21.2825857020       10.7742013663  W2        3601            0.0000000000
     10004      3335  TIP3      H1             -9.0805587858      -20.7856157020       10.8266313663  W2        3601            0.0000000000
     10005      3335  TIP3      H2             -7.7345387858      -20.8072357020       10.1340813663  W2        3601            0.0000000000
     10006      3336  TIP3      OH2           -10.9258587858      -20.2388657020       10.7558913663  W2        3605            0.0000000000
     10007      3336  TIP3      H1            -10.7649887858      -19.4391157020       10.2551513663  W2        3605            0.0000000000
     10008      3336  TIP3      H2            -11.1230787858      -19.9322657020       11.6409513663  W2        3605            0.0000000000
     10009      3337  TIP3      OH2           -12.1914187858      -33.5409457020       10.3716513663  W2        3606            0.0000000000
     10010      3337  TIP3      H1            -12.2749387858      -32.6526357020       10.7182913663  W2        3606            0.0000000000
     10011      3337  TIP3      H2            -11.3013887858      -33.8062757020       10.6033313663  W2        3606            0.0000000000
     10012      3338  TIP3      OH2           -13.9328887858      -23.1137257020        9.4321013663  W2        3609            0.0000000000
     10013      3338  TIP3      H1            -13.3407387858      -22.4142457020        9.7083413663  W2        3609            0.0000000000
     10014      3338  TIP3      H2            -13.4735887858      -23.5467757020        8.7125613663  W2        3609            0.0000000000
     10015      3339  TIP3      OH2           -15.6169687858      -30.4494257020        8.5480413663  W2        3610            0.0000000000
     10016      3339  TIP3      H1            -15.6617087858      -29.5101157020        8.7267413663  W2        3610            0.0000000000
     10017      3339  TIP3      H2            -16.5046487858      -30.6849357020        8.2782513663  W2        3610            0.0000000000
     10018      3340  TIP3      OH2            -7.9007687858      -20.6871857020        7.7071213663  W2        3616            0.0000000000
     10019      3340  TIP3      H1             -8.5446687858      -21.3183257020        8.0284913663  W2        3616            0.0000000000
     10020      3340  TIP3      H2             -7.1389387858      -21.2183857020        7.4754713663  W2        3616            0.0000000000
     10021      3341  TIP3      OH2            -3.2964787858      -20.8701957020        7.9409213663  W2        3618            0.0000000000
     10022      3341  TIP3      H1             -3.0134387858      -21.6646757020        8.3936113663  W2        3618            0.0000000000
     10023      3341  TIP3      H2             -2.5566887858      -20.6370957020        7.3800313663  W2        3618            0.0000000000
     10024      3342  TIP3      OH2           -12.3417487858      -24.9607057020        7.7984113663  W2        3620            0.0000000000
     10025      3342  TIP3      H1            -12.2773387858      -25.7547457020        8.3290513663  W2        3620            0.0000000000
     10026      3342  TIP3      H2            -11.6888287858      -25.0794257020        7.1086113663  W2        3620            0.0000000000
     10027      3343  TIP3      OH2            -6.9894087858      -23.9135357020        7.5342113663  W2        3622            0.0000000000
     10028      3343  TIP3      H1             -7.2579987858      -23.7333257020        8.4351013663  W2        3622            0.0000000000
     10029      3343  TIP3      H2             -7.1958487858      -24.8389157020        7.4027913663  W2        3622            0.0000000000
     10030      3344  TIP3      OH2           -11.1923687858      -26.9880857020       10.1042113663  W2        3625            0.0000000000
     10031      3344  TIP3      H1            -11.6521687858      -27.4722557020       10.7900613663  W2        3625            0.0000000000
     10032      3344  TIP3      H2            -10.9374987858      -27.6565457020        9.4682613663  W2        3625            0.0000000000
     10033      3345  TIP3      OH2           -10.1213287858      -28.7449057020        8.3665313663  W2        3627            0.0000000000
     10034      3345  TIP3      H1            -10.3018287858      -28.8997857020        7.4393613663  W2        3627            0.0000000000
     10035      3345  TIP3      H2             -9.1712787858      -28.6370357020        8.4113213663  W2        3627            0.0000000000
     10036      3346  TIP3      OH2            -0.7314987858      -26.3904857020        7.8123413663  W2        3629            0.0000000000
     10037      3346  TIP3      H1             -1.0050187858      -26.8149357020        6.9991713663  W2        3629            0.0000000000
     10038      3346  TIP3      H2             -0.6920887858      -25.4590357020        7.5953813663  W2        3629            0.0000000000
     10039      3347  TIP3      OH2           -10.2241587858      -18.0545357020        9.3678913663  W2        3643            0.0000000000
     10040      3347  TIP3      H1             -9.2910887858      -17.8966657020        9.5117313663  W2        3643            0.0000000000
     10041      3347  TIP3      H2            -10.4882787858      -17.3792357020        8.7430413663  W2        3643            0.0000000000
     10042      3348  TIP3      OH2           -16.6556687858      -23.4181557020        8.8507013663  W2        3644            0.0000000000
     10043      3348  TIP3      H1            -15.7417487858      -23.3392657020        9.1240913663  W2        3644            0.0000000000
     10044      3348  TIP3      H2            -16.6483587858      -24.1051957020        8.1842613663  W2        3644            0.0000000000
     10045      3349  TIP3      OH2             0.3896512142      -27.5670857020       10.0020813663  W2        3654            0.0000000000
     10046      3349  TIP3      H1             -0.1322387858      -27.2106757020        9.2831713663  W2        3654            0.0000000000
     10047      3349  TIP3      H2              0.3565712142      -26.8923057020       10.6801713663  W2        3654            0.0000000000
     10048      3350  TIP3      OH2            -1.2614487858      -30.3275257020        8.5527913663  W2        3655            0.0000000000
     10049      3350  TIP3      H1             -1.1650087858      -29.6608257020        7.8727613663  W2        3655            0.0000000000
     10050      3350  TIP3      H2             -1.4014887858      -31.1428957020        8.0713413663  W2        3655            0.0000000000
     10051      3351  TIP3      OH2            -2.0140687858      -32.9195457020        7.6703413663  W2        3660            0.0000000000
     10052      3351  TIP3      H1             -1.4034887858      -33.2908657020        8.3071613663  W2        3660            0.0000000000
     10053      3351  TIP3      H2             -2.8509187858      -33.3408557020        7.8663413663  W2        3660            0.0000000000
     10054      3352  TIP3      OH2             0.0986012142      -34.0339657020        9.2125613663  W2        3670            0.0000000000
     10055      3352  TIP3      H1              0.5108612142      -34.7553957020        8.7373613663  W2        3670            0.0000000000
     10056      3352  TIP3      H2              0.7802512142      -33.3645057020        9.2709913663  W2        3670            0.0000000000
     10057      3353  TIP3      OH2           -16.3440687858      -35.9864257020       10.3182913663  W2        3691            0.0000000000
     10058      3353  TIP3      H1            -15.9049987858      -35.3753757020        9.7266413663  W2        3691            0.0000000000
     10059      3353  TIP3      H2            -16.9778287858      -35.4480157020       10.7922913663  W2        3691            0.0000000000
     10060      3354  TIP3      OH2           -14.4831587858      -34.0702757020        8.7607013663  W2        3696            0.0000000000
     10061      3354  TIP3      H1            -13.9918187858      -34.7000357020        8.2332513663  W2        3696            0.0000000000
     10062      3354  TIP3      H2            -13.8595287858      -33.7743357020        9.4238213663  W2        3696            0.0000000000
     10063      3355  TIP3      OH2            -7.5787687858      -18.8287157020        9.6134213663  W2        3698            0.0000000000
     10064      3355  TIP3      H1             -6.7127487858      -18.4619757020        9.4352413663  W2        3698            0.0000000000
     10065      3355  TIP3      H2             -7.8254887858      -19.2679157020        8.7995013663  W2        3698            0.0000000000
     10066      3356  TIP3      OH2           -14.6249987858      -19.1181257020        8.2410113663  W2        3702            0.0000000000
     10067      3356  TIP3      H1            -14.8925387858      -18.8318357020        9.1143213663  W2        3702            0.0000000000
     10068      3356  TIP3      H2            -13.8537387858      -19.6642057020        8.3932613663  W2        3702            0.0000000000
     10069      3357  TIP3      OH2            11.5290212142      -28.9265757020        8.9639613663  W2        3735            0.0000000000
     10070      3357  TIP3      H1             12.2300112142      -28.9038857020        9.6153613663  W2        3735            0.0000000000
     10071      3357  TIP3      H2             11.8313112142      -29.5546057020        8.3078913663  W2        3735            0.0000000000
     10072      3358  TIP3      OH2            13.7518212142      -28.0123857020       10.5621713663  W2        3744            0.0000000000
     10073      3358  TIP3      H1             14.3313712142      -27.8623557020       11.3090613663  W2        3744            0.0000000000
     10074      3358  TIP3      H2             14.1658212142      -27.5416457020        9.8388113663  W2        3744            0.0000000000
     10075      3359  TIP3      OH2            17.4506612142      -36.2623457020       10.3751413663  W2        3748            0.0000000000
     10076      3359  TIP3      H1             16.5507312142      -36.1234457020       10.6702013663  W2        3748            0.0000000000
     10077      3359  TIP3      H2             17.7025012142      -35.4308857020        9.9733113663  W2        3748            0.0000000000
     10078      3360  TIP3      OH2            18.6398012142      -21.8961057020        8.7515313663  W2        3750            0.0000000000
     10079      3360  TIP3      H1             18.7131512142      -20.9570857020        8.9220613663  W2        3750            0.0000000000
     10080      3360  TIP3      H2             19.5453112142      -22.2012457020        8.6952613663  W2        3750            0.0000000000
     10081      3361  TIP3      OH2            14.0522212142      -19.1650457020        9.4146413663  W2        3757            0.0000000000
     10082      3361  TIP3      H1             14.4270612142      -19.9094357020        8.9439013663  W2        3757            0.0000000000
     10083      3361  TIP3      H2             14.0565912142      -19.4349857020       10.3329713663  W2        3757            0.0000000000
     10084      3362  TIP3      OH2            15.2291312142      -26.9795557020        8.1919613663  W2        3764            0.0000000000
     10085      3362  TIP3      H1             15.2712112142      -27.2021657020        7.2619613663  W2        3764            0.0000000000
     10086      3362  TIP3      H2             16.0783412142      -26.5808457020        8.3819513663  W2        3764            0.0000000000
     10087      3363  TIP3      OH2            10.8018812142      -33.1037357020        8.8622913663  W2        3765            0.0000000000
     10088      3363  TIP3      H1             10.5483612142      -33.0845757020        9.7851013663  W2        3765            0.0000000000
     10089      3363  TIP3      H2             10.5450912142      -33.9751957020        8.5609113663  W2        3765            0.0000000000
     10090      3364  TIP3      OH2             7.6841712142      -32.6580857020        7.9633313663  W2        3772            0.0000000000
     10091      3364  TIP3      H1              7.2532412142      -33.1030757020        8.6930713663  W2        3772            0.0000000000
     10092      3364  TIP3      H2              6.9660412142      -32.2864557020        7.4510813663  W2        3772            0.0000000000
     10093      3365  TIP3      OH2             2.2007212142      -32.1699357020       10.4392413663  W2        3774            0.0000000000
     10094      3365  TIP3      H1              2.6748912142      -31.5789457020        9.8543313663  W2        3774            0.0000000000
     10095      3365  TIP3      H2              1.4833612142      -31.6396457020       10.7862513663  W2        3774            0.0000000000
     10096      3366  TIP3      OH2             6.3023612142      -29.8807957020        9.3457713663  W2        3780            0.0000000000
     10097      3366  TIP3      H1              5.7598712142      -30.2604157020        8.6545313663  W2        3780            0.0000000000
     10098      3366  TIP3      H2              7.1358512142      -29.6863257020        8.9171813663  W2        3780            0.0000000000
     10099      3367  TIP3      OH2            13.5353212142      -32.5012357020        9.4808413663  W2        3788            0.0000000000
     10100      3367  TIP3      H1             12.5967412142      -32.3896757020        9.3297213663  W2        3788            0.0000000000
     10101      3367  TIP3      H2             13.8325312142      -31.6445457020        9.7874113663  W2        3788            0.0000000000
     10102      3368  TIP3      OH2            14.2536712142      -30.6339657020       11.1415813663  W2        3790            0.0000000000
     10103      3368  TIP3      H1             15.1455712142      -30.7714657020       11.4607013663  W2        3790            0.0000000000
     10104      3368  TIP3      H2             14.3100312142      -29.8433557020       10.6049313663  W2        3790            0.0000000000
     10105      3369  TIP3      OH2            11.7630512142      -23.8567957020       10.3070413663  W2        3792            0.0000000000
     10106      3369  TIP3      H1             11.4678912142      -23.0300057020       10.6885213663  W2        3792            0.0000000000
     10107      3369  TIP3      H2             11.0600512142      -24.4761057020       10.5031813663  W2        3792            0.0000000000
     10108      3370  TIP3      OH2            19.1385412142      -30.4245557020       10.8362513663  W2        3796            0.0000000000
     10109      3370  TIP3      H1             18.5841712142      -30.8207557020       10.1640013663  W2        3796            0.0000000000
     10110      3370  TIP3      H2             19.2389012142      -29.5140357020       10.5585813663  W2        3796            0.0000000000
     10111      3371  TIP3      OH2             2.8921812142      -27.6399957020        9.0427613663  W2        3801            0.0000000000
     10112      3371  TIP3      H1              3.5081712142      -27.0132757020        9.4222413663  W2        3801            0.0000000000
     10113      3371  TIP3      H2              2.0304412142      -27.3240157020        9.3144113663  W2        3801            0.0000000000
     10114      3372  TIP3      OH2            14.8262712142      -23.6619357020        9.1215213663  W2        3806            0.0000000000
     10115      3372  TIP3      H1             15.1795812142      -24.0419557020        9.9258713663  W2        3806            0.0000000000
     10116      3372  TIP3      H2             13.8776212142      -23.7554557020        9.2084513663  W2        3806            0.0000000000
     10117      3373  TIP3      OH2            19.3297112142      -19.1826857020        9.3225413663  W2        3808            0.0000000000
     10118      3373  TIP3      H1             20.0735012142      -18.5966357020        9.1827013663  W2        3808            0.0000000000
     10119      3373  TIP3      H2             18.6355212142      -18.6141057020        9.6557813663  W2        3808            0.0000000000
     10120      3374  TIP3      OH2             8.9170512142      -22.5503257020        7.5685213663  W2        3812            0.0000000000
     10121      3374  TIP3      H1              9.1560312142      -23.2985157020        7.0214113663  W2        3812            0.0000000000
     10122      3374  TIP3      H2              8.6481812142      -22.9381557020        8.4013013663  W2        3812            0.0000000000
     10123      3375  TIP3      OH2             7.8541112142      -22.9799457020       10.0247813663  W2        3813            0.0000000000
     10124      3375  TIP3      H1              8.0009112142      -23.4999657020       10.8148713663  W2        3813            0.0000000000
     10125      3375  TIP3      H2              7.8512812142      -22.0731857020       10.3313713663  W2        3813            0.0000000000
     10126      3376  TIP3      OH2             4.3072212142      -25.7276157020       10.5353213663  W2        3814            0.0000000000
     10127      3376  TIP3      H1              3.6211512142      -25.3753657020       11.1022913663  W2        3814            0.0000000000
     10128      3376  TIP3      H2              4.8300112142      -24.9646557020       10.2887513663  W2        3814            0.0000000000
     10129      3377  TIP3      OH2            10.5918312142      -21.2825857020       10.7742013663  W2        3817            0.0000000000
     10130      3377  TIP3      H1              9.7754412142      -20.7856157020       10.8266313663  W2        3817            0.0000000000
     10131      3377  TIP3      H2             11.1214612142      -20.8072357020       10.1340813663  W2        3817            0.0000000000
     10132      3378  TIP3      OH2             7.9301412142      -20.2388657020       10.7558913663  W2        3821            0.0000000000
     10133      3378  TIP3      H1              8.0910112142      -19.4391157020       10.2551513663  W2        3821            0.0000000000
     10134      3378  TIP3      H2              7.7329212142      -19.9322657020       11.6409513663  W2        3821            0.0000000000
     10135      3379  TIP3      OH2             6.6645812142      -33.5409457020       10.3716513663  W2        3822            0.0000000000
     10136      3379  TIP3      H1              6.5810612142      -32.6526357020       10.7182913663  W2        3822            0.0000000000
     10137      3379  TIP3      H2              7.5546112142      -33.8062757020       10.6033313663  W2        3822            0.0000000000
     10138      3380  TIP3      OH2             4.9231112142      -23.1137257020        9.4321013663  W2        3825            0.0000000000
     10139      3380  TIP3      H1              5.5152612142      -22.4142457020        9.7083413663  W2        3825            0.0000000000
     10140      3380  TIP3      H2              5.3824112142      -23.5467757020        8.7125613663  W2        3825            0.0000000000
     10141      3381  TIP3      OH2             3.2390312142      -30.4494257020        8.5480413663  W2        3826            0.0000000000
     10142      3381  TIP3      H1              3.1942912142      -29.5101157020        8.7267413663  W2        3826            0.0000000000
     10143      3381  TIP3      H2              2.3513512142      -30.6849357020        8.2782513663  W2        3826            0.0000000000
     10144      3382  TIP3      OH2            10.9552312142      -20.6871857020        7.7071213663  W2        3832            0.0000000000
     10145      3382  TIP3      H1             10.3113312142      -21.3183257020        8.0284913663  W2        3832            0.0000000000
     10146      3382  TIP3      H2             11.7170612142      -21.2183857020        7.4754713663  W2        3832            0.0000000000
     10147      3383  TIP3      OH2            15.5595212142      -20.8701957020        7.9409213663  W2        3834            0.0000000000
     10148      3383  TIP3      H1             15.8425612142      -21.6646757020        8.3936113663  W2        3834            0.0000000000
     10149      3383  TIP3      H2             16.2993112142      -20.6370957020        7.3800313663  W2        3834            0.0000000000
     10150      3384  TIP3      OH2             6.5142512142      -24.9607057020        7.7984113663  W2        3836            0.0000000000
     10151      3384  TIP3      H1              6.5786612142      -25.7547457020        8.3290513663  W2        3836            0.0000000000
     10152      3384  TIP3      H2              7.1671712142      -25.0794257020        7.1086113663  W2        3836            0.0000000000
     10153      3385  TIP3      OH2            11.8665912142      -23.9135357020        7.5342113663  W2        3838            0.0000000000
     10154      3385  TIP3      H1             11.5980012142      -23.7333257020        8.4351013663  W2        3838            0.0000000000
     10155      3385  TIP3      H2             11.6601512142      -24.8389157020        7.4027913663  W2        3838            0.0000000000
     10156      3386  TIP3      OH2             7.6636312142      -26.9880857020       10.1042113663  W2        3841            0.0000000000
     10157      3386  TIP3      H1              7.2038312142      -27.4722557020       10.7900613663  W2        3841            0.0000000000
     10158      3386  TIP3      H2              7.9185012142      -27.6565457020        9.4682613663  W2        3841            0.0000000000
     10159      3387  TIP3      OH2             8.7346712142      -28.7449057020        8.3665313663  W2        3843            0.0000000000
     10160      3387  TIP3      H1              8.5541712142      -28.8997857020        7.4393613663  W2        3843            0.0000000000
     10161      3387  TIP3      H2              9.6847212142      -28.6370357020        8.4113213663  W2        3843            0.0000000000
     10162      3388  TIP3      OH2            18.1245012142      -26.3904857020        7.8123413663  W2        3845            0.0000000000
     10163      3388  TIP3      H1             17.8509812142      -26.8149357020        6.9991713663  W2        3845            0.0000000000
     10164      3388  TIP3      H2             18.1639112142      -25.4590357020        7.5953813663  W2        3845            0.0000000000
     10165      3389  TIP3      OH2             8.6318412142      -18.0545357020        9.3678913663  W2        3859            0.0000000000
     10166      3389  TIP3      H1              9.5649112142      -17.8966657020        9.5117313663  W2        3859            0.0000000000
     10167      3389  TIP3      H2              8.3677212142      -17.3792357020        8.7430413663  W2        3859            0.0000000000
     10168      3390  TIP3      OH2             2.2003312142      -23.4181557020        8.8507013663  W2        3860            0.0000000000
     10169      3390  TIP3      H1              3.1142512142      -23.3392657020        9.1240913663  W2        3860            0.0000000000
     10170      3390  TIP3      H2              2.2076412142      -24.1051957020        8.1842613663  W2        3860            0.0000000000
     10171      3391  TIP3      OH2            19.2456512142      -27.5670857020       10.0020813663  W2        3870            0.0000000000
     10172      3391  TIP3      H1             18.7237612142      -27.2106757020        9.2831713663  W2        3870            0.0000000000
     10173      3391  TIP3      H2             19.2125712142      -26.8923057020       10.6801713663  W2        3870            0.0000000000
     10174      3392  TIP3      OH2            17.5945512142      -30.3275257020        8.5527913663  W2        3871            0.0000000000
     10175      3392  TIP3      H1             17.6909912142      -29.6608257020        7.8727613663  W2        3871            0.0000000000
     10176      3392  TIP3      H2             17.4545112142      -31.1428957020        8.0713413663  W2        3871            0.0000000000
     10177      3393  TIP3      OH2            16.8419312142      -32.9195457020        7.6703413663  W2        3876            0.0000000000
     10178      3393  TIP3      H1             17.4525112142      -33.2908657020        8.3071613663  W2        3876            0.0000000000
     10179      3393  TIP3      H2             16.0050812142      -33.3408557020        7.8663413663  W2        3876            0.0000000000
     10180      3394  TIP3      OH2            18.9546012142      -34.0339657020        9.2125613663  W2        3886            0.0000000000
     10181      3394  TIP3      H1             19.3668612142      -34.7553957020        8.7373613663  W2        3886            0.0000000000
     10182      3394  TIP3      H2             19.6362512142      -33.3645057020        9.2709913663  W2        3886            0.0000000000
     10183      3395  TIP3      OH2             2.5119312142      -35.9864257020       10.3182913663  W2        3907            0.0000000000
     10184      3395  TIP3      H1              2.9510012142      -35.3753757020        9.7266413663  W2        3907            0.0000000000
     10185      3395  TIP3      H2              1.8781712142      -35.4480157020       10.7922913663  W2        3907            0.0000000000
     10186      3396  TIP3      OH2             4.3728412142      -34.0702757020        8.7607013663  W2        3912            0.0000000000
     10187      3396  TIP3      H1              4.8641812142      -34.7000357020        8.2332513663  W2        3912            0.0000000000
     10188      3396  TIP3      H2              4.9964712142      -33.7743357020        9.4238213663  W2        3912            0.0000000000
     10189      3397  TIP3      OH2            11.2772312142      -18.8287157020        9.6134213663  W2        3914            0.0000000000
     10190      3397  TIP3      H1             12.1432512142      -18.4619757020        9.4352413663  W2        3914            0.0000000000
     10191      3397  TIP3      H2             11.0305112142      -19.2679157020        8.7995013663  W2        3914            0.0000000000
     10192      3398  TIP3      OH2             4.2310012142      -19.1181257020        8.2410113663  W2        3918            0.0000000000
     10193      3398  TIP3      H1              3.9634612142      -18.8318357020        9.1143213663  W2        3918            0.0000000000
     10194      3398  TIP3      H2              5.0022612142      -19.6642057020        8.3932613663  W2        3918            0.0000000000
     10195      3399  TIP3      OH2            30.3850212142      -28.9265757020        8.9639613663  W2        3949            0.0000000000
     10196      3399  TIP3      H1             31.0860112142      -28.9038857020        9.6153613663  W2        3949            0.0000000000
     10197      3399  TIP3      H2             30.6873112142      -29.5546057020        8.3078913663  W2        3949            0.0000000000
     10198      3400  TIP3      OH2            32.6078212142      -28.0123857020       10.5621713663  W2        3957            0.0000000000
     10199      3400  TIP3      H1             33.1873712142      -27.8623557020       11.3090613663  W2        3957            0.0000000000
     10200      3400  TIP3      H2             33.0218212142      -27.5416457020        9.8388113663  W2        3957            0.0000000000
     10201      3401  TIP3      OH2            36.3066612142      -36.2623457020       10.3751413663  W2        3961            0.0000000000
     10202      3401  TIP3      H1             35.4067312142      -36.1234457020       10.6702013663  W2        3961            0.0000000000
     10203      3401  TIP3      H2             36.5585012142      -35.4308857020        9.9733113663  W2        3961            0.0000000000
     10204      3402  TIP3      OH2            32.9082212142      -19.1650457020        9.4146413663  W2        3968            0.0000000000
     10205      3402  TIP3      H1             33.2830612142      -19.9094357020        8.9439013663  W2        3968            0.0000000000
     10206      3402  TIP3      H2             32.9125912142      -19.4349857020       10.3329713663  W2        3968            0.0000000000
     10207      3403  TIP3      OH2            34.0851312142      -26.9795557020        8.1919613663  W2        3975            0.0000000000
     10208      3403  TIP3      H1             34.1272112142      -27.2021657020        7.2619613663  W2        3975            0.0000000000
     10209      3403  TIP3      H2             34.9343412142      -26.5808457020        8.3819513663  W2        3975            0.0000000000
     10210      3404  TIP3      OH2            29.6578812142      -33.1037357020        8.8622913663  W2        3976            0.0000000000
     10211      3404  TIP3      H1             29.4043612142      -33.0845757020        9.7851013663  W2        3976            0.0000000000
     10212      3404  TIP3      H2             29.4010912142      -33.9751957020        8.5609113663  W2        3976            0.0000000000
     10213      3405  TIP3      OH2            26.5401712142      -32.6580857020        7.9633313663  W2        3983            0.0000000000
     10214      3405  TIP3      H1             26.1092412142      -33.1030757020        8.6930713663  W2        3983            0.0000000000
     10215      3405  TIP3      H2             25.8220412142      -32.2864557020        7.4510813663  W2        3983            0.0000000000
     10216      3406  TIP3      OH2            21.0567212142      -32.1699357020       10.4392413663  W2        3985            0.0000000000
     10217      3406  TIP3      H1             21.5308912142      -31.5789457020        9.8543313663  W2        3985            0.0000000000
     10218      3406  TIP3      H2             20.3393612142      -31.6396457020       10.7862513663  W2        3985            0.0000000000
     10219      3407  TIP3      OH2            25.1583612142      -29.8807957020        9.3457713663  W2        3991            0.0000000000
     10220      3407  TIP3      H1             24.6158712142      -30.2604157020        8.6545313663  W2        3991            0.0000000000
     10221      3407  TIP3      H2             25.9918512142      -29.6863257020        8.9171813663  W2        3991            0.0000000000
     10222      3408  TIP3      OH2            32.3913212142      -32.5012357020        9.4808413663  W2        3999            0.0000000000
     10223      3408  TIP3      H1             31.4527412142      -32.3896757020        9.3297213663  W2        3999            0.0000000000
     10224      3408  TIP3      H2             32.6885312142      -31.6445457020        9.7874113663  W2        3999            0.0000000000
     10225      3409  TIP3      OH2            33.1096712142      -30.6339657020       11.1415813663  W2        4001            0.0000000000
     10226      3409  TIP3      H1             34.0015712142      -30.7714657020       11.4607013663  W2        4001            0.0000000000
     10227      3409  TIP3      H2             33.1660312142      -29.8433557020       10.6049313663  W2        4001            0.0000000000
     10228      3410  TIP3      OH2            30.6190512142      -23.8567957020       10.3070413663  W2        4003            0.0000000000
     10229      3410  TIP3      H1             30.3238912142      -23.0300057020       10.6885213663  W2        4003            0.0000000000
     10230      3410  TIP3      H2             29.9160512142      -24.4761057020       10.5031813663  W2        4003            0.0000000000
     10231      3411  TIP3      OH2            21.7481812142      -27.6399957020        9.0427613663  W2        4010            0.0000000000
     10232      3411  TIP3      H1             22.3641712142      -27.0132757020        9.4222413663  W2        4010            0.0000000000
     10233      3411  TIP3      H2             20.8864412142      -27.3240157020        9.3144113663  W2        4010            0.0000000000
     10234      3412  TIP3      OH2            33.6822712142      -23.6619357020        9.1215213663  W2        4015            0.0000000000
     10235      3412  TIP3      H1             34.0355812142      -24.0419557020        9.9258713663  W2        4015            0.0000000000
     10236      3412  TIP3      H2             32.7336212142      -23.7554557020        9.2084513663  W2        4015            0.0000000000
     10237      3413  TIP3      OH2            27.7730512142      -22.5503257020        7.5685213663  W2        4020            0.0000000000
     10238      3413  TIP3      H1             28.0120312142      -23.2985157020        7.0214113663  W2        4020            0.0000000000
     10239      3413  TIP3      H2             27.5041812142      -22.9381557020        8.4013013663  W2        4020            0.0000000000
     10240      3414  TIP3      OH2            26.7101112142      -22.9799457020       10.0247813663  W2        4021            0.0000000000
     10241      3414  TIP3      H1             26.8569112142      -23.4999657020       10.8148713663  W2        4021            0.0000000000
     10242      3414  TIP3      H2             26.7072812142      -22.0731857020       10.3313713663  W2        4021            0.0000000000
     10243      3415  TIP3      OH2            23.1632212142      -25.7276157020       10.5353213663  W2        4022            0.0000000000
     10244      3415  TIP3      H1             22.4771512142      -25.3753657020       11.1022913663  W2        4022            0.0000000000
     10245      3415  TIP3      H2             23.6860112142      -24.9646557020       10.2887513663  W2        4022            0.0000000000
     10246      3416  TIP3      OH2            29.4478312142      -21.2825857020       10.7742013663  W2        4025            0.0000000000
     10247      3416  TIP3      H1             28.6314412142      -20.7856157020       10.8266313663  W2        4025            0.0000000000
     10248      3416  TIP3      H2             29.9774612142      -20.8072357020       10.1340813663  W2        4025            0.0000000000
     10249      3417  TIP3      OH2            26.7861412142      -20.2388657020       10.7558913663  W2        4029            0.0000000000
     10250      3417  TIP3      H1             26.9470112142      -19.4391157020       10.2551513663  W2        4029            0.0000000000
     10251      3417  TIP3      H2             26.5889212142      -19.9322657020       11.6409513663  W2        4029            0.0000000000
     10252      3418  TIP3      OH2            25.5205812142      -33.5409457020       10.3716513663  W2        4030            0.0000000000
     10253      3418  TIP3      H1             25.4370612142      -32.6526357020       10.7182913663  W2        4030            0.0000000000
     10254      3418  TIP3      H2             26.4106112142      -33.8062757020       10.6033313663  W2        4030            0.0000000000
     10255      3419  TIP3      OH2            23.7791112142      -23.1137257020        9.4321013663  W2        4033            0.0000000000
     10256      3419  TIP3      H1             24.3712612142      -22.4142457020        9.7083413663  W2        4033            0.0000000000
     10257      3419  TIP3      H2             24.2384112142      -23.5467757020        8.7125613663  W2        4033            0.0000000000
     10258      3420  TIP3      OH2            22.0950312142      -30.4494257020        8.5480413663  W2        4034            0.0000000000
     10259      3420  TIP3      H1             22.0502912142      -29.5101157020        8.7267413663  W2        4034            0.0000000000
     10260      3420  TIP3      H2             21.2073512142      -30.6849357020        8.2782513663  W2        4034            0.0000000000
     10261      3421  TIP3      OH2            29.8112312142      -20.6871857020        7.7071213663  W2        4040            0.0000000000
     10262      3421  TIP3      H1             29.1673312142      -21.3183257020        8.0284913663  W2        4040            0.0000000000
     10263      3421  TIP3      H2             30.5730612142      -21.2183857020        7.4754713663  W2        4040            0.0000000000
     10264      3422  TIP3      OH2            34.4155212142      -20.8701957020        7.9409213663  W2        4042            0.0000000000
     10265      3422  TIP3      H1             34.6985612142      -21.6646757020        8.3936113663  W2        4042            0.0000000000
     10266      3422  TIP3      H2             35.1553112142      -20.6370957020        7.3800313663  W2        4042            0.0000000000
     10267      3423  TIP3      OH2            25.3702512142      -24.9607057020        7.7984113663  W2        4044            0.0000000000
     10268      3423  TIP3      H1             25.4346612142      -25.7547457020        8.3290513663  W2        4044            0.0000000000
     10269      3423  TIP3      H2             26.0231712142      -25.0794257020        7.1086113663  W2        4044            0.0000000000
     10270      3424  TIP3      OH2            30.7225912142      -23.9135357020        7.5342113663  W2        4046            0.0000000000
     10271      3424  TIP3      H1             30.4540012142      -23.7333257020        8.4351013663  W2        4046            0.0000000000
     10272      3424  TIP3      H2             30.5161512142      -24.8389157020        7.4027913663  W2        4046            0.0000000000
     10273      3425  TIP3      OH2            26.5196312142      -26.9880857020       10.1042113663  W2        4049            0.0000000000
     10274      3425  TIP3      H1             26.0598312142      -27.4722557020       10.7900613663  W2        4049            0.0000000000
     10275      3425  TIP3      H2             26.7745012142      -27.6565457020        9.4682613663  W2        4049            0.0000000000
     10276      3426  TIP3      OH2            27.5906712142      -28.7449057020        8.3665313663  W2        4051            0.0000000000
     10277      3426  TIP3      H1             27.4101712142      -28.8997857020        7.4393613663  W2        4051            0.0000000000
     10278      3426  TIP3      H2             28.5407212142      -28.6370357020        8.4113213663  W2        4051            0.0000000000
     10279      3427  TIP3      OH2            27.4878412142      -18.0545357020        9.3678913663  W2        4066            0.0000000000
     10280      3427  TIP3      H1             28.4209112142      -17.8966657020        9.5117313663  W2        4066            0.0000000000
     10281      3427  TIP3      H2             27.2237212142      -17.3792357020        8.7430413663  W2        4066            0.0000000000
     10282      3428  TIP3      OH2            21.0563312142      -23.4181557020        8.8507013663  W2        4067            0.0000000000
     10283      3428  TIP3      H1             21.9702512142      -23.3392657020        9.1240913663  W2        4067            0.0000000000
     10284      3428  TIP3      H2             21.0636412142      -24.1051957020        8.1842613663  W2        4067            0.0000000000
     10285      3429  TIP3      OH2            36.4505512142      -30.3275257020        8.5527913663  W2        4072            0.0000000000
     10286      3429  TIP3      H1             36.5469912142      -29.6608257020        7.8727613663  W2        4072            0.0000000000
     10287      3429  TIP3      H2             36.3105112142      -31.1428957020        8.0713413663  W2        4072            0.0000000000
     10288      3430  TIP3      OH2            35.6979312142      -32.9195457020        7.6703413663  W2        4076            0.0000000000
     10289      3430  TIP3      H1             36.3085112142      -33.2908657020        8.3071613663  W2        4076            0.0000000000
     10290      3430  TIP3      H2             34.8610812142      -33.3408557020        7.8663413663  W2        4076            0.0000000000
     10291      3431  TIP3      OH2            21.3679312142      -35.9864257020       10.3182913663  W2        4102            0.0000000000
     10292      3431  TIP3      H1             21.8070012142      -35.3753757020        9.7266413663  W2        4102            0.0000000000
     10293      3431  TIP3      H2             20.7341712142      -35.4480157020       10.7922913663  W2        4102            0.0000000000
     10294      3432  TIP3      OH2            23.2288412142      -34.0702757020        8.7607013663  W2        4107            0.0000000000
     10295      3432  TIP3      H1             23.7201812142      -34.7000357020        8.2332513663  W2        4107            0.0000000000
     10296      3432  TIP3      H2             23.8524712142      -33.7743357020        9.4238213663  W2        4107            0.0000000000
     10297      3433  TIP3      OH2            30.1332312142      -18.8287157020        9.6134213663  W2        4109            0.0000000000
     10298      3433  TIP3      H1             30.9992512142      -18.4619757020        9.4352413663  W2        4109            0.0000000000
     10299      3433  TIP3      H2             29.8865112142      -19.2679157020        8.7995013663  W2        4109            0.0000000000
     10300      3434  TIP3      OH2            23.0870012142      -19.1181257020        8.2410113663  W2        4112            0.0000000000
     10301      3434  TIP3      H1             22.8194612142      -18.8318357020        9.1143213663  W2        4112            0.0000000000
     10302      3434  TIP3      H2             23.8582612142      -19.6642057020        8.3932613663  W2        4112            0.0000000000
     10303      3435  TIP3      OH2           -26.1829787858      -10.0705757020        8.9639613663  W2        4145            0.0000000000
     10304      3435  TIP3      H1            -25.4819887858      -10.0478857020        9.6153613663  W2        4145            0.0000000000
     10305      3435  TIP3      H2            -25.8806887858      -10.6986057020        8.3078913663  W2        4145            0.0000000000
     10306      3436  TIP3      OH2           -23.9601787858       -9.1563857020       10.5621713663  W2        4154            0.0000000000
     10307      3436  TIP3      H1            -23.3806287858       -9.0063557020       11.3090613663  W2        4154            0.0000000000
     10308      3436  TIP3      H2            -23.5461787858       -8.6856457020        9.8388113663  W2        4154            0.0000000000
     10309      3437  TIP3      OH2           -20.2613387858      -17.4063457020       10.3751413663  W2        4158            0.0000000000
     10310      3437  TIP3      H1            -21.1612687858      -17.2674457020       10.6702013663  W2        4158            0.0000000000
     10311      3437  TIP3      H2            -20.0094987858      -16.5748857020        9.9733113663  W2        4158            0.0000000000
     10312      3438  TIP3      OH2           -19.0721987858       -3.0401057020        8.7515313663  W2        4160            0.0000000000
     10313      3438  TIP3      H1            -18.9988487858       -2.1010857020        8.9220613663  W2        4160            0.0000000000
     10314      3438  TIP3      H2            -18.1666887858       -3.3452457020        8.6952613663  W2        4160            0.0000000000
     10315      3439  TIP3      OH2           -23.6597787858       -0.3090457020        9.4146413663  W2        4167            0.0000000000
     10316      3439  TIP3      H1            -23.2849387858       -1.0534357020        8.9439013663  W2        4167            0.0000000000
     10317      3439  TIP3      H2            -23.6554087858       -0.5789857020       10.3329713663  W2        4167            0.0000000000
     10318      3440  TIP3      OH2           -22.4828687858       -8.1235557020        8.1919613663  W2        4174            0.0000000000
     10319      3440  TIP3      H1            -22.4407887858       -8.3461657020        7.2619613663  W2        4174            0.0000000000
     10320      3440  TIP3      H2            -21.6336587858       -7.7248457020        8.3819513663  W2        4174            0.0000000000
     10321      3441  TIP3      OH2           -26.9101187858      -14.2477357020        8.8622913663  W2        4175            0.0000000000
     10322      3441  TIP3      H1            -27.1636387858      -14.2285757020        9.7851013663  W2        4175            0.0000000000
     10323      3441  TIP3      H2            -27.1669087858      -15.1191957020        8.5609113663  W2        4175            0.0000000000
     10324      3442  TIP3      OH2           -30.0278287858      -13.8020857020        7.9633313663  W2        4182            0.0000000000
     10325      3442  TIP3      H1            -30.4587587858      -14.2470757020        8.6930713663  W2        4182            0.0000000000
     10326      3442  TIP3      H2            -30.7459587858      -13.4304557020        7.4510813663  W2        4182            0.0000000000
     10327      3443  TIP3      OH2           -35.5112787858      -13.3139357020       10.4392413663  W2        4184            0.0000000000
     10328      3443  TIP3      H1            -35.0371087858      -12.7229457020        9.8543313663  W2        4184            0.0000000000
     10329      3443  TIP3      H2            -36.2286387858      -12.7836457020       10.7862513663  W2        4184            0.0000000000
     10330      3444  TIP3      OH2           -31.4096387858      -11.0247957020        9.3457713663  W2        4190            0.0000000000
     10331      3444  TIP3      H1            -31.9521287858      -11.4044157020        8.6545313663  W2        4190            0.0000000000
     10332      3444  TIP3      H2            -30.5761487858      -10.8303257020        8.9171813663  W2        4190            0.0000000000
     10333      3445  TIP3      OH2           -24.1766787858      -13.6452357020        9.4808413663  W2        4198            0.0000000000
     10334      3445  TIP3      H1            -25.1152587858      -13.5336757020        9.3297213663  W2        4198            0.0000000000
     10335      3445  TIP3      H2            -23.8794687858      -12.7885457020        9.7874113663  W2        4198            0.0000000000
     10336      3446  TIP3      OH2           -23.4583287858      -11.7779657020       11.1415813663  W2        4200            0.0000000000
     10337      3446  TIP3      H1            -22.5664287858      -11.9154657020       11.4607013663  W2        4200            0.0000000000
     10338      3446  TIP3      H2            -23.4019687858      -10.9873557020       10.6049313663  W2        4200            0.0000000000
     10339      3447  TIP3      OH2           -25.9489487858       -5.0007957020       10.3070413663  W2        4202            0.0000000000
     10340      3447  TIP3      H1            -26.2441087858       -4.1740057020       10.6885213663  W2        4202            0.0000000000
     10341      3447  TIP3      H2            -26.6519487858       -5.6201057020       10.5031813663  W2        4202            0.0000000000
     10342      3448  TIP3      OH2           -18.5734587858      -11.5685557020       10.8362513663  W2        4206            0.0000000000
     10343      3448  TIP3      H1            -19.1278287858      -11.9647557020       10.1640013663  W2        4206            0.0000000000
     10344      3448  TIP3      H2            -18.4730987858      -10.6580357020       10.5585813663  W2        4206            0.0000000000
     10345      3449  TIP3      OH2           -34.8198187858       -8.7839957020        9.0427613663  W2        4211            0.0000000000
     10346      3449  TIP3      H1            -34.2038287858       -8.1572757020        9.4222413663  W2        4211            0.0000000000
     10347      3449  TIP3      H2            -35.6815587858       -8.4680157020        9.3144113663  W2        4211            0.0000000000
     10348      3450  TIP3      OH2           -22.8857287858       -4.8059357020        9.1215213663  W2        4216            0.0000000000
     10349      3450  TIP3      H1            -22.5324187858       -5.1859557020        9.9258713663  W2        4216            0.0000000000
     10350      3450  TIP3      H2            -23.8343787858       -4.8994557020        9.2084513663  W2        4216            0.0000000000
     10351      3451  TIP3      OH2           -18.3822887858       -0.3266857020        9.3225413663  W2        4218            0.0000000000
     10352      3451  TIP3      H1            -17.6384987858        0.2593642980        9.1827013663  W2        4218            0.0000000000
     10353      3451  TIP3      H2            -19.0764787858        0.2418942980        9.6557813663  W2        4218            0.0000000000
     10354      3452  TIP3      OH2           -28.7949487858       -3.6943257020        7.5685213663  W2        4222            0.0000000000
     10355      3452  TIP3      H1            -28.5559687858       -4.4425157020        7.0214113663  W2        4222            0.0000000000
     10356      3452  TIP3      H2            -29.0638187858       -4.0821557020        8.4013013663  W2        4222            0.0000000000
     10357      3453  TIP3      OH2           -29.8578887858       -4.1239457020       10.0247813663  W2        4223            0.0000000000
     10358      3453  TIP3      H1            -29.7110887858       -4.6439657020       10.8148713663  W2        4223            0.0000000000
     10359      3453  TIP3      H2            -29.8607187858       -3.2171857020       10.3313713663  W2        4223            0.0000000000
     10360      3454  TIP3      OH2           -33.4047787858       -6.8716157020       10.5353213663  W2        4224            0.0000000000
     10361      3454  TIP3      H1            -34.0908487858       -6.5193657020       11.1022913663  W2        4224            0.0000000000
     10362      3454  TIP3      H2            -32.8819887858       -6.1086557020       10.2887513663  W2        4224            0.0000000000
     10363      3455  TIP3      OH2           -27.1201687858       -2.4265857020       10.7742013663  W2        4227            0.0000000000
     10364      3455  TIP3      H1            -27.9365587858       -1.9296157020       10.8266313663  W2        4227            0.0000000000
     10365      3455  TIP3      H2            -26.5905387858       -1.9512357020       10.1340813663  W2        4227            0.0000000000
     10366      3456  TIP3      OH2           -29.7818587858       -1.3828657020       10.7558913663  W2        4231            0.0000000000
     10367      3456  TIP3      H1            -29.6209887858       -0.5831157020       10.2551513663  W2        4231            0.0000000000
     10368      3456  TIP3      H2            -29.9790787858       -1.0762657020       11.6409513663  W2        4231            0.0000000000
     10369      3457  TIP3      OH2           -31.0474187858      -14.6849457020       10.3716513663  W2        4232            0.0000000000
     10370      3457  TIP3      H1            -31.1309387858      -13.7966357020       10.7182913663  W2        4232            0.0000000000
     10371      3457  TIP3      H2            -30.1573887858      -14.9502757020       10.6033313663  W2        4232            0.0000000000
     10372      3458  TIP3      OH2           -32.7888887858       -4.2577257020        9.4321013663  W2        4235            0.0000000000
     10373      3458  TIP3      H1            -32.1967387858       -3.5582457020        9.7083413663  W2        4235            0.0000000000
     10374      3458  TIP3      H2            -32.3295887858       -4.6907757020        8.7125613663  W2        4235            0.0000000000
     10375      3459  TIP3      OH2           -34.4729687858      -11.5934257020        8.5480413663  W2        4236            0.0000000000
     10376      3459  TIP3      H1            -34.5177087858      -10.6541157020        8.7267413663  W2        4236            0.0000000000
     10377      3459  TIP3      H2            -35.3606487858      -11.8289357020        8.2782513663  W2        4236            0.0000000000
     10378      3460  TIP3      OH2           -26.7567687858       -1.8311857020        7.7071213663  W2        4242            0.0000000000
     10379      3460  TIP3      H1            -27.4006687858       -2.4623257020        8.0284913663  W2        4242            0.0000000000
     10380      3460  TIP3      H2            -25.9949387858       -2.3623857020        7.4754713663  W2        4242            0.0000000000
     10381      3461  TIP3      OH2           -22.1524787858       -2.0141957020        7.9409213663  W2        4244            0.0000000000
     10382      3461  TIP3      H1            -21.8694387858       -2.8086757020        8.3936113663  W2        4244            0.0000000000
     10383      3461  TIP3      H2            -21.4126887858       -1.7810957020        7.3800313663  W2        4244            0.0000000000
     10384      3462  TIP3      OH2           -31.1977487858       -6.1047057020        7.7984113663  W2        4246            0.0000000000
     10385      3462  TIP3      H1            -31.1333387858       -6.8987457020        8.3290513663  W2        4246            0.0000000000
     10386      3462  TIP3      H2            -30.5448287858       -6.2234257020        7.1086113663  W2        4246            0.0000000000
     10387      3463  TIP3      OH2           -25.8454087858       -5.0575357020        7.5342113663  W2        4248            0.0000000000
     10388      3463  TIP3      H1            -26.1139987858       -4.8773257020        8.4351013663  W2        4248            0.0000000000
     10389      3463  TIP3      H2            -26.0518487858       -5.9829157020        7.4027913663  W2        4248            0.0000000000
     10390      3464  TIP3      OH2           -30.0483687858       -8.1320857020       10.1042113663  W2        4251            0.0000000000
     10391      3464  TIP3      H1            -30.5081687858       -8.6162557020       10.7900613663  W2        4251            0.0000000000
     10392      3464  TIP3      H2            -29.7934987858       -8.8005457020        9.4682613663  W2        4251            0.0000000000
     10393      3465  TIP3      OH2           -28.9773287858       -9.8889057020        8.3665313663  W2        4253            0.0000000000
     10394      3465  TIP3      H1            -29.1578287858      -10.0437857020        7.4393613663  W2        4253            0.0000000000
     10395      3465  TIP3      H2            -28.0272787858       -9.7810357020        8.4113213663  W2        4253            0.0000000000
     10396      3466  TIP3      OH2           -19.5874987858       -7.5344857020        7.8123413663  W2        4255            0.0000000000
     10397      3466  TIP3      H1            -19.8610187858       -7.9589357020        6.9991713663  W2        4255            0.0000000000
     10398      3466  TIP3      H2            -19.5480887858       -6.6030357020        7.5953813663  W2        4255            0.0000000000
     10399      3467  TIP3      OH2           -29.0801587858        0.8014642980        9.3678913663  W2        4269            0.0000000000
     10400      3467  TIP3      H1            -28.1470887858        0.9593342980        9.5117313663  W2        4269            0.0000000000
     10401      3467  TIP3      H2            -29.3442787858        1.4767642980        8.7430413663  W2        4269            0.0000000000
     10402      3468  TIP3      OH2           -35.5116687858       -4.5621557020        8.8507013663  W2        4270            0.0000000000
     10403      3468  TIP3      H1            -34.5977487858       -4.4832657020        9.1240913663  W2        4270            0.0000000000
     10404      3468  TIP3      H2            -35.5043587858       -5.2491957020        8.1842613663  W2        4270            0.0000000000
     10405      3469  TIP3      OH2           -18.4663487858       -8.7110857020       10.0020813663  W2        4280            0.0000000000
     10406      3469  TIP3      H1            -18.9882387858       -8.3546757020        9.2831713663  W2        4280            0.0000000000
     10407      3469  TIP3      H2            -18.4994287858       -8.0363057020       10.6801713663  W2        4280            0.0000000000
     10408      3470  TIP3      OH2           -20.1174487858      -11.4715257020        8.5527913663  W2        4281            0.0000000000
     10409      3470  TIP3      H1            -20.0210087858      -10.8048257020        7.8727613663  W2        4281            0.0000000000
     10410      3470  TIP3      H2            -20.2574887858      -12.2868957020        8.0713413663  W2        4281            0.0000000000
     10411      3471  TIP3      OH2           -20.8700687858      -14.0635457020        7.6703413663  W2        4286            0.0000000000
     10412      3471  TIP3      H1            -20.2594887858      -14.4348657020        8.3071613663  W2        4286            0.0000000000
     10413      3471  TIP3      H2            -21.7069187858      -14.4848557020        7.8663413663  W2        4286            0.0000000000
     10414      3472  TIP3      OH2           -18.7573987858      -15.1779657020        9.2125613663  W2        4296            0.0000000000
     10415      3472  TIP3      H1            -18.3451387858      -15.8993957020        8.7373613663  W2        4296            0.0000000000
     10416      3472  TIP3      H2            -18.0757487858      -14.5085057020        9.2709913663  W2        4296            0.0000000000
     10417      3473  TIP3      OH2           -35.2000687858      -17.1304257020       10.3182913663  W2        4317            0.0000000000
     10418      3473  TIP3      H1            -34.7609987858      -16.5193757020        9.7266413663  W2        4317            0.0000000000
     10419      3473  TIP3      H2            -35.8338287858      -16.5920157020       10.7922913663  W2        4317            0.0000000000
     10420      3474  TIP3      OH2           -33.3391587858      -15.2142757020        8.7607013663  W2        4322            0.0000000000
     10421      3474  TIP3      H1            -32.8478187858      -15.8440357020        8.2332513663  W2        4322            0.0000000000
     10422      3474  TIP3      H2            -32.7155287858      -14.9183357020        9.4238213663  W2        4322            0.0000000000
     10423      3475  TIP3      OH2           -26.4347687858        0.0272842980        9.6134213663  W2        4324            0.0000000000
     10424      3475  TIP3      H1            -25.5687487858        0.3940242980        9.4352413663  W2        4324            0.0000000000
     10425      3475  TIP3      H2            -26.6814887858       -0.4119157020        8.7995013663  W2        4324            0.0000000000
     10426      3476  TIP3      OH2           -33.4809987858       -0.2621257020        8.2410113663  W2        4328            0.0000000000
     10427      3476  TIP3      H1            -33.7485387858        0.0241642980        9.1143213663  W2        4328            0.0000000000
     10428      3476  TIP3      H2            -32.7097387858       -0.8082057020        8.3932613663  W2        4328            0.0000000000
     10429      3477  TIP3      OH2            -7.3269787858      -10.0705757020        8.9639613663  W2        4361            0.0000000000
     10430      3477  TIP3      H1             -6.6259887858      -10.0478857020        9.6153613663  W2        4361            0.0000000000
     10431      3477  TIP3      H2             -7.0246887858      -10.6986057020        8.3078913663  W2        4361            0.0000000000
     10432      3478  TIP3      OH2            -5.1041787858       -9.1563857020       10.5621713663  W2        4370            0.0000000000
     10433      3478  TIP3      H1             -4.5246287858       -9.0063557020       11.3090613663  W2        4370            0.0000000000
     10434      3478  TIP3      H2             -4.6901787858       -8.6856457020        9.8388113663  W2        4370            0.0000000000
     10435      3479  TIP3      OH2            -1.4053387858      -17.4063457020       10.3751413663  W2        4374            0.0000000000
     10436      3479  TIP3      H1             -2.3052687858      -17.2674457020       10.6702013663  W2        4374            0.0000000000
     10437      3479  TIP3      H2             -1.1534987858      -16.5748857020        9.9733113663  W2        4374            0.0000000000
     10438      3480  TIP3      OH2            -0.2161987858       -3.0401057020        8.7515313663  W2        4376            0.0000000000
     10439      3480  TIP3      H1             -0.1428487858       -2.1010857020        8.9220613663  W2        4376            0.0000000000
     10440      3480  TIP3      H2              0.6893112142       -3.3452457020        8.6952613663  W2        4376            0.0000000000
     10441      3481  TIP3      OH2            -4.8037787858       -0.3090457020        9.4146413663  W2        4383            0.0000000000
     10442      3481  TIP3      H1             -4.4289387858       -1.0534357020        8.9439013663  W2        4383            0.0000000000
     10443      3481  TIP3      H2             -4.7994087858       -0.5789857020       10.3329713663  W2        4383            0.0000000000
     10444      3482  TIP3      OH2            -3.6268687858       -8.1235557020        8.1919613663  W2        4390            0.0000000000
     10445      3482  TIP3      H1             -3.5847887858       -8.3461657020        7.2619613663  W2        4390            0.0000000000
     10446      3482  TIP3      H2             -2.7776587858       -7.7248457020        8.3819513663  W2        4390            0.0000000000
     10447      3483  TIP3      OH2            -8.0541187858      -14.2477357020        8.8622913663  W2        4391            0.0000000000
     10448      3483  TIP3      H1             -8.3076387858      -14.2285757020        9.7851013663  W2        4391            0.0000000000
     10449      3483  TIP3      H2             -8.3109087858      -15.1191957020        8.5609113663  W2        4391            0.0000000000
     10450      3484  TIP3      OH2           -11.1718287858      -13.8020857020        7.9633313663  W2        4398            0.0000000000
     10451      3484  TIP3      H1            -11.6027587858      -14.2470757020        8.6930713663  W2        4398            0.0000000000
     10452      3484  TIP3      H2            -11.8899587858      -13.4304557020        7.4510813663  W2        4398            0.0000000000
     10453      3485  TIP3      OH2           -16.6552787858      -13.3139357020       10.4392413663  W2        4400            0.0000000000
     10454      3485  TIP3      H1            -16.1811087858      -12.7229457020        9.8543313663  W2        4400            0.0000000000
     10455      3485  TIP3      H2            -17.3726387858      -12.7836457020       10.7862513663  W2        4400            0.0000000000
     10456      3486  TIP3      OH2           -12.5536387858      -11.0247957020        9.3457713663  W2        4406            0.0000000000
     10457      3486  TIP3      H1            -13.0961287858      -11.4044157020        8.6545313663  W2        4406            0.0000000000
     10458      3486  TIP3      H2            -11.7201487858      -10.8303257020        8.9171813663  W2        4406            0.0000000000
     10459      3487  TIP3      OH2            -5.3206787858      -13.6452357020        9.4808413663  W2        4414            0.0000000000
     10460      3487  TIP3      H1             -6.2592587858      -13.5336757020        9.3297213663  W2        4414            0.0000000000
     10461      3487  TIP3      H2             -5.0234687858      -12.7885457020        9.7874113663  W2        4414            0.0000000000
     10462      3488  TIP3      OH2            -4.6023287858      -11.7779657020       11.1415813663  W2        4416            0.0000000000
     10463      3488  TIP3      H1             -3.7104287858      -11.9154657020       11.4607013663  W2        4416            0.0000000000
     10464      3488  TIP3      H2             -4.5459687858      -10.9873557020       10.6049313663  W2        4416            0.0000000000
     10465      3489  TIP3      OH2            -7.0929487858       -5.0007957020       10.3070413663  W2        4418            0.0000000000
     10466      3489  TIP3      H1             -7.3881087858       -4.1740057020       10.6885213663  W2        4418            0.0000000000
     10467      3489  TIP3      H2             -7.7959487858       -5.6201057020       10.5031813663  W2        4418            0.0000000000
     10468      3490  TIP3      OH2             0.2825412142      -11.5685557020       10.8362513663  W2        4422            0.0000000000
     10469      3490  TIP3      H1             -0.2718287858      -11.9647557020       10.1640013663  W2        4422            0.0000000000
     10470      3490  TIP3      H2              0.3829012142      -10.6580357020       10.5585813663  W2        4422            0.0000000000
     10471      3491  TIP3      OH2           -15.9638187858       -8.7839957020        9.0427613663  W2        4427            0.0000000000
     10472      3491  TIP3      H1            -15.3478287858       -8.1572757020        9.4222413663  W2        4427            0.0000000000
     10473      3491  TIP3      H2            -16.8255587858       -8.4680157020        9.3144113663  W2        4427            0.0000000000
     10474      3492  TIP3      OH2            -4.0297287858       -4.8059357020        9.1215213663  W2        4432            0.0000000000
     10475      3492  TIP3      H1             -3.6764187858       -5.1859557020        9.9258713663  W2        4432            0.0000000000
     10476      3492  TIP3      H2             -4.9783787858       -4.8994557020        9.2084513663  W2        4432            0.0000000000
     10477      3493  TIP3      OH2             0.4737112142       -0.3266857020        9.3225413663  W2        4434            0.0000000000
     10478      3493  TIP3      H1              1.2175012142        0.2593642980        9.1827013663  W2        4434            0.0000000000
     10479      3493  TIP3      H2             -0.2204787858        0.2418942980        9.6557813663  W2        4434            0.0000000000
     10480      3494  TIP3      OH2            -9.9389487858       -3.6943257020        7.5685213663  W2        4438            0.0000000000
     10481      3494  TIP3      H1             -9.6999687858       -4.4425157020        7.0214113663  W2        4438            0.0000000000
     10482      3494  TIP3      H2            -10.2078187858       -4.0821557020        8.4013013663  W2        4438            0.0000000000
     10483      3495  TIP3      OH2           -11.0018887858       -4.1239457020       10.0247813663  W2        4439            0.0000000000
     10484      3495  TIP3      H1            -10.8550887858       -4.6439657020       10.8148713663  W2        4439            0.0000000000
     10485      3495  TIP3      H2            -11.0047187858       -3.2171857020       10.3313713663  W2        4439            0.0000000000
     10486      3496  TIP3      OH2           -14.5487787858       -6.8716157020       10.5353213663  W2        4440            0.0000000000
     10487      3496  TIP3      H1            -15.2348487858       -6.5193657020       11.1022913663  W2        4440            0.0000000000
     10488      3496  TIP3      H2            -14.0259887858       -6.1086557020       10.2887513663  W2        4440            0.0000000000
     10489      3497  TIP3      OH2            -8.2641687858       -2.4265857020       10.7742013663  W2        4443            0.0000000000
     10490      3497  TIP3      H1             -9.0805587858       -1.9296157020       10.8266313663  W2        4443            0.0000000000
     10491      3497  TIP3      H2             -7.7345387858       -1.9512357020       10.1340813663  W2        4443            0.0000000000
     10492      3498  TIP3      OH2           -10.9258587858       -1.3828657020       10.7558913663  W2        4447            0.0000000000
     10493      3498  TIP3      H1            -10.7649887858       -0.5831157020       10.2551513663  W2        4447            0.0000000000
     10494      3498  TIP3      H2            -11.1230787858       -1.0762657020       11.6409513663  W2        4447            0.0000000000
     10495      3499  TIP3      OH2           -12.1914187858      -14.6849457020       10.3716513663  W2        4448            0.0000000000
     10496      3499  TIP3      H1            -12.2749387858      -13.7966357020       10.7182913663  W2        4448            0.0000000000
     10497      3499  TIP3      H2            -11.3013887858      -14.9502757020       10.6033313663  W2        4448            0.0000000000
     10498      3500  TIP3      OH2           -13.9328887858       -4.2577257020        9.4321013663  W2        4451            0.0000000000
     10499      3500  TIP3      H1            -13.3407387858       -3.5582457020        9.7083413663  W2        4451            0.0000000000
     10500      3500  TIP3      H2            -13.4735887858       -4.6907757020        8.7125613663  W2        4451            0.0000000000
     10501      3501  TIP3      OH2           -15.6169687858      -11.5934257020        8.5480413663  W2        4452            0.0000000000
     10502      3501  TIP3      H1            -15.6617087858      -10.6541157020        8.7267413663  W2        4452            0.0000000000
     10503      3501  TIP3      H2            -16.5046487858      -11.8289357020        8.2782513663  W2        4452            0.0000000000
     10504      3502  TIP3      OH2            -7.9007687858       -1.8311857020        7.7071213663  W2        4458            0.0000000000
     10505      3502  TIP3      H1             -8.5446687858       -2.4623257020        8.0284913663  W2        4458            0.0000000000
     10506      3502  TIP3      H2             -7.1389387858       -2.3623857020        7.4754713663  W2        4458            0.0000000000
     10507      3503  TIP3      OH2            -3.2964787858       -2.0141957020        7.9409213663  W2        4460            0.0000000000
     10508      3503  TIP3      H1             -3.0134387858       -2.8086757020        8.3936113663  W2        4460            0.0000000000
     10509      3503  TIP3      H2             -2.5566887858       -1.7810957020        7.3800313663  W2        4460            0.0000000000
     10510      3504  TIP3      OH2           -12.3417487858       -6.1047057020        7.7984113663  W2        4462            0.0000000000
     10511      3504  TIP3      H1            -12.2773387858       -6.8987457020        8.3290513663  W2        4462            0.0000000000
     10512      3504  TIP3      H2            -11.6888287858       -6.2234257020        7.1086113663  W2        4462            0.0000000000
     10513      3505  TIP3      OH2            -6.9894087858       -5.0575357020        7.5342113663  W2        4464            0.0000000000
     10514      3505  TIP3      H1             -7.2579987858       -4.8773257020        8.4351013663  W2        4464            0.0000000000
     10515      3505  TIP3      H2             -7.1958487858       -5.9829157020        7.4027913663  W2        4464            0.0000000000
     10516      3506  TIP3      OH2           -11.1923687858       -8.1320857020       10.1042113663  W2        4467            0.0000000000
     10517      3506  TIP3      H1            -11.6521687858       -8.6162557020       10.7900613663  W2        4467            0.0000000000
     10518      3506  TIP3      H2            -10.9374987858       -8.8005457020        9.4682613663  W2        4467            0.0000000000
     10519      3507  TIP3      OH2           -10.1213287858       -9.8889057020        8.3665313663  W2        4469            0.0000000000
     10520      3507  TIP3      H1            -10.3018287858      -10.0437857020        7.4393613663  W2        4469            0.0000000000
     10521      3507  TIP3      H2             -9.1712787858       -9.7810357020        8.4113213663  W2        4469            0.0000000000
     10522      3508  TIP3      OH2            -0.7314987858       -7.5344857020        7.8123413663  W2        4471            0.0000000000
     10523      3508  TIP3      H1             -1.0050187858       -7.9589357020        6.9991713663  W2        4471            0.0000000000
     10524      3508  TIP3      H2             -0.6920887858       -6.6030357020        7.5953813663  W2        4471            0.0000000000
     10525      3509  TIP3      OH2           -10.2241587858        0.8014642980        9.3678913663  W2        4485            0.0000000000
     10526      3509  TIP3      H1             -9.2910887858        0.9593342980        9.5117313663  W2        4485            0.0000000000
     10527      3509  TIP3      H2            -10.4882787858        1.4767642980        8.7430413663  W2        4485            0.0000000000
     10528      3510  TIP3      OH2           -16.6556687858       -4.5621557020        8.8507013663  W2        4486            0.0000000000
     10529      3510  TIP3      H1            -15.7417487858       -4.4832657020        9.1240913663  W2        4486            0.0000000000
     10530      3510  TIP3      H2            -16.6483587858       -5.2491957020        8.1842613663  W2        4486            0.0000000000
     10531      3511  TIP3      OH2             0.3896512142       -8.7110857020       10.0020813663  W2        4496            0.0000000000
     10532      3511  TIP3      H1             -0.1322387858       -8.3546757020        9.2831713663  W2        4496            0.0000000000
     10533      3511  TIP3      H2              0.3565712142       -8.0363057020       10.6801713663  W2        4496            0.0000000000
     10534      3512  TIP3      OH2            -1.2614487858      -11.4715257020        8.5527913663  W2        4497            0.0000000000
     10535      3512  TIP3      H1             -1.1650087858      -10.8048257020        7.8727613663  W2        4497            0.0000000000
     10536      3512  TIP3      H2             -1.4014887858      -12.2868957020        8.0713413663  W2        4497            0.0000000000
     10537      3513  TIP3      OH2            -2.0140687858      -14.0635457020        7.6703413663  W2        4502            0.0000000000
     10538      3513  TIP3      H1             -1.4034887858      -14.4348657020        8.3071613663  W2        4502            0.0000000000
     10539      3513  TIP3      H2             -2.8509187858      -14.4848557020        7.8663413663  W2        4502            0.0000000000
     10540      3514  TIP3      OH2             0.0986012142      -15.1779657020        9.2125613663  W2        4512            0.0000000000
     10541      3514  TIP3      H1              0.5108612142      -15.8993957020        8.7373613663  W2        4512            0.0000000000
     10542      3514  TIP3      H2              0.7802512142      -14.5085057020        9.2709913663  W2        4512            0.0000000000
     10543      3515  TIP3      OH2           -16.3440687858      -17.1304257020       10.3182913663  W2        4533            0.0000000000
     10544      3515  TIP3      H1            -15.9049987858      -16.5193757020        9.7266413663  W2        4533            0.0000000000
     10545      3515  TIP3      H2            -16.9778287858      -16.5920157020       10.7922913663  W2        4533            0.0000000000
     10546      3516  TIP3      OH2           -14.4831587858      -15.2142757020        8.7607013663  W2        4538            0.0000000000
     10547      3516  TIP3      H1            -13.9918187858      -15.8440357020        8.2332513663  W2        4538            0.0000000000
     10548      3516  TIP3      H2            -13.8595287858      -14.9183357020        9.4238213663  W2        4538            0.0000000000
     10549      3517  TIP3      OH2            -7.5787687858        0.0272842980        9.6134213663  W2        4540            0.0000000000
     10550      3517  TIP3      H1             -6.7127487858        0.3940242980        9.4352413663  W2        4540            0.0000000000
     10551      3517  TIP3      H2             -7.8254887858       -0.4119157020        8.7995013663  W2        4540            0.0000000000
     10552      3518  TIP3      OH2           -14.6249987858       -0.2621257020        8.2410113663  W2        4544            0.0000000000
     10553      3518  TIP3      H1            -14.8925387858        0.0241642980        9.1143213663  W2        4544            0.0000000000
     10554      3518  TIP3      H2            -13.8537387858       -0.8082057020        8.3932613663  W2        4544            0.0000000000
     10555      3519  TIP3      OH2            11.5290212142      -10.0705757020        8.9639613663  W2        4577            0.0000000000
     10556      3519  TIP3      H1             12.2300112142      -10.0478857020        9.6153613663  W2        4577            0.0000000000
     10557      3519  TIP3      H2             11.8313112142      -10.6986057020        8.3078913663  W2        4577            0.0000000000
     10558      3520  TIP3      OH2            13.7518212142       -9.1563857020       10.5621713663  W2        4586            0.0000000000
     10559      3520  TIP3      H1             14.3313712142       -9.0063557020       11.3090613663  W2        4586            0.0000000000
     10560      3520  TIP3      H2             14.1658212142       -8.6856457020        9.8388113663  W2        4586            0.0000000000
     10561      3521  TIP3      OH2            17.4506612142      -17.4063457020       10.3751413663  W2        4590            0.0000000000
     10562      3521  TIP3      H1             16.5507312142      -17.2674457020       10.6702013663  W2        4590            0.0000000000
     10563      3521  TIP3      H2             17.7025012142      -16.5748857020        9.9733113663  W2        4590            0.0000000000
     10564      3522  TIP3      OH2            18.6398012142       -3.0401057020        8.7515313663  W2        4592            0.0000000000
     10565      3522  TIP3      H1             18.7131512142       -2.1010857020        8.9220613663  W2        4592            0.0000000000
     10566      3522  TIP3      H2             19.5453112142       -3.3452457020        8.6952613663  W2        4592            0.0000000000
     10567      3523  TIP3      OH2            14.0522212142       -0.3090457020        9.4146413663  W2        4599            0.0000000000
     10568      3523  TIP3      H1             14.4270612142       -1.0534357020        8.9439013663  W2        4599            0.0000000000
     10569      3523  TIP3      H2             14.0565912142       -0.5789857020       10.3329713663  W2        4599            0.0000000000
     10570      3524  TIP3      OH2            15.2291312142       -8.1235557020        8.1919613663  W2        4606            0.0000000000
     10571      3524  TIP3      H1             15.2712112142       -8.3461657020        7.2619613663  W2        4606            0.0000000000
     10572      3524  TIP3      H2             16.0783412142       -7.7248457020        8.3819513663  W2        4606            0.0000000000
     10573      3525  TIP3      OH2            10.8018812142      -14.2477357020        8.8622913663  W2        4607            0.0000000000
     10574      3525  TIP3      H1             10.5483612142      -14.2285757020        9.7851013663  W2        4607            0.0000000000
     10575      3525  TIP3      H2             10.5450912142      -15.1191957020        8.5609113663  W2        4607            0.0000000000
     10576      3526  TIP3      OH2             7.6841712142      -13.8020857020        7.9633313663  W2        4614            0.0000000000
     10577      3526  TIP3      H1              7.2532412142      -14.2470757020        8.6930713663  W2        4614            0.0000000000
     10578      3526  TIP3      H2              6.9660412142      -13.4304557020        7.4510813663  W2        4614            0.0000000000
     10579      3527  TIP3      OH2             2.2007212142      -13.3139357020       10.4392413663  W2        4616            0.0000000000
     10580      3527  TIP3      H1              2.6748912142      -12.7229457020        9.8543313663  W2        4616            0.0000000000
     10581      3527  TIP3      H2              1.4833612142      -12.7836457020       10.7862513663  W2        4616            0.0000000000
     10582      3528  TIP3      OH2             6.3023612142      -11.0247957020        9.3457713663  W2        4622            0.0000000000
     10583      3528  TIP3      H1              5.7598712142      -11.4044157020        8.6545313663  W2        4622            0.0000000000
     10584      3528  TIP3      H2              7.1358512142      -10.8303257020        8.9171813663  W2        4622            0.0000000000
     10585      3529  TIP3      OH2            13.5353212142      -13.6452357020        9.4808413663  W2        4630            0.0000000000
     10586      3529  TIP3      H1             12.5967412142      -13.5336757020        9.3297213663  W2        4630            0.0000000000
     10587      3529  TIP3      H2             13.8325312142      -12.7885457020        9.7874113663  W2        4630            0.0000000000
     10588      3530  TIP3      OH2            14.2536712142      -11.7779657020       11.1415813663  W2        4632            0.0000000000
     10589      3530  TIP3      H1             15.1455712142      -11.9154657020       11.4607013663  W2        4632            0.0000000000
     10590      3530  TIP3      H2             14.3100312142      -10.9873557020       10.6049313663  W2        4632            0.0000000000
     10591      3531  TIP3      OH2            11.7630512142       -5.0007957020       10.3070413663  W2        4634            0.0000000000
     10592      3531  TIP3      H1             11.4678912142       -4.1740057020       10.6885213663  W2        4634            0.0000000000
     10593      3531  TIP3      H2             11.0600512142       -5.6201057020       10.5031813663  W2        4634            0.0000000000
     10594      3532  TIP3      OH2            19.1385412142      -11.5685557020       10.8362513663  W2        4638            0.0000000000
     10595      3532  TIP3      H1             18.5841712142      -11.9647557020       10.1640013663  W2        4638            0.0000000000
     10596      3532  TIP3      H2             19.2389012142      -10.6580357020       10.5585813663  W2        4638            0.0000000000
     10597      3533  TIP3      OH2             2.8921812142       -8.7839957020        9.0427613663  W2        4643            0.0000000000
     10598      3533  TIP3      H1              3.5081712142       -8.1572757020        9.4222413663  W2        4643            0.0000000000
     10599      3533  TIP3      H2              2.0304412142       -8.4680157020        9.3144113663  W2        4643            0.0000000000
     10600      3534  TIP3      OH2            14.8262712142       -4.8059357020        9.1215213663  W2        4648            0.0000000000
     10601      3534  TIP3      H1             15.1795812142       -5.1859557020        9.9258713663  W2        4648            0.0000000000
     10602      3534  TIP3      H2             13.8776212142       -4.8994557020        9.2084513663  W2        4648            0.0000000000
     10603      3535  TIP3      OH2            19.3297112142       -0.3266857020        9.3225413663  W2        4650            0.0000000000
     10604      3535  TIP3      H1             20.0735012142        0.2593642980        9.1827013663  W2        4650            0.0000000000
     10605      3535  TIP3      H2             18.6355212142        0.2418942980        9.6557813663  W2        4650            0.0000000000
     10606      3536  TIP3      OH2             8.9170512142       -3.6943257020        7.5685213663  W2        4654            0.0000000000
     10607      3536  TIP3      H1              9.1560312142       -4.4425157020        7.0214113663  W2        4654            0.0000000000
     10608      3536  TIP3      H2              8.6481812142       -4.0821557020        8.4013013663  W2        4654            0.0000000000
     10609      3537  TIP3      OH2             7.8541112142       -4.1239457020       10.0247813663  W2        4655            0.0000000000
     10610      3537  TIP3      H1              8.0009112142       -4.6439657020       10.8148713663  W2        4655            0.0000000000
     10611      3537  TIP3      H2              7.8512812142       -3.2171857020       10.3313713663  W2        4655            0.0000000000
     10612      3538  TIP3      OH2             4.3072212142       -6.8716157020       10.5353213663  W2        4656            0.0000000000
     10613      3538  TIP3      H1              3.6211512142       -6.5193657020       11.1022913663  W2        4656            0.0000000000
     10614      3538  TIP3      H2              4.8300112142       -6.1086557020       10.2887513663  W2        4656            0.0000000000
     10615      3539  TIP3      OH2            10.5918312142       -2.4265857020       10.7742013663  W2        4659            0.0000000000
     10616      3539  TIP3      H1              9.7754412142       -1.9296157020       10.8266313663  W2        4659            0.0000000000
     10617      3539  TIP3      H2             11.1214612142       -1.9512357020       10.1340813663  W2        4659            0.0000000000
     10618      3540  TIP3      OH2             7.9301412142       -1.3828657020       10.7558913663  W2        4663            0.0000000000
     10619      3540  TIP3      H1              8.0910112142       -0.5831157020       10.2551513663  W2        4663            0.0000000000
     10620      3540  TIP3      H2              7.7329212142       -1.0762657020       11.6409513663  W2        4663            0.0000000000
     10621      3541  TIP3      OH2             6.6645812142      -14.6849457020       10.3716513663  W2        4664            0.0000000000
     10622      3541  TIP3      H1              6.5810612142      -13.7966357020       10.7182913663  W2        4664            0.0000000000
     10623      3541  TIP3      H2              7.5546112142      -14.9502757020       10.6033313663  W2        4664            0.0000000000
     10624      3542  TIP3      OH2             4.9231112142       -4.2577257020        9.4321013663  W2        4667            0.0000000000
     10625      3542  TIP3      H1              5.5152612142       -3.5582457020        9.7083413663  W2        4667            0.0000000000
     10626      3542  TIP3      H2              5.3824112142       -4.6907757020        8.7125613663  W2        4667            0.0000000000
     10627      3543  TIP3      OH2             3.2390312142      -11.5934257020        8.5480413663  W2        4668            0.0000000000
     10628      3543  TIP3      H1              3.1942912142      -10.6541157020        8.7267413663  W2        4668            0.0000000000
     10629      3543  TIP3      H2              2.3513512142      -11.8289357020        8.2782513663  W2        4668            0.0000000000
     10630      3544  TIP3      OH2            10.9552312142       -1.8311857020        7.7071213663  W2        4674            0.0000000000
     10631      3544  TIP3      H1             10.3113312142       -2.4623257020        8.0284913663  W2        4674            0.0000000000
     10632      3544  TIP3      H2             11.7170612142       -2.3623857020        7.4754713663  W2        4674            0.0000000000
     10633      3545  TIP3      OH2            15.5595212142       -2.0141957020        7.9409213663  W2        4676            0.0000000000
     10634      3545  TIP3      H1             15.8425612142       -2.8086757020        8.3936113663  W2        4676            0.0000000000
     10635      3545  TIP3      H2             16.2993112142       -1.7810957020        7.3800313663  W2        4676            0.0000000000
     10636      3546  TIP3      OH2             6.5142512142       -6.1047057020        7.7984113663  W2        4678            0.0000000000
     10637      3546  TIP3      H1              6.5786612142       -6.8987457020        8.3290513663  W2        4678            0.0000000000
     10638      3546  TIP3      H2              7.1671712142       -6.2234257020        7.1086113663  W2        4678            0.0000000000
     10639      3547  TIP3      OH2            11.8665912142       -5.0575357020        7.5342113663  W2        4680            0.0000000000
     10640      3547  TIP3      H1             11.5980012142       -4.8773257020        8.4351013663  W2        4680            0.0000000000
     10641      3547  TIP3      H2             11.6601512142       -5.9829157020        7.4027913663  W2        4680            0.0000000000
     10642      3548  TIP3      OH2             7.6636312142       -8.1320857020       10.1042113663  W2        4683            0.0000000000
     10643      3548  TIP3      H1              7.2038312142       -8.6162557020       10.7900613663  W2        4683            0.0000000000
     10644      3548  TIP3      H2              7.9185012142       -8.8005457020        9.4682613663  W2        4683            0.0000000000
     10645      3549  TIP3      OH2             8.7346712142       -9.8889057020        8.3665313663  W2        4685            0.0000000000
     10646      3549  TIP3      H1              8.5541712142      -10.0437857020        7.4393613663  W2        4685            0.0000000000
     10647      3549  TIP3      H2              9.6847212142       -9.7810357020        8.4113213663  W2        4685            0.0000000000
     10648      3550  TIP3      OH2            18.1245012142       -7.5344857020        7.8123413663  W2        4687            0.0000000000
     10649      3550  TIP3      H1             17.8509812142       -7.9589357020        6.9991713663  W2        4687            0.0000000000
     10650      3550  TIP3      H2             18.1639112142       -6.6030357020        7.5953813663  W2        4687            0.0000000000
     10651      3551  TIP3      OH2             8.6318412142        0.8014642980        9.3678913663  W2        4701            0.0000000000
     10652      3551  TIP3      H1              9.5649112142        0.9593342980        9.5117313663  W2        4701            0.0000000000
     10653      3551  TIP3      H2              8.3677212142        1.4767642980        8.7430413663  W2        4701            0.0000000000
     10654      3552  TIP3      OH2             2.2003312142       -4.5621557020        8.8507013663  W2        4702            0.0000000000
     10655      3552  TIP3      H1              3.1142512142       -4.4832657020        9.1240913663  W2        4702            0.0000000000
     10656      3552  TIP3      H2              2.2076412142       -5.2491957020        8.1842613663  W2        4702            0.0000000000
     10657      3553  TIP3      OH2            19.2456512142       -8.7110857020       10.0020813663  W2        4712            0.0000000000
     10658      3553  TIP3      H1             18.7237612142       -8.3546757020        9.2831713663  W2        4712            0.0000000000
     10659      3553  TIP3      H2             19.2125712142       -8.0363057020       10.6801713663  W2        4712            0.0000000000
     10660      3554  TIP3      OH2            17.5945512142      -11.4715257020        8.5527913663  W2        4713            0.0000000000
     10661      3554  TIP3      H1             17.6909912142      -10.8048257020        7.8727613663  W2        4713            0.0000000000
     10662      3554  TIP3      H2             17.4545112142      -12.2868957020        8.0713413663  W2        4713            0.0000000000
     10663      3555  TIP3      OH2            16.8419312142      -14.0635457020        7.6703413663  W2        4718            0.0000000000
     10664      3555  TIP3      H1             17.4525112142      -14.4348657020        8.3071613663  W2        4718            0.0000000000
     10665      3555  TIP3      H2             16.0050812142      -14.4848557020        7.8663413663  W2        4718            0.0000000000
     10666      3556  TIP3      OH2            18.9546012142      -15.1779657020        9.2125613663  W2        4728            0.0000000000
     10667      3556  TIP3      H1             19.3668612142      -15.8993957020        8.7373613663  W2        4728            0.0000000000
     10668      3556  TIP3      H2             19.6362512142      -14.5085057020        9.2709913663  W2        4728            0.0000000000
     10669      3557  TIP3      OH2             2.5119312142      -17.1304257020       10.3182913663  W2        4749            0.0000000000
     10670      3557  TIP3      H1              2.9510012142      -16.5193757020        9.7266413663  W2        4749            0.0000000000
     10671      3557  TIP3      H2              1.8781712142      -16.5920157020       10.7922913663  W2        4749            0.0000000000
     10672      3558  TIP3      OH2             4.3728412142      -15.2142757020        8.7607013663  W2        4754            0.0000000000
     10673      3558  TIP3      H1              4.8641812142      -15.8440357020        8.2332513663  W2        4754            0.0000000000
     10674      3558  TIP3      H2              4.9964712142      -14.9183357020        9.4238213663  W2        4754            0.0000000000
     10675      3559  TIP3      OH2            11.2772312142        0.0272842980        9.6134213663  W2        4756            0.0000000000
     10676      3559  TIP3      H1             12.1432512142        0.3940242980        9.4352413663  W2        4756            0.0000000000
     10677      3559  TIP3      H2             11.0305112142       -0.4119157020        8.7995013663  W2        4756            0.0000000000
     10678      3560  TIP3      OH2             4.2310012142       -0.2621257020        8.2410113663  W2        4760            0.0000000000
     10679      3560  TIP3      H1              3.9634612142        0.0241642980        9.1143213663  W2        4760            0.0000000000
     10680      3560  TIP3      H2              5.0022612142       -0.8082057020        8.3932613663  W2        4760            0.0000000000
     10681      3561  TIP3      OH2            30.3850212142      -10.0705757020        8.9639613663  W2        4791            0.0000000000
     10682      3561  TIP3      H1             31.0860112142      -10.0478857020        9.6153613663  W2        4791            0.0000000000
     10683      3561  TIP3      H2             30.6873112142      -10.6986057020        8.3078913663  W2        4791            0.0000000000
     10684      3562  TIP3      OH2            32.6078212142       -9.1563857020       10.5621713663  W2        4799            0.0000000000
     10685      3562  TIP3      H1             33.1873712142       -9.0063557020       11.3090613663  W2        4799            0.0000000000
     10686      3562  TIP3      H2             33.0218212142       -8.6856457020        9.8388113663  W2        4799            0.0000000000
     10687      3563  TIP3      OH2            36.3066612142      -17.4063457020       10.3751413663  W2        4803            0.0000000000
     10688      3563  TIP3      H1             35.4067312142      -17.2674457020       10.6702013663  W2        4803            0.0000000000
     10689      3563  TIP3      H2             36.5585012142      -16.5748857020        9.9733113663  W2        4803            0.0000000000
     10690      3564  TIP3      OH2            32.9082212142       -0.3090457020        9.4146413663  W2        4810            0.0000000000
     10691      3564  TIP3      H1             33.2830612142       -1.0534357020        8.9439013663  W2        4810            0.0000000000
     10692      3564  TIP3      H2             32.9125912142       -0.5789857020       10.3329713663  W2        4810            0.0000000000
     10693      3565  TIP3      OH2            34.0851312142       -8.1235557020        8.1919613663  W2        4817            0.0000000000
     10694      3565  TIP3      H1             34.1272112142       -8.3461657020        7.2619613663  W2        4817            0.0000000000
     10695      3565  TIP3      H2             34.9343412142       -7.7248457020        8.3819513663  W2        4817            0.0000000000
     10696      3566  TIP3      OH2            29.6578812142      -14.2477357020        8.8622913663  W2        4818            0.0000000000
     10697      3566  TIP3      H1             29.4043612142      -14.2285757020        9.7851013663  W2        4818            0.0000000000
     10698      3566  TIP3      H2             29.4010912142      -15.1191957020        8.5609113663  W2        4818            0.0000000000
     10699      3567  TIP3      OH2            26.5401712142      -13.8020857020        7.9633313663  W2        4825            0.0000000000
     10700      3567  TIP3      H1             26.1092412142      -14.2470757020        8.6930713663  W2        4825            0.0000000000
     10701      3567  TIP3      H2             25.8220412142      -13.4304557020        7.4510813663  W2        4825            0.0000000000
     10702      3568  TIP3      OH2            21.0567212142      -13.3139357020       10.4392413663  W2        4827            0.0000000000
     10703      3568  TIP3      H1             21.5308912142      -12.7229457020        9.8543313663  W2        4827            0.0000000000
     10704      3568  TIP3      H2             20.3393612142      -12.7836457020       10.7862513663  W2        4827            0.0000000000
     10705      3569  TIP3      OH2            25.1583612142      -11.0247957020        9.3457713663  W2        4833            0.0000000000
     10706      3569  TIP3      H1             24.6158712142      -11.4044157020        8.6545313663  W2        4833            0.0000000000
     10707      3569  TIP3      H2             25.9918512142      -10.8303257020        8.9171813663  W2        4833            0.0000000000
     10708      3570  TIP3      OH2            32.3913212142      -13.6452357020        9.4808413663  W2        4841            0.0000000000
     10709      3570  TIP3      H1             31.4527412142      -13.5336757020        9.3297213663  W2        4841            0.0000000000
     10710      3570  TIP3      H2             32.6885312142      -12.7885457020        9.7874113663  W2        4841            0.0000000000
     10711      3571  TIP3      OH2            33.1096712142      -11.7779657020       11.1415813663  W2        4843            0.0000000000
     10712      3571  TIP3      H1             34.0015712142      -11.9154657020       11.4607013663  W2        4843            0.0000000000
     10713      3571  TIP3      H2             33.1660312142      -10.9873557020       10.6049313663  W2        4843            0.0000000000
     10714      3572  TIP3      OH2            30.6190512142       -5.0007957020       10.3070413663  W2        4845            0.0000000000
     10715      3572  TIP3      H1             30.3238912142       -4.1740057020       10.6885213663  W2        4845            0.0000000000
     10716      3572  TIP3      H2             29.9160512142       -5.6201057020       10.5031813663  W2        4845            0.0000000000
     10717      3573  TIP3      OH2            21.7481812142       -8.7839957020        9.0427613663  W2        4852            0.0000000000
     10718      3573  TIP3      H1             22.3641712142       -8.1572757020        9.4222413663  W2        4852            0.0000000000
     10719      3573  TIP3      H2             20.8864412142       -8.4680157020        9.3144113663  W2        4852            0.0000000000
     10720      3574  TIP3      OH2            33.6822712142       -4.8059357020        9.1215213663  W2        4857            0.0000000000
     10721      3574  TIP3      H1             34.0355812142       -5.1859557020        9.9258713663  W2        4857            0.0000000000
     10722      3574  TIP3      H2             32.7336212142       -4.8994557020        9.2084513663  W2        4857            0.0000000000
     10723      3575  TIP3      OH2            27.7730512142       -3.6943257020        7.5685213663  W2        4862            0.0000000000
     10724      3575  TIP3      H1             28.0120312142       -4.4425157020        7.0214113663  W2        4862            0.0000000000
     10725      3575  TIP3      H2             27.5041812142       -4.0821557020        8.4013013663  W2        4862            0.0000000000
     10726      3576  TIP3      OH2            26.7101112142       -4.1239457020       10.0247813663  W2        4863            0.0000000000
     10727      3576  TIP3      H1             26.8569112142       -4.6439657020       10.8148713663  W2        4863            0.0000000000
     10728      3576  TIP3      H2             26.7072812142       -3.2171857020       10.3313713663  W2        4863            0.0000000000
     10729      3577  TIP3      OH2            23.1632212142       -6.8716157020       10.5353213663  W2        4864            0.0000000000
     10730      3577  TIP3      H1             22.4771512142       -6.5193657020       11.1022913663  W2        4864            0.0000000000
     10731      3577  TIP3      H2             23.6860112142       -6.1086557020       10.2887513663  W2        4864            0.0000000000
     10732      3578  TIP3      OH2            29.4478312142       -2.4265857020       10.7742013663  W2        4867            0.0000000000
     10733      3578  TIP3      H1             28.6314412142       -1.9296157020       10.8266313663  W2        4867            0.0000000000
     10734      3578  TIP3      H2             29.9774612142       -1.9512357020       10.1340813663  W2        4867            0.0000000000
     10735      3579  TIP3      OH2            26.7861412142       -1.3828657020       10.7558913663  W2        4871            0.0000000000
     10736      3579  TIP3      H1             26.9470112142       -0.5831157020       10.2551513663  W2        4871            0.0000000000
     10737      3579  TIP3      H2             26.5889212142       -1.0762657020       11.6409513663  W2        4871            0.0000000000
     10738      3580  TIP3      OH2            25.5205812142      -14.6849457020       10.3716513663  W2        4872            0.0000000000
     10739      3580  TIP3      H1             25.4370612142      -13.7966357020       10.7182913663  W2        4872            0.0000000000
     10740      3580  TIP3      H2             26.4106112142      -14.9502757020       10.6033313663  W2        4872            0.0000000000
     10741      3581  TIP3      OH2            23.7791112142       -4.2577257020        9.4321013663  W2        4875            0.0000000000
     10742      3581  TIP3      H1             24.3712612142       -3.5582457020        9.7083413663  W2        4875            0.0000000000
     10743      3581  TIP3      H2             24.2384112142       -4.6907757020        8.7125613663  W2        4875            0.0000000000
     10744      3582  TIP3      OH2            22.0950312142      -11.5934257020        8.5480413663  W2        4876            0.0000000000
     10745      3582  TIP3      H1             22.0502912142      -10.6541157020        8.7267413663  W2        4876            0.0000000000
     10746      3582  TIP3      H2             21.2073512142      -11.8289357020        8.2782513663  W2        4876            0.0000000000
     10747      3583  TIP3      OH2            29.8112312142       -1.8311857020        7.7071213663  W2        4882            0.0000000000
     10748      3583  TIP3      H1             29.1673312142       -2.4623257020        8.0284913663  W2        4882            0.0000000000
     10749      3583  TIP3      H2             30.5730612142       -2.3623857020        7.4754713663  W2        4882            0.0000000000
     10750      3584  TIP3      OH2            34.4155212142       -2.0141957020        7.9409213663  W2        4884            0.0000000000
     10751      3584  TIP3      H1             34.6985612142       -2.8086757020        8.3936113663  W2        4884            0.0000000000
     10752      3584  TIP3      H2             35.1553112142       -1.7810957020        7.3800313663  W2        4884            0.0000000000
     10753      3585  TIP3      OH2            25.3702512142       -6.1047057020        7.7984113663  W2        4886            0.0000000000
     10754      3585  TIP3      H1             25.4346612142       -6.8987457020        8.3290513663  W2        4886            0.0000000000
     10755      3585  TIP3      H2             26.0231712142       -6.2234257020        7.1086113663  W2        4886            0.0000000000
     10756      3586  TIP3      OH2            30.7225912142       -5.0575357020        7.5342113663  W2        4888            0.0000000000
     10757      3586  TIP3      H1             30.4540012142       -4.8773257020        8.4351013663  W2        4888            0.0000000000
     10758      3586  TIP3      H2             30.5161512142       -5.9829157020        7.4027913663  W2        4888            0.0000000000
     10759      3587  TIP3      OH2            26.5196312142       -8.1320857020       10.1042113663  W2        4891            0.0000000000
     10760      3587  TIP3      H1             26.0598312142       -8.6162557020       10.7900613663  W2        4891            0.0000000000
     10761      3587  TIP3      H2             26.7745012142       -8.8005457020        9.4682613663  W2        4891            0.0000000000
     10762      3588  TIP3      OH2            27.5906712142       -9.8889057020        8.3665313663  W2        4893            0.0000000000
     10763      3588  TIP3      H1             27.4101712142      -10.0437857020        7.4393613663  W2        4893            0.0000000000
     10764      3588  TIP3      H2             28.5407212142       -9.7810357020        8.4113213663  W2        4893            0.0000000000
     10765      3589  TIP3      OH2            27.4878412142        0.8014642980        9.3678913663  W2        4908            0.0000000000
     10766      3589  TIP3      H1             28.4209112142        0.9593342980        9.5117313663  W2        4908            0.0000000000
     10767      3589  TIP3      H2             27.2237212142        1.4767642980        8.7430413663  W2        4908            0.0000000000
     10768      3590  TIP3      OH2            21.0563312142       -4.5621557020        8.8507013663  W2        4909            0.0000000000
     10769      3590  TIP3      H1             21.9702512142       -4.4832657020        9.1240913663  W2        4909            0.0000000000
     10770      3590  TIP3      H2             21.0636412142       -5.2491957020        8.1842613663  W2        4909            0.0000000000
     10771      3591  TIP3      OH2            36.4505512142      -11.4715257020        8.5527913663  W2        4914            0.0000000000
     10772      3591  TIP3      H1             36.5469912142      -10.8048257020        7.8727613663  W2        4914            0.0000000000
     10773      3591  TIP3      H2             36.3105112142      -12.2868957020        8.0713413663  W2        4914            0.0000000000
     10774      3592  TIP3      OH2            35.6979312142      -14.0635457020        7.6703413663  W2        4918            0.0000000000
     10775      3592  TIP3      H1             36.3085112142      -14.4348657020        8.3071613663  W2        4918            0.0000000000
     10776      3592  TIP3      H2             34.8610812142      -14.4848557020        7.8663413663  W2        4918            0.0000000000
     10777      3593  TIP3      OH2            21.3679312142      -17.1304257020       10.3182913663  W2        4944            0.0000000000
     10778      3593  TIP3      H1             21.8070012142      -16.5193757020        9.7266413663  W2        4944            0.0000000000
     10779      3593  TIP3      H2             20.7341712142      -16.5920157020       10.7922913663  W2        4944            0.0000000000
     10780      3594  TIP3      OH2            23.2288412142      -15.2142757020        8.7607013663  W2        4949            0.0000000000
     10781      3594  TIP3      H1             23.7201812142      -15.8440357020        8.2332513663  W2        4949            0.0000000000
     10782      3594  TIP3      H2             23.8524712142      -14.9183357020        9.4238213663  W2        4949            0.0000000000
     10783      3595  TIP3      OH2            30.1332312142        0.0272842980        9.6134213663  W2        4951            0.0000000000
     10784      3595  TIP3      H1             30.9992512142        0.3940242980        9.4352413663  W2        4951            0.0000000000
     10785      3595  TIP3      H2             29.8865112142       -0.4119157020        8.7995013663  W2        4951            0.0000000000
     10786      3596  TIP3      OH2            23.0870012142       -0.2621257020        8.2410113663  W2        4954            0.0000000000
     10787      3596  TIP3      H1             22.8194612142        0.0241642980        9.1143213663  W2        4954            0.0000000000
     10788      3596  TIP3      H2             23.8582612142       -0.8082057020        8.3932613663  W2        4954            0.0000000000
     10789      3597  TIP3      OH2           -26.1829787858        8.7854242980        8.9639613663  W2        4987            0.0000000000
     10790      3597  TIP3      H1            -25.4819887858        8.8081142980        9.6153613663  W2        4987            0.0000000000
     10791      3597  TIP3      H2            -25.8806887858        8.1573942980        8.3078913663  W2        4987            0.0000000000
     10792      3598  TIP3      OH2           -23.9601787858        9.6996142980       10.5621713663  W2        4996            0.0000000000
     10793      3598  TIP3      H1            -23.3806287858        9.8496442980       11.3090613663  W2        4996            0.0000000000
     10794      3598  TIP3      H2            -23.5461787858       10.1703542980        9.8388113663  W2        4996            0.0000000000
     10795      3599  TIP3      OH2           -20.2613387858        1.4496542980       10.3751413663  W2        5000            0.0000000000
     10796      3599  TIP3      H1            -21.1612687858        1.5885542980       10.6702013663  W2        5000            0.0000000000
     10797      3599  TIP3      H2            -20.0094987858        2.2811142980        9.9733113663  W2        5000            0.0000000000
     10798      3600  TIP3      OH2           -19.0721987858       15.8158942980        8.7515313663  W2        5002            0.0000000000
     10799      3600  TIP3      H1            -18.9988487858       16.7549142980        8.9220613663  W2        5002            0.0000000000
     10800      3600  TIP3      H2            -18.1666887858       15.5107542980        8.6952613663  W2        5002            0.0000000000
     10801      3601  TIP3      OH2           -23.6597787858       18.5469542980        9.4146413663  W2        5009            0.0000000000
     10802      3601  TIP3      H1            -23.2849387858       17.8025642980        8.9439013663  W2        5009            0.0000000000
     10803      3601  TIP3      H2            -23.6554087858       18.2770142980       10.3329713663  W2        5009            0.0000000000
     10804      3602  TIP3      OH2           -22.4828687858       10.7324442980        8.1919613663  W2        5016            0.0000000000
     10805      3602  TIP3      H1            -22.4407887858       10.5098342980        7.2619613663  W2        5016            0.0000000000
     10806      3602  TIP3      H2            -21.6336587858       11.1311542980        8.3819513663  W2        5016            0.0000000000
     10807      3603  TIP3      OH2           -26.9101187858        4.6082642980        8.8622913663  W2        5017            0.0000000000
     10808      3603  TIP3      H1            -27.1636387858        4.6274242980        9.7851013663  W2        5017            0.0000000000
     10809      3603  TIP3      H2            -27.1669087858        3.7368042980        8.5609113663  W2        5017            0.0000000000
     10810      3604  TIP3      OH2           -30.0278287858        5.0539142980        7.9633313663  W2        5024            0.0000000000
     10811      3604  TIP3      H1            -30.4587587858        4.6089242980        8.6930713663  W2        5024            0.0000000000
     10812      3604  TIP3      H2            -30.7459587858        5.4255442980        7.4510813663  W2        5024            0.0000000000
     10813      3605  TIP3      OH2           -35.5112787858        5.5420642980       10.4392413663  W2        5026            0.0000000000
     10814      3605  TIP3      H1            -35.0371087858        6.1330542980        9.8543313663  W2        5026            0.0000000000
     10815      3605  TIP3      H2            -36.2286387858        6.0723542980       10.7862513663  W2        5026            0.0000000000
     10816      3606  TIP3      OH2           -31.4096387858        7.8312042980        9.3457713663  W2        5032            0.0000000000
     10817      3606  TIP3      H1            -31.9521287858        7.4515842980        8.6545313663  W2        5032            0.0000000000
     10818      3606  TIP3      H2            -30.5761487858        8.0256742980        8.9171813663  W2        5032            0.0000000000
     10819      3607  TIP3      OH2           -24.1766787858        5.2107642980        9.4808413663  W2        5040            0.0000000000
     10820      3607  TIP3      H1            -25.1152587858        5.3223242980        9.3297213663  W2        5040            0.0000000000
     10821      3607  TIP3      H2            -23.8794687858        6.0674542980        9.7874113663  W2        5040            0.0000000000
     10822      3608  TIP3      OH2           -23.4583287858        7.0780342980       11.1415813663  W2        5042            0.0000000000
     10823      3608  TIP3      H1            -22.5664287858        6.9405342980       11.4607013663  W2        5042            0.0000000000
     10824      3608  TIP3      H2            -23.4019687858        7.8686442980       10.6049313663  W2        5042            0.0000000000
     10825      3609  TIP3      OH2           -25.9489487858       13.8552042980       10.3070413663  W2        5044            0.0000000000
     10826      3609  TIP3      H1            -26.2441087858       14.6819942980       10.6885213663  W2        5044            0.0000000000
     10827      3609  TIP3      H2            -26.6519487858       13.2358942980       10.5031813663  W2        5044            0.0000000000
     10828      3610  TIP3      OH2           -18.5734587858        7.2874442980       10.8362513663  W2        5048            0.0000000000
     10829      3610  TIP3      H1            -19.1278287858        6.8912442980       10.1640013663  W2        5048            0.0000000000
     10830      3610  TIP3      H2            -18.4730987858        8.1979642980       10.5585813663  W2        5048            0.0000000000
     10831      3611  TIP3      OH2           -34.8198187858       10.0720042980        9.0427613663  W2        5053            0.0000000000
     10832      3611  TIP3      H1            -34.2038287858       10.6987242980        9.4222413663  W2        5053            0.0000000000
     10833      3611  TIP3      H2            -35.6815587858       10.3879842980        9.3144113663  W2        5053            0.0000000000
     10834      3612  TIP3      OH2           -22.8857287858       14.0500642980        9.1215213663  W2        5058            0.0000000000
     10835      3612  TIP3      H1            -22.5324187858       13.6700442980        9.9258713663  W2        5058            0.0000000000
     10836      3612  TIP3      H2            -23.8343787858       13.9565442980        9.2084513663  W2        5058            0.0000000000
     10837      3613  TIP3      OH2           -18.3822887858       18.5293142980        9.3225413663  W2        5060            0.0000000000
     10838      3613  TIP3      H1            -17.6384987858       19.1153642980        9.1827013663  W2        5060            0.0000000000
     10839      3613  TIP3      H2            -19.0764787858       19.0978942980        9.6557813663  W2        5060            0.0000000000
     10840      3614  TIP3      OH2           -28.7949487858       15.1616742980        7.5685213663  W2        5064            0.0000000000
     10841      3614  TIP3      H1            -28.5559687858       14.4134842980        7.0214113663  W2        5064            0.0000000000
     10842      3614  TIP3      H2            -29.0638187858       14.7738442980        8.4013013663  W2        5064            0.0000000000
     10843      3615  TIP3      OH2           -29.8578887858       14.7320542980       10.0247813663  W2        5065            0.0000000000
     10844      3615  TIP3      H1            -29.7110887858       14.2120342980       10.8148713663  W2        5065            0.0000000000
     10845      3615  TIP3      H2            -29.8607187858       15.6388142980       10.3313713663  W2        5065            0.0000000000
     10846      3616  TIP3      OH2           -33.4047787858       11.9843842980       10.5353213663  W2        5066            0.0000000000
     10847      3616  TIP3      H1            -34.0908487858       12.3366342980       11.1022913663  W2        5066            0.0000000000
     10848      3616  TIP3      H2            -32.8819887858       12.7473442980       10.2887513663  W2        5066            0.0000000000
     10849      3617  TIP3      OH2           -27.1201687858       16.4294142980       10.7742013663  W2        5069            0.0000000000
     10850      3617  TIP3      H1            -27.9365587858       16.9263842980       10.8266313663  W2        5069            0.0000000000
     10851      3617  TIP3      H2            -26.5905387858       16.9047642980       10.1340813663  W2        5069            0.0000000000
     10852      3618  TIP3      OH2           -29.7818587858       17.4731342980       10.7558913663  W2        5073            0.0000000000
     10853      3618  TIP3      H1            -29.6209887858       18.2728842980       10.2551513663  W2        5073            0.0000000000
     10854      3618  TIP3      H2            -29.9790787858       17.7797342980       11.6409513663  W2        5073            0.0000000000
     10855      3619  TIP3      OH2           -31.0474187858        4.1710542980       10.3716513663  W2        5074            0.0000000000
     10856      3619  TIP3      H1            -31.1309387858        5.0593642980       10.7182913663  W2        5074            0.0000000000
     10857      3619  TIP3      H2            -30.1573887858        3.9057242980       10.6033313663  W2        5074            0.0000000000
     10858      3620  TIP3      OH2           -32.7888887858       14.5982742980        9.4321013663  W2        5077            0.0000000000
     10859      3620  TIP3      H1            -32.1967387858       15.2977542980        9.7083413663  W2        5077            0.0000000000
     10860      3620  TIP3      H2            -32.3295887858       14.1652242980        8.7125613663  W2        5077            0.0000000000
     10861      3621  TIP3      OH2           -34.4729687858        7.2625742980        8.5480413663  W2        5078            0.0000000000
     10862      3621  TIP3      H1            -34.5177087858        8.2018842980        8.7267413663  W2        5078            0.0000000000
     10863      3621  TIP3      H2            -35.3606487858        7.0270642980        8.2782513663  W2        5078            0.0000000000
     10864      3622  TIP3      OH2           -26.7567687858       17.0248142980        7.7071213663  W2        5084            0.0000000000
     10865      3622  TIP3      H1            -27.4006687858       16.3936742980        8.0284913663  W2        5084            0.0000000000
     10866      3622  TIP3      H2            -25.9949387858       16.4936142980        7.4754713663  W2        5084            0.0000000000
     10867      3623  TIP3      OH2           -22.1524787858       16.8418042980        7.9409213663  W2        5086            0.0000000000
     10868      3623  TIP3      H1            -21.8694387858       16.0473242980        8.3936113663  W2        5086            0.0000000000
     10869      3623  TIP3      H2            -21.4126887858       17.0749042980        7.3800313663  W2        5086            0.0000000000
     10870      3624  TIP3      OH2           -31.1977487858       12.7512942980        7.7984113663  W2        5088            0.0000000000
     10871      3624  TIP3      H1            -31.1333387858       11.9572542980        8.3290513663  W2        5088            0.0000000000
     10872      3624  TIP3      H2            -30.5448287858       12.6325742980        7.1086113663  W2        5088            0.0000000000
     10873      3625  TIP3      OH2           -25.8454087858       13.7984642980        7.5342113663  W2        5090            0.0000000000
     10874      3625  TIP3      H1            -26.1139987858       13.9786742980        8.4351013663  W2        5090            0.0000000000
     10875      3625  TIP3      H2            -26.0518487858       12.8730842980        7.4027913663  W2        5090            0.0000000000
     10876      3626  TIP3      OH2           -30.0483687858       10.7239142980       10.1042113663  W2        5093            0.0000000000
     10877      3626  TIP3      H1            -30.5081687858       10.2397442980       10.7900613663  W2        5093            0.0000000000
     10878      3626  TIP3      H2            -29.7934987858       10.0554542980        9.4682613663  W2        5093            0.0000000000
     10879      3627  TIP3      OH2           -28.9773287858        8.9670942980        8.3665313663  W2        5095            0.0000000000
     10880      3627  TIP3      H1            -29.1578287858        8.8122142980        7.4393613663  W2        5095            0.0000000000
     10881      3627  TIP3      H2            -28.0272787858        9.0749642980        8.4113213663  W2        5095            0.0000000000
     10882      3628  TIP3      OH2           -19.5874987858       11.3215142980        7.8123413663  W2        5097            0.0000000000
     10883      3628  TIP3      H1            -19.8610187858       10.8970642980        6.9991713663  W2        5097            0.0000000000
     10884      3628  TIP3      H2            -19.5480887858       12.2529642980        7.5953813663  W2        5097            0.0000000000
     10885      3629  TIP3      OH2           -29.0801587858       19.6574642980        9.3678913663  W2        5111            0.0000000000
     10886      3629  TIP3      H1            -28.1470887858       19.8153342980        9.5117313663  W2        5111            0.0000000000
     10887      3629  TIP3      H2            -29.3442787858       20.3327642980        8.7430413663  W2        5111            0.0000000000
     10888      3630  TIP3      OH2           -35.5116687858       14.2938442980        8.8507013663  W2        5112            0.0000000000
     10889      3630  TIP3      H1            -34.5977487858       14.3727342980        9.1240913663  W2        5112            0.0000000000
     10890      3630  TIP3      H2            -35.5043587858       13.6068042980        8.1842613663  W2        5112            0.0000000000
     10891      3631  TIP3      OH2           -18.4663487858       10.1449142980       10.0020813663  W2        5122            0.0000000000
     10892      3631  TIP3      H1            -18.9882387858       10.5013242980        9.2831713663  W2        5122            0.0000000000
     10893      3631  TIP3      H2            -18.4994287858       10.8196942980       10.6801713663  W2        5122            0.0000000000
     10894      3632  TIP3      OH2           -20.1174487858        7.3844742980        8.5527913663  W2        5123            0.0000000000
     10895      3632  TIP3      H1            -20.0210087858        8.0511742980        7.8727613663  W2        5123            0.0000000000
     10896      3632  TIP3      H2            -20.2574887858        6.5691042980        8.0713413663  W2        5123            0.0000000000
     10897      3633  TIP3      OH2           -20.8700687858        4.7924542980        7.6703413663  W2        5128            0.0000000000
     10898      3633  TIP3      H1            -20.2594887858        4.4211342980        8.3071613663  W2        5128            0.0000000000
     10899      3633  TIP3      H2            -21.7069187858        4.3711442980        7.8663413663  W2        5128            0.0000000000
     10900      3634  TIP3      OH2           -18.7573987858        3.6780342980        9.2125613663  W2        5138            0.0000000000
     10901      3634  TIP3      H1            -18.3451387858        2.9566042980        8.7373613663  W2        5138            0.0000000000
     10902      3634  TIP3      H2            -18.0757487858        4.3474942980        9.2709913663  W2        5138            0.0000000000
     10903      3635  TIP3      OH2           -35.2000687858        1.7255742980       10.3182913663  W2        5159            0.0000000000
     10904      3635  TIP3      H1            -34.7609987858        2.3366242980        9.7266413663  W2        5159            0.0000000000
     10905      3635  TIP3      H2            -35.8338287858        2.2639842980       10.7922913663  W2        5159            0.0000000000
     10906      3636  TIP3      OH2           -33.3391587858        3.6417242980        8.7607013663  W2        5164            0.0000000000
     10907      3636  TIP3      H1            -32.8478187858        3.0119642980        8.2332513663  W2        5164            0.0000000000
     10908      3636  TIP3      H2            -32.7155287858        3.9376642980        9.4238213663  W2        5164            0.0000000000
     10909      3637  TIP3      OH2           -26.4347687858       18.8832842980        9.6134213663  W2        5166            0.0000000000
     10910      3637  TIP3      H1            -25.5687487858       19.2500242980        9.4352413663  W2        5166            0.0000000000
     10911      3637  TIP3      H2            -26.6814887858       18.4440842980        8.7995013663  W2        5166            0.0000000000
     10912      3638  TIP3      OH2           -33.4809987858       18.5938742980        8.2410113663  W2        5170            0.0000000000
     10913      3638  TIP3      H1            -33.7485387858       18.8801642980        9.1143213663  W2        5170            0.0000000000
     10914      3638  TIP3      H2            -32.7097387858       18.0477942980        8.3932613663  W2        5170            0.0000000000
     10915      3639  TIP3      OH2            -7.3269787858        8.7854242980        8.9639613663  W2        5203            0.0000000000
     10916      3639  TIP3      H1             -6.6259887858        8.8081142980        9.6153613663  W2        5203            0.0000000000
     10917      3639  TIP3      H2             -7.0246887858        8.1573942980        8.3078913663  W2        5203            0.0000000000
     10918      3640  TIP3      OH2            -5.1041787858        9.6996142980       10.5621713663  W2        5212            0.0000000000
     10919      3640  TIP3      H1             -4.5246287858        9.8496442980       11.3090613663  W2        5212            0.0000000000
     10920      3640  TIP3      H2             -4.6901787858       10.1703542980        9.8388113663  W2        5212            0.0000000000
     10921      3641  TIP3      OH2            -1.4053387858        1.4496542980       10.3751413663  W2        5216            0.0000000000
     10922      3641  TIP3      H1             -2.3052687858        1.5885542980       10.6702013663  W2        5216            0.0000000000
     10923      3641  TIP3      H2             -1.1534987858        2.2811142980        9.9733113663  W2        5216            0.0000000000
     10924      3642  TIP3      OH2            -0.2161987858       15.8158942980        8.7515313663  W2        5218            0.0000000000
     10925      3642  TIP3      H1             -0.1428487858       16.7549142980        8.9220613663  W2        5218            0.0000000000
     10926      3642  TIP3      H2              0.6893112142       15.5107542980        8.6952613663  W2        5218            0.0000000000
     10927      3643  TIP3      OH2            -4.8037787858       18.5469542980        9.4146413663  W2        5225            0.0000000000
     10928      3643  TIP3      H1             -4.4289387858       17.8025642980        8.9439013663  W2        5225            0.0000000000
     10929      3643  TIP3      H2             -4.7994087858       18.2770142980       10.3329713663  W2        5225            0.0000000000
     10930      3644  TIP3      OH2            -3.6268687858       10.7324442980        8.1919613663  W2        5232            0.0000000000
     10931      3644  TIP3      H1             -3.5847887858       10.5098342980        7.2619613663  W2        5232            0.0000000000
     10932      3644  TIP3      H2             -2.7776587858       11.1311542980        8.3819513663  W2        5232            0.0000000000
     10933      3645  TIP3      OH2            -8.0541187858        4.6082642980        8.8622913663  W2        5233            0.0000000000
     10934      3645  TIP3      H1             -8.3076387858        4.6274242980        9.7851013663  W2        5233            0.0000000000
     10935      3645  TIP3      H2             -8.3109087858        3.7368042980        8.5609113663  W2        5233            0.0000000000
     10936      3646  TIP3      OH2           -11.1718287858        5.0539142980        7.9633313663  W2        5240            0.0000000000
     10937      3646  TIP3      H1            -11.6027587858        4.6089242980        8.6930713663  W2        5240            0.0000000000
     10938      3646  TIP3      H2            -11.8899587858        5.4255442980        7.4510813663  W2        5240            0.0000000000
     10939      3647  TIP3      OH2           -16.6552787858        5.5420642980       10.4392413663  W2        5242            0.0000000000
     10940      3647  TIP3      H1            -16.1811087858        6.1330542980        9.8543313663  W2        5242            0.0000000000
     10941      3647  TIP3      H2            -17.3726387858        6.0723542980       10.7862513663  W2        5242            0.0000000000
     10942      3648  TIP3      OH2           -12.5536387858        7.8312042980        9.3457713663  W2        5248            0.0000000000
     10943      3648  TIP3      H1            -13.0961287858        7.4515842980        8.6545313663  W2        5248            0.0000000000
     10944      3648  TIP3      H2            -11.7201487858        8.0256742980        8.9171813663  W2        5248            0.0000000000
     10945      3649  TIP3      OH2            -5.3206787858        5.2107642980        9.4808413663  W2        5256            0.0000000000
     10946      3649  TIP3      H1             -6.2592587858        5.3223242980        9.3297213663  W2        5256            0.0000000000
     10947      3649  TIP3      H2             -5.0234687858        6.0674542980        9.7874113663  W2        5256            0.0000000000
     10948      3650  TIP3      OH2            -4.6023287858        7.0780342980       11.1415813663  W2        5258            0.0000000000
     10949      3650  TIP3      H1             -3.7104287858        6.9405342980       11.4607013663  W2        5258            0.0000000000
     10950      3650  TIP3      H2             -4.5459687858        7.8686442980       10.6049313663  W2        5258            0.0000000000
     10951      3651  TIP3      OH2            -7.0929487858       13.8552042980       10.3070413663  W2        5260            0.0000000000
     10952      3651  TIP3      H1             -7.3881087858       14.6819942980       10.6885213663  W2        5260            0.0000000000
     10953      3651  TIP3      H2             -7.7959487858       13.2358942980       10.5031813663  W2        5260            0.0000000000
     10954      3652  TIP3      OH2             0.2825412142        7.2874442980       10.8362513663  W2        5264            0.0000000000
     10955      3652  TIP3      H1             -0.2718287858        6.8912442980       10.1640013663  W2        5264            0.0000000000
     10956      3652  TIP3      H2              0.3829012142        8.1979642980       10.5585813663  W2        5264            0.0000000000
     10957      3653  TIP3      OH2           -15.9638187858       10.0720042980        9.0427613663  W2        5269            0.0000000000
     10958      3653  TIP3      H1            -15.3478287858       10.6987242980        9.4222413663  W2        5269            0.0000000000
     10959      3653  TIP3      H2            -16.8255587858       10.3879842980        9.3144113663  W2        5269            0.0000000000
     10960      3654  TIP3      OH2            -4.0297287858       14.0500642980        9.1215213663  W2        5274            0.0000000000
     10961      3654  TIP3      H1             -3.6764187858       13.6700442980        9.9258713663  W2        5274            0.0000000000
     10962      3654  TIP3      H2             -4.9783787858       13.9565442980        9.2084513663  W2        5274            0.0000000000
     10963      3655  TIP3      OH2             0.4737112142       18.5293142980        9.3225413663  W2        5276            0.0000000000
     10964      3655  TIP3      H1              1.2175012142       19.1153642980        9.1827013663  W2        5276            0.0000000000
     10965      3655  TIP3      H2             -0.2204787858       19.0978942980        9.6557813663  W2        5276            0.0000000000
     10966      3656  TIP3      OH2            -9.9389487858       15.1616742980        7.5685213663  W2        5280            0.0000000000
     10967      3656  TIP3      H1             -9.6999687858       14.4134842980        7.0214113663  W2        5280            0.0000000000
     10968      3656  TIP3      H2            -10.2078187858       14.7738442980        8.4013013663  W2        5280            0.0000000000
     10969      3657  TIP3      OH2           -11.0018887858       14.7320542980       10.0247813663  W2        5281            0.0000000000
     10970      3657  TIP3      H1            -10.8550887858       14.2120342980       10.8148713663  W2        5281            0.0000000000
     10971      3657  TIP3      H2            -11.0047187858       15.6388142980       10.3313713663  W2        5281            0.0000000000
     10972      3658  TIP3      OH2           -14.5487787858       11.9843842980       10.5353213663  W2        5282            0.0000000000
     10973      3658  TIP3      H1            -15.2348487858       12.3366342980       11.1022913663  W2        5282            0.0000000000
     10974      3658  TIP3      H2            -14.0259887858       12.7473442980       10.2887513663  W2        5282            0.0000000000
     10975      3659  TIP3      OH2            -8.2641687858       16.4294142980       10.7742013663  W2        5285            0.0000000000
     10976      3659  TIP3      H1             -9.0805587858       16.9263842980       10.8266313663  W2        5285            0.0000000000
     10977      3659  TIP3      H2             -7.7345387858       16.9047642980       10.1340813663  W2        5285            0.0000000000
     10978      3660  TIP3      OH2           -10.9258587858       17.4731342980       10.7558913663  W2        5289            0.0000000000
     10979      3660  TIP3      H1            -10.7649887858       18.2728842980       10.2551513663  W2        5289            0.0000000000
     10980      3660  TIP3      H2            -11.1230787858       17.7797342980       11.6409513663  W2        5289            0.0000000000
     10981      3661  TIP3      OH2           -12.1914187858        4.1710542980       10.3716513663  W2        5290            0.0000000000
     10982      3661  TIP3      H1            -12.2749387858        5.0593642980       10.7182913663  W2        5290            0.0000000000
     10983      3661  TIP3      H2            -11.3013887858        3.9057242980       10.6033313663  W2        5290            0.0000000000
     10984      3662  TIP3      OH2           -13.9328887858       14.5982742980        9.4321013663  W2        5293            0.0000000000
     10985      3662  TIP3      H1            -13.3407387858       15.2977542980        9.7083413663  W2        5293            0.0000000000
     10986      3662  TIP3      H2            -13.4735887858       14.1652242980        8.7125613663  W2        5293            0.0000000000
     10987      3663  TIP3      OH2           -15.6169687858        7.2625742980        8.5480413663  W2        5294            0.0000000000
     10988      3663  TIP3      H1            -15.6617087858        8.2018842980        8.7267413663  W2        5294            0.0000000000
     10989      3663  TIP3      H2            -16.5046487858        7.0270642980        8.2782513663  W2        5294            0.0000000000
     10990      3664  TIP3      OH2            -7.9007687858       17.0248142980        7.7071213663  W2        5300            0.0000000000
     10991      3664  TIP3      H1             -8.5446687858       16.3936742980        8.0284913663  W2        5300            0.0000000000
     10992      3664  TIP3      H2             -7.1389387858       16.4936142980        7.4754713663  W2        5300            0.0000000000
     10993      3665  TIP3      OH2            -3.2964787858       16.8418042980        7.9409213663  W2        5302            0.0000000000
     10994      3665  TIP3      H1             -3.0134387858       16.0473242980        8.3936113663  W2        5302            0.0000000000
     10995      3665  TIP3      H2             -2.5566887858       17.0749042980        7.3800313663  W2        5302            0.0000000000
     10996      3666  TIP3      OH2           -12.3417487858       12.7512942980        7.7984113663  W2        5304            0.0000000000
     10997      3666  TIP3      H1            -12.2773387858       11.9572542980        8.3290513663  W2        5304            0.0000000000
     10998      3666  TIP3      H2            -11.6888287858       12.6325742980        7.1086113663  W2        5304            0.0000000000
     10999      3667  TIP3      OH2            -6.9894087858       13.7984642980        7.5342113663  W2        5306            0.0000000000
     11000      3667  TIP3      H1             -7.2579987858       13.9786742980        8.4351013663  W2        5306            0.0000000000
     11001      3667  TIP3      H2             -7.1958487858       12.8730842980        7.4027913663  W2        5306            0.0000000000
     11002      3668  TIP3      OH2           -11.1923687858       10.7239142980       10.1042113663  W2        5309            0.0000000000
     11003      3668  TIP3      H1            -11.6521687858       10.2397442980       10.7900613663  W2        5309            0.0000000000
     11004      3668  TIP3      H2            -10.9374987858       10.0554542980        9.4682613663  W2        5309            0.0000000000
     11005      3669  TIP3      OH2           -10.1213287858        8.9670942980        8.3665313663  W2        5311            0.0000000000
     11006      3669  TIP3      H1            -10.3018287858        8.8122142980        7.4393613663  W2        5311            0.0000000000
     11007      3669  TIP3      H2             -9.1712787858        9.0749642980        8.4113213663  W2        5311            0.0000000000
     11008      3670  TIP3      OH2            -0.7314987858       11.3215142980        7.8123413663  W2        5313            0.0000000000
     11009      3670  TIP3      H1             -1.0050187858       10.8970642980        6.9991713663  W2        5313            0.0000000000
     11010      3670  TIP3      H2             -0.6920887858       12.2529642980        7.5953813663  W2        5313            0.0000000000
     11011      3671  TIP3      OH2           -10.2241587858       19.6574642980        9.3678913663  W2        5327            0.0000000000
     11012      3671  TIP3      H1             -9.2910887858       19.8153342980        9.5117313663  W2        5327            0.0000000000
     11013      3671  TIP3      H2            -10.4882787858       20.3327642980        8.7430413663  W2        5327            0.0000000000
     11014      3672  TIP3      OH2           -16.6556687858       14.2938442980        8.8507013663  W2        5328            0.0000000000
     11015      3672  TIP3      H1            -15.7417487858       14.3727342980        9.1240913663  W2        5328            0.0000000000
     11016      3672  TIP3      H2            -16.6483587858       13.6068042980        8.1842613663  W2        5328            0.0000000000
     11017      3673  TIP3      OH2             0.3896512142       10.1449142980       10.0020813663  W2        5338            0.0000000000
     11018      3673  TIP3      H1             -0.1322387858       10.5013242980        9.2831713663  W2        5338            0.0000000000
     11019      3673  TIP3      H2              0.3565712142       10.8196942980       10.6801713663  W2        5338            0.0000000000
     11020      3674  TIP3      OH2            -1.2614487858        7.3844742980        8.5527913663  W2        5339            0.0000000000
     11021      3674  TIP3      H1             -1.1650087858        8.0511742980        7.8727613663  W2        5339            0.0000000000
     11022      3674  TIP3      H2             -1.4014887858        6.5691042980        8.0713413663  W2        5339            0.0000000000
     11023      3675  TIP3      OH2            -2.0140687858        4.7924542980        7.6703413663  W2        5344            0.0000000000
     11024      3675  TIP3      H1             -1.4034887858        4.4211342980        8.3071613663  W2        5344            0.0000000000
     11025      3675  TIP3      H2             -2.8509187858        4.3711442980        7.8663413663  W2        5344            0.0000000000
     11026      3676  TIP3      OH2             0.0986012142        3.6780342980        9.2125613663  W2        5354            0.0000000000
     11027      3676  TIP3      H1              0.5108612142        2.9566042980        8.7373613663  W2        5354            0.0000000000
     11028      3676  TIP3      H2              0.7802512142        4.3474942980        9.2709913663  W2        5354            0.0000000000
     11029      3677  TIP3      OH2           -16.3440687858        1.7255742980       10.3182913663  W2        5375            0.0000000000
     11030      3677  TIP3      H1            -15.9049987858        2.3366242980        9.7266413663  W2        5375            0.0000000000
     11031      3677  TIP3      H2            -16.9778287858        2.2639842980       10.7922913663  W2        5375            0.0000000000
     11032      3678  TIP3      OH2           -14.4831587858        3.6417242980        8.7607013663  W2        5380            0.0000000000
     11033      3678  TIP3      H1            -13.9918187858        3.0119642980        8.2332513663  W2        5380            0.0000000000
     11034      3678  TIP3      H2            -13.8595287858        3.9376642980        9.4238213663  W2        5380            0.0000000000
     11035      3679  TIP3      OH2            -7.5787687858       18.8832842980        9.6134213663  W2        5382            0.0000000000
     11036      3679  TIP3      H1             -6.7127487858       19.2500242980        9.4352413663  W2        5382            0.0000000000
     11037      3679  TIP3      H2             -7.8254887858       18.4440842980        8.7995013663  W2        5382            0.0000000000
     11038      3680  TIP3      OH2           -14.6249987858       18.5938742980        8.2410113663  W2        5386            0.0000000000
     11039      3680  TIP3      H1            -14.8925387858       18.8801642980        9.1143213663  W2        5386            0.0000000000
     11040      3680  TIP3      H2            -13.8537387858       18.0477942980        8.3932613663  W2        5386            0.0000000000
     11041      3681  TIP3      OH2            11.5290212142        8.7854242980        8.9639613663  W2        5419            0.0000000000
     11042      3681  TIP3      H1             12.2300112142        8.8081142980        9.6153613663  W2        5419            0.0000000000
     11043      3681  TIP3      H2             11.8313112142        8.1573942980        8.3078913663  W2        5419            0.0000000000
     11044      3682  TIP3      OH2            13.7518212142        9.6996142980       10.5621713663  W2        5428            0.0000000000
     11045      3682  TIP3      H1             14.3313712142        9.8496442980       11.3090613663  W2        5428            0.0000000000
     11046      3682  TIP3      H2             14.1658212142       10.1703542980        9.8388113663  W2        5428            0.0000000000
     11047      3683  TIP3      OH2            17.4506612142        1.4496542980       10.3751413663  W2        5432            0.0000000000
     11048      3683  TIP3      H1             16.5507312142        1.5885542980       10.6702013663  W2        5432            0.0000000000
     11049      3683  TIP3      H2             17.7025012142        2.2811142980        9.9733113663  W2        5432            0.0000000000
     11050      3684  TIP3      OH2            18.6398012142       15.8158942980        8.7515313663  W2        5434            0.0000000000
     11051      3684  TIP3      H1             18.7131512142       16.7549142980        8.9220613663  W2        5434            0.0000000000
     11052      3684  TIP3      H2             19.5453112142       15.5107542980        8.6952613663  W2        5434            0.0000000000
     11053      3685  TIP3      OH2            14.0522212142       18.5469542980        9.4146413663  W2        5441            0.0000000000
     11054      3685  TIP3      H1             14.4270612142       17.8025642980        8.9439013663  W2        5441            0.0000000000
     11055      3685  TIP3      H2             14.0565912142       18.2770142980       10.3329713663  W2        5441            0.0000000000
     11056      3686  TIP3      OH2            15.2291312142       10.7324442980        8.1919613663  W2        5448            0.0000000000
     11057      3686  TIP3      H1             15.2712112142       10.5098342980        7.2619613663  W2        5448            0.0000000000
     11058      3686  TIP3      H2             16.0783412142       11.1311542980        8.3819513663  W2        5448            0.0000000000
     11059      3687  TIP3      OH2            10.8018812142        4.6082642980        8.8622913663  W2        5449            0.0000000000
     11060      3687  TIP3      H1             10.5483612142        4.6274242980        9.7851013663  W2        5449            0.0000000000
     11061      3687  TIP3      H2             10.5450912142        3.7368042980        8.5609113663  W2        5449            0.0000000000
     11062      3688  TIP3      OH2             7.6841712142        5.0539142980        7.9633313663  W2        5456            0.0000000000
     11063      3688  TIP3      H1              7.2532412142        4.6089242980        8.6930713663  W2        5456            0.0000000000
     11064      3688  TIP3      H2              6.9660412142        5.4255442980        7.4510813663  W2        5456            0.0000000000
     11065      3689  TIP3      OH2             2.2007212142        5.5420642980       10.4392413663  W2        5458            0.0000000000
     11066      3689  TIP3      H1              2.6748912142        6.1330542980        9.8543313663  W2        5458            0.0000000000
     11067      3689  TIP3      H2              1.4833612142        6.0723542980       10.7862513663  W2        5458            0.0000000000
     11068      3690  TIP3      OH2             6.3023612142        7.8312042980        9.3457713663  W2        5464            0.0000000000
     11069      3690  TIP3      H1              5.7598712142        7.4515842980        8.6545313663  W2        5464            0.0000000000
     11070      3690  TIP3      H2              7.1358512142        8.0256742980        8.9171813663  W2        5464            0.0000000000
     11071      3691  TIP3      OH2            13.5353212142        5.2107642980        9.4808413663  W2        5472            0.0000000000
     11072      3691  TIP3      H1             12.5967412142        5.3223242980        9.3297213663  W2        5472            0.0000000000
     11073      3691  TIP3      H2             13.8325312142        6.0674542980        9.7874113663  W2        5472            0.0000000000
     11074      3692  TIP3      OH2            14.2536712142        7.0780342980       11.1415813663  W2        5474            0.0000000000
     11075      3692  TIP3      H1             15.1455712142        6.9405342980       11.4607013663  W2        5474            0.0000000000
     11076      3692  TIP3      H2             14.3100312142        7.8686442980       10.6049313663  W2        5474            0.0000000000
     11077      3693  TIP3      OH2            11.7630512142       13.8552042980       10.3070413663  W2        5476            0.0000000000
     11078      3693  TIP3      H1             11.4678912142       14.6819942980       10.6885213663  W2        5476            0.0000000000
     11079      3693  TIP3      H2             11.0600512142       13.2358942980       10.5031813663  W2        5476            0.0000000000
     11080      3694  TIP3      OH2            19.1385412142        7.2874442980       10.8362513663  W2        5480            0.0000000000
     11081      3694  TIP3      H1             18.5841712142        6.8912442980       10.1640013663  W2        5480            0.0000000000
     11082      3694  TIP3      H2             19.2389012142        8.1979642980       10.5585813663  W2        5480            0.0000000000
     11083      3695  TIP3      OH2             2.8921812142       10.0720042980        9.0427613663  W2        5485            0.0000000000
     11084      3695  TIP3      H1              3.5081712142       10.6987242980        9.4222413663  W2        5485            0.0000000000
     11085      3695  TIP3      H2              2.0304412142       10.3879842980        9.3144113663  W2        5485            0.0000000000
     11086      3696  TIP3      OH2            14.8262712142       14.0500642980        9.1215213663  W2        5490            0.0000000000
     11087      3696  TIP3      H1             15.1795812142       13.6700442980        9.9258713663  W2        5490            0.0000000000
     11088      3696  TIP3      H2             13.8776212142       13.9565442980        9.2084513663  W2        5490            0.0000000000
     11089      3697  TIP3      OH2            19.3297112142       18.5293142980        9.3225413663  W2        5492            0.0000000000
     11090      3697  TIP3      H1             20.0735012142       19.1153642980        9.1827013663  W2        5492            0.0000000000
     11091      3697  TIP3      H2             18.6355212142       19.0978942980        9.6557813663  W2        5492            0.0000000000
     11092      3698  TIP3      OH2             8.9170512142       15.1616742980        7.5685213663  W2        5496            0.0000000000
     11093      3698  TIP3      H1              9.1560312142       14.4134842980        7.0214113663  W2        5496            0.0000000000
     11094      3698  TIP3      H2              8.6481812142       14.7738442980        8.4013013663  W2        5496            0.0000000000
     11095      3699  TIP3      OH2             7.8541112142       14.7320542980       10.0247813663  W2        5497            0.0000000000
     11096      3699  TIP3      H1              8.0009112142       14.2120342980       10.8148713663  W2        5497            0.0000000000
     11097      3699  TIP3      H2              7.8512812142       15.6388142980       10.3313713663  W2        5497            0.0000000000
     11098      3700  TIP3      OH2             4.3072212142       11.9843842980       10.5353213663  W2        5498            0.0000000000
     11099      3700  TIP3      H1              3.6211512142       12.3366342980       11.1022913663  W2        5498            0.0000000000
     11100      3700  TIP3      H2              4.8300112142       12.7473442980       10.2887513663  W2        5498            0.0000000000
     11101      3701  TIP3      OH2            10.5918312142       16.4294142980       10.7742013663  W2        5501            0.0000000000
     11102      3701  TIP3      H1              9.7754412142       16.9263842980       10.8266313663  W2        5501            0.0000000000
     11103      3701  TIP3      H2             11.1214612142       16.9047642980       10.1340813663  W2        5501            0.0000000000
     11104      3702  TIP3      OH2             7.9301412142       17.4731342980       10.7558913663  W2        5505            0.0000000000
     11105      3702  TIP3      H1              8.0910112142       18.2728842980       10.2551513663  W2        5505            0.0000000000
     11106      3702  TIP3      H2              7.7329212142       17.7797342980       11.6409513663  W2        5505            0.0000000000
     11107      3703  TIP3      OH2             6.6645812142        4.1710542980       10.3716513663  W2        5506            0.0000000000
     11108      3703  TIP3      H1              6.5810612142        5.0593642980       10.7182913663  W2        5506            0.0000000000
     11109      3703  TIP3      H2              7.5546112142        3.9057242980       10.6033313663  W2        5506            0.0000000000
     11110      3704  TIP3      OH2             4.9231112142       14.5982742980        9.4321013663  W2        5509            0.0000000000
     11111      3704  TIP3      H1              5.5152612142       15.2977542980        9.7083413663  W2        5509            0.0000000000
     11112      3704  TIP3      H2              5.3824112142       14.1652242980        8.7125613663  W2        5509            0.0000000000
     11113      3705  TIP3      OH2             3.2390312142        7.2625742980        8.5480413663  W2        5510            0.0000000000
     11114      3705  TIP3      H1              3.1942912142        8.2018842980        8.7267413663  W2        5510            0.0000000000
     11115      3705  TIP3      H2              2.3513512142        7.0270642980        8.2782513663  W2        5510            0.0000000000
     11116      3706  TIP3      OH2            10.9552312142       17.0248142980        7.7071213663  W2        5516            0.0000000000
     11117      3706  TIP3      H1             10.3113312142       16.3936742980        8.0284913663  W2        5516            0.0000000000
     11118      3706  TIP3      H2             11.7170612142       16.4936142980        7.4754713663  W2        5516            0.0000000000
     11119      3707  TIP3      OH2            15.5595212142       16.8418042980        7.9409213663  W2        5518            0.0000000000
     11120      3707  TIP3      H1             15.8425612142       16.0473242980        8.3936113663  W2        5518            0.0000000000
     11121      3707  TIP3      H2             16.2993112142       17.0749042980        7.3800313663  W2        5518            0.0000000000
     11122      3708  TIP3      OH2             6.5142512142       12.7512942980        7.7984113663  W2        5520            0.0000000000
     11123      3708  TIP3      H1              6.5786612142       11.9572542980        8.3290513663  W2        5520            0.0000000000
     11124      3708  TIP3      H2              7.1671712142       12.6325742980        7.1086113663  W2        5520            0.0000000000
     11125      3709  TIP3      OH2            11.8665912142       13.7984642980        7.5342113663  W2        5522            0.0000000000
     11126      3709  TIP3      H1             11.5980012142       13.9786742980        8.4351013663  W2        5522            0.0000000000
     11127      3709  TIP3      H2             11.6601512142       12.8730842980        7.4027913663  W2        5522            0.0000000000
     11128      3710  TIP3      OH2             7.6636312142       10.7239142980       10.1042113663  W2        5525            0.0000000000
     11129      3710  TIP3      H1              7.2038312142       10.2397442980       10.7900613663  W2        5525            0.0000000000
     11130      3710  TIP3      H2              7.9185012142       10.0554542980        9.4682613663  W2        5525            0.0000000000
     11131      3711  TIP3      OH2             8.7346712142        8.9670942980        8.3665313663  W2        5527            0.0000000000
     11132      3711  TIP3      H1              8.5541712142        8.8122142980        7.4393613663  W2        5527            0.0000000000
     11133      3711  TIP3      H2              9.6847212142        9.0749642980        8.4113213663  W2        5527            0.0000000000
     11134      3712  TIP3      OH2            18.1245012142       11.3215142980        7.8123413663  W2        5529            0.0000000000
     11135      3712  TIP3      H1             17.8509812142       10.8970642980        6.9991713663  W2        5529            0.0000000000
     11136      3712  TIP3      H2             18.1639112142       12.2529642980        7.5953813663  W2        5529            0.0000000000
     11137      3713  TIP3      OH2             8.6318412142       19.6574642980        9.3678913663  W2        5543            0.0000000000
     11138      3713  TIP3      H1              9.5649112142       19.8153342980        9.5117313663  W2        5543            0.0000000000
     11139      3713  TIP3      H2              8.3677212142       20.3327642980        8.7430413663  W2        5543            0.0000000000
     11140      3714  TIP3      OH2             2.2003312142       14.2938442980        8.8507013663  W2        5544            0.0000000000
     11141      3714  TIP3      H1              3.1142512142       14.3727342980        9.1240913663  W2        5544            0.0000000000
     11142      3714  TIP3      H2              2.2076412142       13.6068042980        8.1842613663  W2        5544            0.0000000000
     11143      3715  TIP3      OH2            19.2456512142       10.1449142980       10.0020813663  W2        5554            0.0000000000
     11144      3715  TIP3      H1             18.7237612142       10.5013242980        9.2831713663  W2        5554            0.0000000000
     11145      3715  TIP3      H2             19.2125712142       10.8196942980       10.6801713663  W2        5554            0.0000000000
     11146      3716  TIP3      OH2            17.5945512142        7.3844742980        8.5527913663  W2        5555            0.0000000000
     11147      3716  TIP3      H1             17.6909912142        8.0511742980        7.8727613663  W2        5555            0.0000000000
     11148      3716  TIP3      H2             17.4545112142        6.5691042980        8.0713413663  W2        5555            0.0000000000
     11149      3717  TIP3      OH2            16.8419312142        4.7924542980        7.6703413663  W2        5560            0.0000000000
     11150      3717  TIP3      H1             17.4525112142        4.4211342980        8.3071613663  W2        5560            0.0000000000
     11151      3717  TIP3      H2             16.0050812142        4.3711442980        7.8663413663  W2        5560            0.0000000000
     11152      3718  TIP3      OH2            18.9546012142        3.6780342980        9.2125613663  W2        5570            0.0000000000
     11153      3718  TIP3      H1             19.3668612142        2.9566042980        8.7373613663  W2        5570            0.0000000000
     11154      3718  TIP3      H2             19.6362512142        4.3474942980        9.2709913663  W2        5570            0.0000000000
     11155      3719  TIP3      OH2             2.5119312142        1.7255742980       10.3182913663  W2        5591            0.0000000000
     11156      3719  TIP3      H1              2.9510012142        2.3366242980        9.7266413663  W2        5591            0.0000000000
     11157      3719  TIP3      H2              1.8781712142        2.2639842980       10.7922913663  W2        5591            0.0000000000
     11158      3720  TIP3      OH2             4.3728412142        3.6417242980        8.7607013663  W2        5596            0.0000000000
     11159      3720  TIP3      H1              4.8641812142        3.0119642980        8.2332513663  W2        5596            0.0000000000
     11160      3720  TIP3      H2              4.9964712142        3.9376642980        9.4238213663  W2        5596            0.0000000000
     11161      3721  TIP3      OH2            11.2772312142       18.8832842980        9.6134213663  W2        5598            0.0000000000
     11162      3721  TIP3      H1             12.1432512142       19.2500242980        9.4352413663  W2        5598            0.0000000000
     11163      3721  TIP3      H2             11.0305112142       18.4440842980        8.7995013663  W2        5598            0.0000000000
     11164      3722  TIP3      OH2             4.2310012142       18.5938742980        8.2410113663  W2        5602            0.0000000000
     11165      3722  TIP3      H1              3.9634612142       18.8801642980        9.1143213663  W2        5602            0.0000000000
     11166      3722  TIP3      H2              5.0022612142       18.0477942980        8.3932613663  W2        5602            0.0000000000
     11167      3723  TIP3      OH2            30.3850212142        8.7854242980        8.9639613663  W2        5633            0.0000000000
     11168      3723  TIP3      H1             31.0860112142        8.8081142980        9.6153613663  W2        5633            0.0000000000
     11169      3723  TIP3      H2             30.6873112142        8.1573942980        8.3078913663  W2        5633            0.0000000000
     11170      3724  TIP3      OH2            32.6078212142        9.6996142980       10.5621713663  W2        5641            0.0000000000
     11171      3724  TIP3      H1             33.1873712142        9.8496442980       11.3090613663  W2        5641            0.0000000000
     11172      3724  TIP3      H2             33.0218212142       10.1703542980        9.8388113663  W2        5641            0.0000000000
     11173      3725  TIP3      OH2            36.3066612142        1.4496542980       10.3751413663  W2        5645            0.0000000000
     11174      3725  TIP3      H1             35.4067312142        1.5885542980       10.6702013663  W2        5645            0.0000000000
     11175      3725  TIP3      H2             36.5585012142        2.2811142980        9.9733113663  W2        5645            0.0000000000
     11176      3726  TIP3      OH2            32.9082212142       18.5469542980        9.4146413663  W2        5652            0.0000000000
     11177      3726  TIP3      H1             33.2830612142       17.8025642980        8.9439013663  W2        5652            0.0000000000
     11178      3726  TIP3      H2             32.9125912142       18.2770142980       10.3329713663  W2        5652            0.0000000000
     11179      3727  TIP3      OH2            34.0851312142       10.7324442980        8.1919613663  W2        5659            0.0000000000
     11180      3727  TIP3      H1             34.1272112142       10.5098342980        7.2619613663  W2        5659            0.0000000000
     11181      3727  TIP3      H2             34.9343412142       11.1311542980        8.3819513663  W2        5659            0.0000000000
     11182      3728  TIP3      OH2            29.6578812142        4.6082642980        8.8622913663  W2        5660            0.0000000000
     11183      3728  TIP3      H1             29.4043612142        4.6274242980        9.7851013663  W2        5660            0.0000000000
     11184      3728  TIP3      H2             29.4010912142        3.7368042980        8.5609113663  W2        5660            0.0000000000
     11185      3729  TIP3      OH2            26.5401712142        5.0539142980        7.9633313663  W2        5667            0.0000000000
     11186      3729  TIP3      H1             26.1092412142        4.6089242980        8.6930713663  W2        5667            0.0000000000
     11187      3729  TIP3      H2             25.8220412142        5.4255442980        7.4510813663  W2        5667            0.0000000000
     11188      3730  TIP3      OH2            21.0567212142        5.5420642980       10.4392413663  W2        5669            0.0000000000
     11189      3730  TIP3      H1             21.5308912142        6.1330542980        9.8543313663  W2        5669            0.0000000000
     11190      3730  TIP3      H2             20.3393612142        6.0723542980       10.7862513663  W2        5669            0.0000000000
     11191      3731  TIP3      OH2            25.1583612142        7.8312042980        9.3457713663  W2        5675            0.0000000000
     11192      3731  TIP3      H1             24.6158712142        7.4515842980        8.6545313663  W2        5675            0.0000000000
     11193      3731  TIP3      H2             25.9918512142        8.0256742980        8.9171813663  W2        5675            0.0000000000
     11194      3732  TIP3      OH2            32.3913212142        5.2107642980        9.4808413663  W2        5683            0.0000000000
     11195      3732  TIP3      H1             31.4527412142        5.3223242980        9.3297213663  W2        5683            0.0000000000
     11196      3732  TIP3      H2             32.6885312142        6.0674542980        9.7874113663  W2        5683            0.0000000000
     11197      3733  TIP3      OH2            33.1096712142        7.0780342980       11.1415813663  W2        5685            0.0000000000
     11198      3733  TIP3      H1             34.0015712142        6.9405342980       11.4607013663  W2        5685            0.0000000000
     11199      3733  TIP3      H2             33.1660312142        7.8686442980       10.6049313663  W2        5685            0.0000000000
     11200      3734  TIP3      OH2            30.6190512142       13.8552042980       10.3070413663  W2        5687            0.0000000000
     11201      3734  TIP3      H1             30.3238912142       14.6819942980       10.6885213663  W2        5687            0.0000000000
     11202      3734  TIP3      H2             29.9160512142       13.2358942980       10.5031813663  W2        5687            0.0000000000
     11203      3735  TIP3      OH2            21.7481812142       10.0720042980        9.0427613663  W2        5694            0.0000000000
     11204      3735  TIP3      H1             22.3641712142       10.6987242980        9.4222413663  W2        5694            0.0000000000
     11205      3735  TIP3      H2             20.8864412142       10.3879842980        9.3144113663  W2        5694            0.0000000000
     11206      3736  TIP3      OH2            33.6822712142       14.0500642980        9.1215213663  W2        5699            0.0000000000
     11207      3736  TIP3      H1             34.0355812142       13.6700442980        9.9258713663  W2        5699            0.0000000000
     11208      3736  TIP3      H2             32.7336212142       13.9565442980        9.2084513663  W2        5699            0.0000000000
     11209      3737  TIP3      OH2            27.7730512142       15.1616742980        7.5685213663  W2        5704            0.0000000000
     11210      3737  TIP3      H1             28.0120312142       14.4134842980        7.0214113663  W2        5704            0.0000000000
     11211      3737  TIP3      H2             27.5041812142       14.7738442980        8.4013013663  W2        5704            0.0000000000
     11212      3738  TIP3      OH2            26.7101112142       14.7320542980       10.0247813663  W2        5705            0.0000000000
     11213      3738  TIP3      H1             26.8569112142       14.2120342980       10.8148713663  W2        5705            0.0000000000
     11214      3738  TIP3      H2             26.7072812142       15.6388142980       10.3313713663  W2        5705            0.0000000000
     11215      3739  TIP3      OH2            23.1632212142       11.9843842980       10.5353213663  W2        5706            0.0000000000
     11216      3739  TIP3      H1             22.4771512142       12.3366342980       11.1022913663  W2        5706            0.0000000000
     11217      3739  TIP3      H2             23.6860112142       12.7473442980       10.2887513663  W2        5706            0.0000000000
     11218      3740  TIP3      OH2            29.4478312142       16.4294142980       10.7742013663  W2        5709            0.0000000000
     11219      3740  TIP3      H1             28.6314412142       16.9263842980       10.8266313663  W2        5709            0.0000000000
     11220      3740  TIP3      H2             29.9774612142       16.9047642980       10.1340813663  W2        5709            0.0000000000
     11221      3741  TIP3      OH2            26.7861412142       17.4731342980       10.7558913663  W2        5713            0.0000000000
     11222      3741  TIP3      H1             26.9470112142       18.2728842980       10.2551513663  W2        5713            0.0000000000
     11223      3741  TIP3      H2             26.5889212142       17.7797342980       11.6409513663  W2        5713            0.0000000000
     11224      3742  TIP3      OH2            25.5205812142        4.1710542980       10.3716513663  W2        5714            0.0000000000
     11225      3742  TIP3      H1             25.4370612142        5.0593642980       10.7182913663  W2        5714            0.0000000000
     11226      3742  TIP3      H2             26.4106112142        3.9057242980       10.6033313663  W2        5714            0.0000000000
     11227      3743  TIP3      OH2            23.7791112142       14.5982742980        9.4321013663  W2        5717            0.0000000000
     11228      3743  TIP3      H1             24.3712612142       15.2977542980        9.7083413663  W2        5717            0.0000000000
     11229      3743  TIP3      H2             24.2384112142       14.1652242980        8.7125613663  W2        5717            0.0000000000
     11230      3744  TIP3      OH2            22.0950312142        7.2625742980        8.5480413663  W2        5718            0.0000000000
     11231      3744  TIP3      H1             22.0502912142        8.2018842980        8.7267413663  W2        5718            0.0000000000
     11232      3744  TIP3      H2             21.2073512142        7.0270642980        8.2782513663  W2        5718            0.0000000000
     11233      3745  TIP3      OH2            29.8112312142       17.0248142980        7.7071213663  W2        5724            0.0000000000
     11234      3745  TIP3      H1             29.1673312142       16.3936742980        8.0284913663  W2        5724            0.0000000000
     11235      3745  TIP3      H2             30.5730612142       16.4936142980        7.4754713663  W2        5724            0.0000000000
     11236      3746  TIP3      OH2            34.4155212142       16.8418042980        7.9409213663  W2        5726            0.0000000000
     11237      3746  TIP3      H1             34.6985612142       16.0473242980        8.3936113663  W2        5726            0.0000000000
     11238      3746  TIP3      H2             35.1553112142       17.0749042980        7.3800313663  W2        5726            0.0000000000
     11239      3747  TIP3      OH2            25.3702512142       12.7512942980        7.7984113663  W2        5728            0.0000000000
     11240      3747  TIP3      H1             25.4346612142       11.9572542980        8.3290513663  W2        5728            0.0000000000
     11241      3747  TIP3      H2             26.0231712142       12.6325742980        7.1086113663  W2        5728            0.0000000000
     11242      3748  TIP3      OH2            30.7225912142       13.7984642980        7.5342113663  W2        5730            0.0000000000
     11243      3748  TIP3      H1             30.4540012142       13.9786742980        8.4351013663  W2        5730            0.0000000000
     11244      3748  TIP3      H2             30.5161512142       12.8730842980        7.4027913663  W2        5730            0.0000000000
     11245      3749  TIP3      OH2            26.5196312142       10.7239142980       10.1042113663  W2        5733            0.0000000000
     11246      3749  TIP3      H1             26.0598312142       10.2397442980       10.7900613663  W2        5733            0.0000000000
     11247      3749  TIP3      H2             26.7745012142       10.0554542980        9.4682613663  W2        5733            0.0000000000
     11248      3750  TIP3      OH2            27.5906712142        8.9670942980        8.3665313663  W2        5735            0.0000000000
     11249      3750  TIP3      H1             27.4101712142        8.8122142980        7.4393613663  W2        5735            0.0000000000
     11250      3750  TIP3      H2             28.5407212142        9.0749642980        8.4113213663  W2        5735            0.0000000000
     11251      3751  TIP3      OH2            27.4878412142       19.6574642980        9.3678913663  W2        5750            0.0000000000
     11252      3751  TIP3      H1             28.4209112142       19.8153342980        9.5117313663  W2        5750            0.0000000000
     11253      3751  TIP3      H2             27.2237212142       20.3327642980        8.7430413663  W2        5750            0.0000000000
     11254      3752  TIP3      OH2            21.0563312142       14.2938442980        8.8507013663  W2        5751            0.0000000000
     11255      3752  TIP3      H1             21.9702512142       14.3727342980        9.1240913663  W2        5751            0.0000000000
     11256      3752  TIP3      H2             21.0636412142       13.6068042980        8.1842613663  W2        5751            0.0000000000
     11257      3753  TIP3      OH2            36.4505512142        7.3844742980        8.5527913663  W2        5756            0.0000000000
     11258      3753  TIP3      H1             36.5469912142        8.0511742980        7.8727613663  W2        5756            0.0000000000
     11259      3753  TIP3      H2             36.3105112142        6.5691042980        8.0713413663  W2        5756            0.0000000000
     11260      3754  TIP3      OH2            35.6979312142        4.7924542980        7.6703413663  W2        5760            0.0000000000
     11261      3754  TIP3      H1             36.3085112142        4.4211342980        8.3071613663  W2        5760            0.0000000000
     11262      3754  TIP3      H2             34.8610812142        4.3711442980        7.8663413663  W2        5760            0.0000000000
     11263      3755  TIP3      OH2            21.3679312142        1.7255742980       10.3182913663  W2        5786            0.0000000000
     11264      3755  TIP3      H1             21.8070012142        2.3366242980        9.7266413663  W2        5786            0.0000000000
     11265      3755  TIP3      H2             20.7341712142        2.2639842980       10.7922913663  W2        5786            0.0000000000
     11266      3756  TIP3      OH2            23.2288412142        3.6417242980        8.7607013663  W2        5791            0.0000000000
     11267      3756  TIP3      H1             23.7201812142        3.0119642980        8.2332513663  W2        5791            0.0000000000
     11268      3756  TIP3      H2             23.8524712142        3.9376642980        9.4238213663  W2        5791            0.0000000000
     11269      3757  TIP3      OH2            30.1332312142       18.8832842980        9.6134213663  W2        5793            0.0000000000
     11270      3757  TIP3      H1             30.9992512142       19.2500242980        9.4352413663  W2        5793            0.0000000000
     11271      3757  TIP3      H2             29.8865112142       18.4440842980        8.7995013663  W2        5793            0.0000000000
     11272      3758  TIP3      OH2            23.0870012142       18.5938742980        8.2410113663  W2        5796            0.0000000000
     11273      3758  TIP3      H1             22.8194612142       18.8801642980        9.1143213663  W2        5796            0.0000000000
     11274      3758  TIP3      H2             23.8582612142       18.0477942980        8.3932613663  W2        5796            0.0000000000
     11275      3759  TIP3      OH2           -26.1829787858       27.6414242980        8.9639613663  W2        5828            0.0000000000
     11276      3759  TIP3      H1            -25.4819887858       27.6641142980        9.6153613663  W2        5828            0.0000000000
     11277      3759  TIP3      H2            -25.8806887858       27.0133942980        8.3078913663  W2        5828            0.0000000000
     11278      3760  TIP3      OH2           -23.9601787858       28.5556142980       10.5621713663  W2        5837            0.0000000000
     11279      3760  TIP3      H1            -23.3806287858       28.7056442980       11.3090613663  W2        5837            0.0000000000
     11280      3760  TIP3      H2            -23.5461787858       29.0263542980        9.8388113663  W2        5837            0.0000000000
     11281      3761  TIP3      OH2           -20.2613387858       20.3056542980       10.3751413663  W2        5841            0.0000000000
     11282      3761  TIP3      H1            -21.1612687858       20.4445542980       10.6702013663  W2        5841            0.0000000000
     11283      3761  TIP3      H2            -20.0094987858       21.1371142980        9.9733113663  W2        5841            0.0000000000
     11284      3762  TIP3      OH2           -19.0721987858       34.6718942980        8.7515313663  W2        5843            0.0000000000
     11285      3762  TIP3      H1            -18.9988487858       35.6109142980        8.9220613663  W2        5843            0.0000000000
     11286      3762  TIP3      H2            -18.1666887858       34.3667542980        8.6952613663  W2        5843            0.0000000000
     11287      3763  TIP3      OH2           -22.4828687858       29.5884442980        8.1919613663  W2        5853            0.0000000000
     11288      3763  TIP3      H1            -22.4407887858       29.3658342980        7.2619613663  W2        5853            0.0000000000
     11289      3763  TIP3      H2            -21.6336587858       29.9871542980        8.3819513663  W2        5853            0.0000000000
     11290      3764  TIP3      OH2           -26.9101187858       23.4642642980        8.8622913663  W2        5854            0.0000000000
     11291      3764  TIP3      H1            -27.1636387858       23.4834242980        9.7851013663  W2        5854            0.0000000000
     11292      3764  TIP3      H2            -27.1669087858       22.5928042980        8.5609113663  W2        5854            0.0000000000
     11293      3765  TIP3      OH2           -30.0278287858       23.9099142980        7.9633313663  W2        5861            0.0000000000
     11294      3765  TIP3      H1            -30.4587587858       23.4649242980        8.6930713663  W2        5861            0.0000000000
     11295      3765  TIP3      H2            -30.7459587858       24.2815442980        7.4510813663  W2        5861            0.0000000000
     11296      3766  TIP3      OH2           -35.5112787858       24.3980642980       10.4392413663  W2        5863            0.0000000000
     11297      3766  TIP3      H1            -35.0371087858       24.9890542980        9.8543313663  W2        5863            0.0000000000
     11298      3766  TIP3      H2            -36.2286387858       24.9283542980       10.7862513663  W2        5863            0.0000000000
     11299      3767  TIP3      OH2           -31.4096387858       26.6872042980        9.3457713663  W2        5869            0.0000000000
     11300      3767  TIP3      H1            -31.9521287858       26.3075842980        8.6545313663  W2        5869            0.0000000000
     11301      3767  TIP3      H2            -30.5761487858       26.8816742980        8.9171813663  W2        5869            0.0000000000
     11302      3768  TIP3      OH2           -24.1766787858       24.0667642980        9.4808413663  W2        5876            0.0000000000
     11303      3768  TIP3      H1            -25.1152587858       24.1783242980        9.3297213663  W2        5876            0.0000000000
     11304      3768  TIP3      H2            -23.8794687858       24.9234542980        9.7874113663  W2        5876            0.0000000000
     11305      3769  TIP3      OH2           -23.4583287858       25.9340342980       11.1415813663  W2        5878            0.0000000000
     11306      3769  TIP3      H1            -22.5664287858       25.7965342980       11.4607013663  W2        5878            0.0000000000
     11307      3769  TIP3      H2            -23.4019687858       26.7246442980       10.6049313663  W2        5878            0.0000000000
     11308      3770  TIP3      OH2           -25.9489487858       32.7112042980       10.3070413663  W2        5880            0.0000000000
     11309      3770  TIP3      H1            -26.2441087858       33.5379942980       10.6885213663  W2        5880            0.0000000000
     11310      3770  TIP3      H2            -26.6519487858       32.0918942980       10.5031813663  W2        5880            0.0000000000
     11311      3771  TIP3      OH2           -18.5734587858       26.1434442980       10.8362513663  W2        5884            0.0000000000
     11312      3771  TIP3      H1            -19.1278287858       25.7472442980       10.1640013663  W2        5884            0.0000000000
     11313      3771  TIP3      H2            -18.4730987858       27.0539642980       10.5585813663  W2        5884            0.0000000000
     11314      3772  TIP3      OH2           -34.8198187858       28.9280042980        9.0427613663  W2        5889            0.0000000000
     11315      3772  TIP3      H1            -34.2038287858       29.5547242980        9.4222413663  W2        5889            0.0000000000
     11316      3772  TIP3      H2            -35.6815587858       29.2439842980        9.3144113663  W2        5889            0.0000000000
     11317      3773  TIP3      OH2           -22.8857287858       32.9060642980        9.1215213663  W2        5894            0.0000000000
     11318      3773  TIP3      H1            -22.5324187858       32.5260442980        9.9258713663  W2        5894            0.0000000000
     11319      3773  TIP3      H2            -23.8343787858       32.8125442980        9.2084513663  W2        5894            0.0000000000
     11320      3774  TIP3      OH2           -28.7949487858       34.0176742980        7.5685213663  W2        5899            0.0000000000
     11321      3774  TIP3      H1            -28.5559687858       33.2694842980        7.0214113663  W2        5899            0.0000000000
     11322      3774  TIP3      H2            -29.0638187858       33.6298442980        8.4013013663  W2        5899            0.0000000000
     11323      3775  TIP3      OH2           -29.8578887858       33.5880542980       10.0247813663  W2        5900            0.0000000000
     11324      3775  TIP3      H1            -29.7110887858       33.0680342980       10.8148713663  W2        5900            0.0000000000
     11325      3775  TIP3      H2            -29.8607187858       34.4948142980       10.3313713663  W2        5900            0.0000000000
     11326      3776  TIP3      OH2           -33.4047787858       30.8403842980       10.5353213663  W2        5901            0.0000000000
     11327      3776  TIP3      H1            -34.0908487858       31.1926342980       11.1022913663  W2        5901            0.0000000000
     11328      3776  TIP3      H2            -32.8819887858       31.6033442980       10.2887513663  W2        5901            0.0000000000
     11329      3777  TIP3      OH2           -27.1201687858       35.2854142980       10.7742013663  W2        5904            0.0000000000
     11330      3777  TIP3      H1            -27.9365587858       35.7823842980       10.8266313663  W2        5904            0.0000000000
     11331      3777  TIP3      H2            -26.5905387858       35.7607642980       10.1340813663  W2        5904            0.0000000000
     11332      3778  TIP3      OH2           -29.7818587858       36.3291342980       10.7558913663  W2        5908            0.0000000000
     11333      3778  TIP3      H1            -29.6209887858       37.1288842980       10.2551513663  W2        5908            0.0000000000
     11334      3778  TIP3      H2            -29.9790787858       36.6357342980       11.6409513663  W2        5908            0.0000000000
     11335      3779  TIP3      OH2           -31.0474187858       23.0270542980       10.3716513663  W2        5909            0.0000000000
     11336      3779  TIP3      H1            -31.1309387858       23.9153642980       10.7182913663  W2        5909            0.0000000000
     11337      3779  TIP3      H2            -30.1573887858       22.7617242980       10.6033313663  W2        5909            0.0000000000
     11338      3780  TIP3      OH2           -32.7888887858       33.4542742980        9.4321013663  W2        5912            0.0000000000
     11339      3780  TIP3      H1            -32.1967387858       34.1537542980        9.7083413663  W2        5912            0.0000000000
     11340      3780  TIP3      H2            -32.3295887858       33.0212242980        8.7125613663  W2        5912            0.0000000000
     11341      3781  TIP3      OH2           -34.4729687858       26.1185742980        8.5480413663  W2        5913            0.0000000000
     11342      3781  TIP3      H1            -34.5177087858       27.0578842980        8.7267413663  W2        5913            0.0000000000
     11343      3781  TIP3      H2            -35.3606487858       25.8830642980        8.2782513663  W2        5913            0.0000000000
     11344      3782  TIP3      OH2           -26.7567687858       35.8808142980        7.7071213663  W2        5917            0.0000000000
     11345      3782  TIP3      H1            -27.4006687858       35.2496742980        8.0284913663  W2        5917            0.0000000000
     11346      3782  TIP3      H2            -25.9949387858       35.3496142980        7.4754713663  W2        5917            0.0000000000
     11347      3783  TIP3      OH2           -22.1524787858       35.6978042980        7.9409213663  W2        5919            0.0000000000
     11348      3783  TIP3      H1            -21.8694387858       34.9033242980        8.3936113663  W2        5919            0.0000000000
     11349      3783  TIP3      H2            -21.4126887858       35.9309042980        7.3800313663  W2        5919            0.0000000000
     11350      3784  TIP3      OH2           -31.1977487858       31.6072942980        7.7984113663  W2        5921            0.0000000000
     11351      3784  TIP3      H1            -31.1333387858       30.8132542980        8.3290513663  W2        5921            0.0000000000
     11352      3784  TIP3      H2            -30.5448287858       31.4885742980        7.1086113663  W2        5921            0.0000000000
     11353      3785  TIP3      OH2           -25.8454087858       32.6544642980        7.5342113663  W2        5923            0.0000000000
     11354      3785  TIP3      H1            -26.1139987858       32.8346742980        8.4351013663  W2        5923            0.0000000000
     11355      3785  TIP3      H2            -26.0518487858       31.7290842980        7.4027913663  W2        5923            0.0000000000
     11356      3786  TIP3      OH2           -30.0483687858       29.5799142980       10.1042113663  W2        5926            0.0000000000
     11357      3786  TIP3      H1            -30.5081687858       29.0957442980       10.7900613663  W2        5926            0.0000000000
     11358      3786  TIP3      H2            -29.7934987858       28.9114542980        9.4682613663  W2        5926            0.0000000000
     11359      3787  TIP3      OH2           -28.9773287858       27.8230942980        8.3665313663  W2        5928            0.0000000000
     11360      3787  TIP3      H1            -29.1578287858       27.6682142980        7.4393613663  W2        5928            0.0000000000
     11361      3787  TIP3      H2            -28.0272787858       27.9309642980        8.4113213663  W2        5928            0.0000000000
     11362      3788  TIP3      OH2           -19.5874987858       30.1775142980        7.8123413663  W2        5930            0.0000000000
     11363      3788  TIP3      H1            -19.8610187858       29.7530642980        6.9991713663  W2        5930            0.0000000000
     11364      3788  TIP3      H2            -19.5480887858       31.1089642980        7.5953813663  W2        5930            0.0000000000
     11365      3789  TIP3      OH2           -35.5116687858       33.1498442980        8.8507013663  W2        5944            0.0000000000
     11366      3789  TIP3      H1            -34.5977487858       33.2287342980        9.1240913663  W2        5944            0.0000000000
     11367      3789  TIP3      H2            -35.5043587858       32.4628042980        8.1842613663  W2        5944            0.0000000000
     11368      3790  TIP3      OH2           -18.4663487858       29.0009142980       10.0020813663  W2        5951            0.0000000000
     11369      3790  TIP3      H1            -18.9882387858       29.3573242980        9.2831713663  W2        5951            0.0000000000
     11370      3790  TIP3      H2            -18.4994287858       29.6756942980       10.6801713663  W2        5951            0.0000000000
     11371      3791  TIP3      OH2           -20.1174487858       26.2404742980        8.5527913663  W2        5952            0.0000000000
     11372      3791  TIP3      H1            -20.0210087858       26.9071742980        7.8727613663  W2        5952            0.0000000000
     11373      3791  TIP3      H2            -20.2574887858       25.4251042980        8.0713413663  W2        5952            0.0000000000
     11374      3792  TIP3      OH2           -20.8700687858       23.6484542980        7.6703413663  W2        5957            0.0000000000
     11375      3792  TIP3      H1            -20.2594887858       23.2771342980        8.3071613663  W2        5957            0.0000000000
     11376      3792  TIP3      H2            -21.7069187858       23.2271442980        7.8663413663  W2        5957            0.0000000000
     11377      3793  TIP3      OH2           -18.7573987858       22.5340342980        9.2125613663  W2        5967            0.0000000000
     11378      3793  TIP3      H1            -18.3451387858       21.8126042980        8.7373613663  W2        5967            0.0000000000
     11379      3793  TIP3      H2            -18.0757487858       23.2034942980        9.2709913663  W2        5967            0.0000000000
     11380      3794  TIP3      OH2           -35.2000687858       20.5815742980       10.3182913663  W2        5979            0.0000000000
     11381      3794  TIP3      H1            -34.7609987858       21.1926242980        9.7266413663  W2        5979            0.0000000000
     11382      3794  TIP3      H2            -35.8338287858       21.1199842980       10.7922913663  W2        5979            0.0000000000
     11383      3795  TIP3      OH2           -33.3391587858       22.4977242980        8.7607013663  W2        5984            0.0000000000
     11384      3795  TIP3      H1            -32.8478187858       21.8679642980        8.2332513663  W2        5984            0.0000000000
     11385      3795  TIP3      H2            -32.7155287858       22.7936642980        9.4238213663  W2        5984            0.0000000000
     11386      3796  TIP3      OH2            -7.3269787858       27.6414242980        8.9639613663  W2        6019            0.0000000000
     11387      3796  TIP3      H1             -6.6259887858       27.6641142980        9.6153613663  W2        6019            0.0000000000
     11388      3796  TIP3      H2             -7.0246887858       27.0133942980        8.3078913663  W2        6019            0.0000000000
     11389      3797  TIP3      OH2            -5.1041787858       28.5556142980       10.5621713663  W2        6028            0.0000000000
     11390      3797  TIP3      H1             -4.5246287858       28.7056442980       11.3090613663  W2        6028            0.0000000000
     11391      3797  TIP3      H2             -4.6901787858       29.0263542980        9.8388113663  W2        6028            0.0000000000
     11392      3798  TIP3      OH2            -1.4053387858       20.3056542980       10.3751413663  W2        6032            0.0000000000
     11393      3798  TIP3      H1             -2.3052687858       20.4445542980       10.6702013663  W2        6032            0.0000000000
     11394      3798  TIP3      H2             -1.1534987858       21.1371142980        9.9733113663  W2        6032            0.0000000000
     11395      3799  TIP3      OH2            -0.2161987858       34.6718942980        8.7515313663  W2        6034            0.0000000000
     11396      3799  TIP3      H1             -0.1428487858       35.6109142980        8.9220613663  W2        6034            0.0000000000
     11397      3799  TIP3      H2              0.6893112142       34.3667542980        8.6952613663  W2        6034            0.0000000000
     11398      3800  TIP3      OH2            -3.6268687858       29.5884442980        8.1919613663  W2        6044            0.0000000000
     11399      3800  TIP3      H1             -3.5847887858       29.3658342980        7.2619613663  W2        6044            0.0000000000
     11400      3800  TIP3      H2             -2.7776587858       29.9871542980        8.3819513663  W2        6044            0.0000000000
     11401      3801  TIP3      OH2            -8.0541187858       23.4642642980        8.8622913663  W2        6045            0.0000000000
     11402      3801  TIP3      H1             -8.3076387858       23.4834242980        9.7851013663  W2        6045            0.0000000000
     11403      3801  TIP3      H2             -8.3109087858       22.5928042980        8.5609113663  W2        6045            0.0000000000
     11404      3802  TIP3      OH2           -11.1718287858       23.9099142980        7.9633313663  W2        6052            0.0000000000
     11405      3802  TIP3      H1            -11.6027587858       23.4649242980        8.6930713663  W2        6052            0.0000000000
     11406      3802  TIP3      H2            -11.8899587858       24.2815442980        7.4510813663  W2        6052            0.0000000000
     11407      3803  TIP3      OH2           -16.6552787858       24.3980642980       10.4392413663  W2        6054            0.0000000000
     11408      3803  TIP3      H1            -16.1811087858       24.9890542980        9.8543313663  W2        6054            0.0000000000
     11409      3803  TIP3      H2            -17.3726387858       24.9283542980       10.7862513663  W2        6054            0.0000000000
     11410      3804  TIP3      OH2           -12.5536387858       26.6872042980        9.3457713663  W2        6060            0.0000000000
     11411      3804  TIP3      H1            -13.0961287858       26.3075842980        8.6545313663  W2        6060            0.0000000000
     11412      3804  TIP3      H2            -11.7201487858       26.8816742980        8.9171813663  W2        6060            0.0000000000
     11413      3805  TIP3      OH2            -5.3206787858       24.0667642980        9.4808413663  W2        6067            0.0000000000
     11414      3805  TIP3      H1             -6.2592587858       24.1783242980        9.3297213663  W2        6067            0.0000000000
     11415      3805  TIP3      H2             -5.0234687858       24.9234542980        9.7874113663  W2        6067            0.0000000000
     11416      3806  TIP3      OH2            -4.6023287858       25.9340342980       11.1415813663  W2        6069            0.0000000000
     11417      3806  TIP3      H1             -3.7104287858       25.7965342980       11.4607013663  W2        6069            0.0000000000
     11418      3806  TIP3      H2             -4.5459687858       26.7246442980       10.6049313663  W2        6069            0.0000000000
     11419      3807  TIP3      OH2            -7.0929487858       32.7112042980       10.3070413663  W2        6071            0.0000000000
     11420      3807  TIP3      H1             -7.3881087858       33.5379942980       10.6885213663  W2        6071            0.0000000000
     11421      3807  TIP3      H2             -7.7959487858       32.0918942980       10.5031813663  W2        6071            0.0000000000
     11422      3808  TIP3      OH2             0.2825412142       26.1434442980       10.8362513663  W2        6075            0.0000000000
     11423      3808  TIP3      H1             -0.2718287858       25.7472442980       10.1640013663  W2        6075            0.0000000000
     11424      3808  TIP3      H2              0.3829012142       27.0539642980       10.5585813663  W2        6075            0.0000000000
     11425      3809  TIP3      OH2           -15.9638187858       28.9280042980        9.0427613663  W2        6080            0.0000000000
     11426      3809  TIP3      H1            -15.3478287858       29.5547242980        9.4222413663  W2        6080            0.0000000000
     11427      3809  TIP3      H2            -16.8255587858       29.2439842980        9.3144113663  W2        6080            0.0000000000
     11428      3810  TIP3      OH2            -4.0297287858       32.9060642980        9.1215213663  W2        6085            0.0000000000
     11429      3810  TIP3      H1             -3.6764187858       32.5260442980        9.9258713663  W2        6085            0.0000000000
     11430      3810  TIP3      H2             -4.9783787858       32.8125442980        9.2084513663  W2        6085            0.0000000000
     11431      3811  TIP3      OH2            -9.9389487858       34.0176742980        7.5685213663  W2        6090            0.0000000000
     11432      3811  TIP3      H1             -9.6999687858       33.2694842980        7.0214113663  W2        6090            0.0000000000
     11433      3811  TIP3      H2            -10.2078187858       33.6298442980        8.4013013663  W2        6090            0.0000000000
     11434      3812  TIP3      OH2           -11.0018887858       33.5880542980       10.0247813663  W2        6091            0.0000000000
     11435      3812  TIP3      H1            -10.8550887858       33.0680342980       10.8148713663  W2        6091            0.0000000000
     11436      3812  TIP3      H2            -11.0047187858       34.4948142980       10.3313713663  W2        6091            0.0000000000
     11437      3813  TIP3      OH2           -14.5487787858       30.8403842980       10.5353213663  W2        6092            0.0000000000
     11438      3813  TIP3      H1            -15.2348487858       31.1926342980       11.1022913663  W2        6092            0.0000000000
     11439      3813  TIP3      H2            -14.0259887858       31.6033442980       10.2887513663  W2        6092            0.0000000000
     11440      3814  TIP3      OH2            -8.2641687858       35.2854142980       10.7742013663  W2        6095            0.0000000000
     11441      3814  TIP3      H1             -9.0805587858       35.7823842980       10.8266313663  W2        6095            0.0000000000
     11442      3814  TIP3      H2             -7.7345387858       35.7607642980       10.1340813663  W2        6095            0.0000000000
     11443      3815  TIP3      OH2           -10.9258587858       36.3291342980       10.7558913663  W2        6099            0.0000000000
     11444      3815  TIP3      H1            -10.7649887858       37.1288842980       10.2551513663  W2        6099            0.0000000000
     11445      3815  TIP3      H2            -11.1230787858       36.6357342980       11.6409513663  W2        6099            0.0000000000
     11446      3816  TIP3      OH2           -12.1914187858       23.0270542980       10.3716513663  W2        6100            0.0000000000
     11447      3816  TIP3      H1            -12.2749387858       23.9153642980       10.7182913663  W2        6100            0.0000000000
     11448      3816  TIP3      H2            -11.3013887858       22.7617242980       10.6033313663  W2        6100            0.0000000000
     11449      3817  TIP3      OH2           -13.9328887858       33.4542742980        9.4321013663  W2        6103            0.0000000000
     11450      3817  TIP3      H1            -13.3407387858       34.1537542980        9.7083413663  W2        6103            0.0000000000
     11451      3817  TIP3      H2            -13.4735887858       33.0212242980        8.7125613663  W2        6103            0.0000000000
     11452      3818  TIP3      OH2           -15.6169687858       26.1185742980        8.5480413663  W2        6104            0.0000000000
     11453      3818  TIP3      H1            -15.6617087858       27.0578842980        8.7267413663  W2        6104            0.0000000000
     11454      3818  TIP3      H2            -16.5046487858       25.8830642980        8.2782513663  W2        6104            0.0000000000
     11455      3819  TIP3      OH2            -7.9007687858       35.8808142980        7.7071213663  W2        6108            0.0000000000
     11456      3819  TIP3      H1             -8.5446687858       35.2496742980        8.0284913663  W2        6108            0.0000000000
     11457      3819  TIP3      H2             -7.1389387858       35.3496142980        7.4754713663  W2        6108            0.0000000000
     11458      3820  TIP3      OH2            -3.2964787858       35.6978042980        7.9409213663  W2        6110            0.0000000000
     11459      3820  TIP3      H1             -3.0134387858       34.9033242980        8.3936113663  W2        6110            0.0000000000
     11460      3820  TIP3      H2             -2.5566887858       35.9309042980        7.3800313663  W2        6110            0.0000000000
     11461      3821  TIP3      OH2           -12.3417487858       31.6072942980        7.7984113663  W2        6112            0.0000000000
     11462      3821  TIP3      H1            -12.2773387858       30.8132542980        8.3290513663  W2        6112            0.0000000000
     11463      3821  TIP3      H2            -11.6888287858       31.4885742980        7.1086113663  W2        6112            0.0000000000
     11464      3822  TIP3      OH2            -6.9894087858       32.6544642980        7.5342113663  W2        6114            0.0000000000
     11465      3822  TIP3      H1             -7.2579987858       32.8346742980        8.4351013663  W2        6114            0.0000000000
     11466      3822  TIP3      H2             -7.1958487858       31.7290842980        7.4027913663  W2        6114            0.0000000000
     11467      3823  TIP3      OH2           -11.1923687858       29.5799142980       10.1042113663  W2        6117            0.0000000000
     11468      3823  TIP3      H1            -11.6521687858       29.0957442980       10.7900613663  W2        6117            0.0000000000
     11469      3823  TIP3      H2            -10.9374987858       28.9114542980        9.4682613663  W2        6117            0.0000000000
     11470      3824  TIP3      OH2           -10.1213287858       27.8230942980        8.3665313663  W2        6119            0.0000000000
     11471      3824  TIP3      H1            -10.3018287858       27.6682142980        7.4393613663  W2        6119            0.0000000000
     11472      3824  TIP3      H2             -9.1712787858       27.9309642980        8.4113213663  W2        6119            0.0000000000
     11473      3825  TIP3      OH2            -0.7314987858       30.1775142980        7.8123413663  W2        6121            0.0000000000
     11474      3825  TIP3      H1             -1.0050187858       29.7530642980        6.9991713663  W2        6121            0.0000000000
     11475      3825  TIP3      H2             -0.6920887858       31.1089642980        7.5953813663  W2        6121            0.0000000000
     11476      3826  TIP3      OH2           -16.6556687858       33.1498442980        8.8507013663  W2        6135            0.0000000000
     11477      3826  TIP3      H1            -15.7417487858       33.2287342980        9.1240913663  W2        6135            0.0000000000
     11478      3826  TIP3      H2            -16.6483587858       32.4628042980        8.1842613663  W2        6135            0.0000000000
     11479      3827  TIP3      OH2             0.3896512142       29.0009142980       10.0020813663  W2        6142            0.0000000000
     11480      3827  TIP3      H1             -0.1322387858       29.3573242980        9.2831713663  W2        6142            0.0000000000
     11481      3827  TIP3      H2              0.3565712142       29.6756942980       10.6801713663  W2        6142            0.0000000000
     11482      3828  TIP3      OH2            -1.2614487858       26.2404742980        8.5527913663  W2        6143            0.0000000000
     11483      3828  TIP3      H1             -1.1650087858       26.9071742980        7.8727613663  W2        6143            0.0000000000
     11484      3828  TIP3      H2             -1.4014887858       25.4251042980        8.0713413663  W2        6143            0.0000000000
     11485      3829  TIP3      OH2            -2.0140687858       23.6484542980        7.6703413663  W2        6148            0.0000000000
     11486      3829  TIP3      H1             -1.4034887858       23.2771342980        8.3071613663  W2        6148            0.0000000000
     11487      3829  TIP3      H2             -2.8509187858       23.2271442980        7.8663413663  W2        6148            0.0000000000
     11488      3830  TIP3      OH2             0.0986012142       22.5340342980        9.2125613663  W2        6158            0.0000000000
     11489      3830  TIP3      H1              0.5108612142       21.8126042980        8.7373613663  W2        6158            0.0000000000
     11490      3830  TIP3      H2              0.7802512142       23.2034942980        9.2709913663  W2        6158            0.0000000000
     11491      3831  TIP3      OH2           -16.3440687858       20.5815742980       10.3182913663  W2        6170            0.0000000000
     11492      3831  TIP3      H1            -15.9049987858       21.1926242980        9.7266413663  W2        6170            0.0000000000
     11493      3831  TIP3      H2            -16.9778287858       21.1199842980       10.7922913663  W2        6170            0.0000000000
     11494      3832  TIP3      OH2           -14.4831587858       22.4977242980        8.7607013663  W2        6175            0.0000000000
     11495      3832  TIP3      H1            -13.9918187858       21.8679642980        8.2332513663  W2        6175            0.0000000000
     11496      3832  TIP3      H2            -13.8595287858       22.7936642980        9.4238213663  W2        6175            0.0000000000
     11497      3833  TIP3      OH2            11.5290212142       27.6414242980        8.9639613663  W2        6210            0.0000000000
     11498      3833  TIP3      H1             12.2300112142       27.6641142980        9.6153613663  W2        6210            0.0000000000
     11499      3833  TIP3      H2             11.8313112142       27.0133942980        8.3078913663  W2        6210            0.0000000000
     11500      3834  TIP3      OH2            13.7518212142       28.5556142980       10.5621713663  W2        6219            0.0000000000
     11501      3834  TIP3      H1             14.3313712142       28.7056442980       11.3090613663  W2        6219            0.0000000000
     11502      3834  TIP3      H2             14.1658212142       29.0263542980        9.8388113663  W2        6219            0.0000000000
     11503      3835  TIP3      OH2            17.4506612142       20.3056542980       10.3751413663  W2        6223            0.0000000000
     11504      3835  TIP3      H1             16.5507312142       20.4445542980       10.6702013663  W2        6223            0.0000000000
     11505      3835  TIP3      H2             17.7025012142       21.1371142980        9.9733113663  W2        6223            0.0000000000
     11506      3836  TIP3      OH2            18.6398012142       34.6718942980        8.7515313663  W2        6225            0.0000000000
     11507      3836  TIP3      H1             18.7131512142       35.6109142980        8.9220613663  W2        6225            0.0000000000
     11508      3836  TIP3      H2             19.5453112142       34.3667542980        8.6952613663  W2        6225            0.0000000000
     11509      3837  TIP3      OH2            15.2291312142       29.5884442980        8.1919613663  W2        6235            0.0000000000
     11510      3837  TIP3      H1             15.2712112142       29.3658342980        7.2619613663  W2        6235            0.0000000000
     11511      3837  TIP3      H2             16.0783412142       29.9871542980        8.3819513663  W2        6235            0.0000000000
     11512      3838  TIP3      OH2            10.8018812142       23.4642642980        8.8622913663  W2        6236            0.0000000000
     11513      3838  TIP3      H1             10.5483612142       23.4834242980        9.7851013663  W2        6236            0.0000000000
     11514      3838  TIP3      H2             10.5450912142       22.5928042980        8.5609113663  W2        6236            0.0000000000
     11515      3839  TIP3      OH2             7.6841712142       23.9099142980        7.9633313663  W2        6243            0.0000000000
     11516      3839  TIP3      H1              7.2532412142       23.4649242980        8.6930713663  W2        6243            0.0000000000
     11517      3839  TIP3      H2              6.9660412142       24.2815442980        7.4510813663  W2        6243            0.0000000000
     11518      3840  TIP3      OH2             2.2007212142       24.3980642980       10.4392413663  W2        6245            0.0000000000
     11519      3840  TIP3      H1              2.6748912142       24.9890542980        9.8543313663  W2        6245            0.0000000000
     11520      3840  TIP3      H2              1.4833612142       24.9283542980       10.7862513663  W2        6245            0.0000000000
     11521      3841  TIP3      OH2             6.3023612142       26.6872042980        9.3457713663  W2        6251            0.0000000000
     11522      3841  TIP3      H1              5.7598712142       26.3075842980        8.6545313663  W2        6251            0.0000000000
     11523      3841  TIP3      H2              7.1358512142       26.8816742980        8.9171813663  W2        6251            0.0000000000
     11524      3842  TIP3      OH2            13.5353212142       24.0667642980        9.4808413663  W2        6258            0.0000000000
     11525      3842  TIP3      H1             12.5967412142       24.1783242980        9.3297213663  W2        6258            0.0000000000
     11526      3842  TIP3      H2             13.8325312142       24.9234542980        9.7874113663  W2        6258            0.0000000000
     11527      3843  TIP3      OH2            14.2536712142       25.9340342980       11.1415813663  W2        6260            0.0000000000
     11528      3843  TIP3      H1             15.1455712142       25.7965342980       11.4607013663  W2        6260            0.0000000000
     11529      3843  TIP3      H2             14.3100312142       26.7246442980       10.6049313663  W2        6260            0.0000000000
     11530      3844  TIP3      OH2            11.7630512142       32.7112042980       10.3070413663  W2        6262            0.0000000000
     11531      3844  TIP3      H1             11.4678912142       33.5379942980       10.6885213663  W2        6262            0.0000000000
     11532      3844  TIP3      H2             11.0600512142       32.0918942980       10.5031813663  W2        6262            0.0000000000
     11533      3845  TIP3      OH2            19.1385412142       26.1434442980       10.8362513663  W2        6266            0.0000000000
     11534      3845  TIP3      H1             18.5841712142       25.7472442980       10.1640013663  W2        6266            0.0000000000
     11535      3845  TIP3      H2             19.2389012142       27.0539642980       10.5585813663  W2        6266            0.0000000000
     11536      3846  TIP3      OH2             2.8921812142       28.9280042980        9.0427613663  W2        6271            0.0000000000
     11537      3846  TIP3      H1              3.5081712142       29.5547242980        9.4222413663  W2        6271            0.0000000000
     11538      3846  TIP3      H2              2.0304412142       29.2439842980        9.3144113663  W2        6271            0.0000000000
     11539      3847  TIP3      OH2            14.8262712142       32.9060642980        9.1215213663  W2        6276            0.0000000000
     11540      3847  TIP3      H1             15.1795812142       32.5260442980        9.9258713663  W2        6276            0.0000000000
     11541      3847  TIP3      H2             13.8776212142       32.8125442980        9.2084513663  W2        6276            0.0000000000
     11542      3848  TIP3      OH2             8.9170512142       34.0176742980        7.5685213663  W2        6281            0.0000000000
     11543      3848  TIP3      H1              9.1560312142       33.2694842980        7.0214113663  W2        6281            0.0000000000
     11544      3848  TIP3      H2              8.6481812142       33.6298442980        8.4013013663  W2        6281            0.0000000000
     11545      3849  TIP3      OH2             7.8541112142       33.5880542980       10.0247813663  W2        6282            0.0000000000
     11546      3849  TIP3      H1              8.0009112142       33.0680342980       10.8148713663  W2        6282            0.0000000000
     11547      3849  TIP3      H2              7.8512812142       34.4948142980       10.3313713663  W2        6282            0.0000000000
     11548      3850  TIP3      OH2             4.3072212142       30.8403842980       10.5353213663  W2        6283            0.0000000000
     11549      3850  TIP3      H1              3.6211512142       31.1926342980       11.1022913663  W2        6283            0.0000000000
     11550      3850  TIP3      H2              4.8300112142       31.6033442980       10.2887513663  W2        6283            0.0000000000
     11551      3851  TIP3      OH2            10.5918312142       35.2854142980       10.7742013663  W2        6286            0.0000000000
     11552      3851  TIP3      H1              9.7754412142       35.7823842980       10.8266313663  W2        6286            0.0000000000
     11553      3851  TIP3      H2             11.1214612142       35.7607642980       10.1340813663  W2        6286            0.0000000000
     11554      3852  TIP3      OH2             7.9301412142       36.3291342980       10.7558913663  W2        6290            0.0000000000
     11555      3852  TIP3      H1              8.0910112142       37.1288842980       10.2551513663  W2        6290            0.0000000000
     11556      3852  TIP3      H2              7.7329212142       36.6357342980       11.6409513663  W2        6290            0.0000000000
     11557      3853  TIP3      OH2             6.6645812142       23.0270542980       10.3716513663  W2        6291            0.0000000000
     11558      3853  TIP3      H1              6.5810612142       23.9153642980       10.7182913663  W2        6291            0.0000000000
     11559      3853  TIP3      H2              7.5546112142       22.7617242980       10.6033313663  W2        6291            0.0000000000
     11560      3854  TIP3      OH2             4.9231112142       33.4542742980        9.4321013663  W2        6294            0.0000000000
     11561      3854  TIP3      H1              5.5152612142       34.1537542980        9.7083413663  W2        6294            0.0000000000
     11562      3854  TIP3      H2              5.3824112142       33.0212242980        8.7125613663  W2        6294            0.0000000000
     11563      3855  TIP3      OH2             3.2390312142       26.1185742980        8.5480413663  W2        6295            0.0000000000
     11564      3855  TIP3      H1              3.1942912142       27.0578842980        8.7267413663  W2        6295            0.0000000000
     11565      3855  TIP3      H2              2.3513512142       25.8830642980        8.2782513663  W2        6295            0.0000000000
     11566      3856  TIP3      OH2            10.9552312142       35.8808142980        7.7071213663  W2        6299            0.0000000000
     11567      3856  TIP3      H1             10.3113312142       35.2496742980        8.0284913663  W2        6299            0.0000000000
     11568      3856  TIP3      H2             11.7170612142       35.3496142980        7.4754713663  W2        6299            0.0000000000
     11569      3857  TIP3      OH2            15.5595212142       35.6978042980        7.9409213663  W2        6301            0.0000000000
     11570      3857  TIP3      H1             15.8425612142       34.9033242980        8.3936113663  W2        6301            0.0000000000
     11571      3857  TIP3      H2             16.2993112142       35.9309042980        7.3800313663  W2        6301            0.0000000000
     11572      3858  TIP3      OH2             6.5142512142       31.6072942980        7.7984113663  W2        6303            0.0000000000
     11573      3858  TIP3      H1              6.5786612142       30.8132542980        8.3290513663  W2        6303            0.0000000000
     11574      3858  TIP3      H2              7.1671712142       31.4885742980        7.1086113663  W2        6303            0.0000000000
     11575      3859  TIP3      OH2            11.8665912142       32.6544642980        7.5342113663  W2        6305            0.0000000000
     11576      3859  TIP3      H1             11.5980012142       32.8346742980        8.4351013663  W2        6305            0.0000000000
     11577      3859  TIP3      H2             11.6601512142       31.7290842980        7.4027913663  W2        6305            0.0000000000
     11578      3860  TIP3      OH2             7.6636312142       29.5799142980       10.1042113663  W2        6308            0.0000000000
     11579      3860  TIP3      H1              7.2038312142       29.0957442980       10.7900613663  W2        6308            0.0000000000
     11580      3860  TIP3      H2              7.9185012142       28.9114542980        9.4682613663  W2        6308            0.0000000000
     11581      3861  TIP3      OH2             8.7346712142       27.8230942980        8.3665313663  W2        6310            0.0000000000
     11582      3861  TIP3      H1              8.5541712142       27.6682142980        7.4393613663  W2        6310            0.0000000000
     11583      3861  TIP3      H2              9.6847212142       27.9309642980        8.4113213663  W2        6310            0.0000000000
     11584      3862  TIP3      OH2            18.1245012142       30.1775142980        7.8123413663  W2        6312            0.0000000000
     11585      3862  TIP3      H1             17.8509812142       29.7530642980        6.9991713663  W2        6312            0.0000000000
     11586      3862  TIP3      H2             18.1639112142       31.1089642980        7.5953813663  W2        6312            0.0000000000
     11587      3863  TIP3      OH2             2.2003312142       33.1498442980        8.8507013663  W2        6326            0.0000000000
     11588      3863  TIP3      H1              3.1142512142       33.2287342980        9.1240913663  W2        6326            0.0000000000
     11589      3863  TIP3      H2              2.2076412142       32.4628042980        8.1842613663  W2        6326            0.0000000000
     11590      3864  TIP3      OH2            19.2456512142       29.0009142980       10.0020813663  W2        6333            0.0000000000
     11591      3864  TIP3      H1             18.7237612142       29.3573242980        9.2831713663  W2        6333            0.0000000000
     11592      3864  TIP3      H2             19.2125712142       29.6756942980       10.6801713663  W2        6333            0.0000000000
     11593      3865  TIP3      OH2            17.5945512142       26.2404742980        8.5527913663  W2        6334            0.0000000000
     11594      3865  TIP3      H1             17.6909912142       26.9071742980        7.8727613663  W2        6334            0.0000000000
     11595      3865  TIP3      H2             17.4545112142       25.4251042980        8.0713413663  W2        6334            0.0000000000
     11596      3866  TIP3      OH2            16.8419312142       23.6484542980        7.6703413663  W2        6339            0.0000000000
     11597      3866  TIP3      H1             17.4525112142       23.2771342980        8.3071613663  W2        6339            0.0000000000
     11598      3866  TIP3      H2             16.0050812142       23.2271442980        7.8663413663  W2        6339            0.0000000000
     11599      3867  TIP3      OH2            18.9546012142       22.5340342980        9.2125613663  W2        6349            0.0000000000
     11600      3867  TIP3      H1             19.3668612142       21.8126042980        8.7373613663  W2        6349            0.0000000000
     11601      3867  TIP3      H2             19.6362512142       23.2034942980        9.2709913663  W2        6349            0.0000000000
     11602      3868  TIP3      OH2             2.5119312142       20.5815742980       10.3182913663  W2        6361            0.0000000000
     11603      3868  TIP3      H1              2.9510012142       21.1926242980        9.7266413663  W2        6361            0.0000000000
     11604      3868  TIP3      H2              1.8781712142       21.1199842980       10.7922913663  W2        6361            0.0000000000
     11605      3869  TIP3      OH2             4.3728412142       22.4977242980        8.7607013663  W2        6366            0.0000000000
     11606      3869  TIP3      H1              4.8641812142       21.8679642980        8.2332513663  W2        6366            0.0000000000
     11607      3869  TIP3      H2              4.9964712142       22.7936642980        9.4238213663  W2        6366            0.0000000000
     11608      3870  TIP3      OH2            30.3850212142       27.6414242980        8.9639613663  W2        6399            0.0000000000
     11609      3870  TIP3      H1             31.0860112142       27.6641142980        9.6153613663  W2        6399            0.0000000000
     11610      3870  TIP3      H2             30.6873112142       27.0133942980        8.3078913663  W2        6399            0.0000000000
     11611      3871  TIP3      OH2            32.6078212142       28.5556142980       10.5621713663  W2        6407            0.0000000000
     11612      3871  TIP3      H1             33.1873712142       28.7056442980       11.3090613663  W2        6407            0.0000000000
     11613      3871  TIP3      H2             33.0218212142       29.0263542980        9.8388113663  W2        6407            0.0000000000
     11614      3872  TIP3      OH2            36.3066612142       20.3056542980       10.3751413663  W2        6411            0.0000000000
     11615      3872  TIP3      H1             35.4067312142       20.4445542980       10.6702013663  W2        6411            0.0000000000
     11616      3872  TIP3      H2             36.5585012142       21.1371142980        9.9733113663  W2        6411            0.0000000000
     11617      3873  TIP3      OH2            34.0851312142       29.5884442980        8.1919613663  W2        6421            0.0000000000
     11618      3873  TIP3      H1             34.1272112142       29.3658342980        7.2619613663  W2        6421            0.0000000000
     11619      3873  TIP3      H2             34.9343412142       29.9871542980        8.3819513663  W2        6421            0.0000000000
     11620      3874  TIP3      OH2            29.6578812142       23.4642642980        8.8622913663  W2        6422            0.0000000000
     11621      3874  TIP3      H1             29.4043612142       23.4834242980        9.7851013663  W2        6422            0.0000000000
     11622      3874  TIP3      H2             29.4010912142       22.5928042980        8.5609113663  W2        6422            0.0000000000
     11623      3875  TIP3      OH2            26.5401712142       23.9099142980        7.9633313663  W2        6429            0.0000000000
     11624      3875  TIP3      H1             26.1092412142       23.4649242980        8.6930713663  W2        6429            0.0000000000
     11625      3875  TIP3      H2             25.8220412142       24.2815442980        7.4510813663  W2        6429            0.0000000000
     11626      3876  TIP3      OH2            21.0567212142       24.3980642980       10.4392413663  W2        6431            0.0000000000
     11627      3876  TIP3      H1             21.5308912142       24.9890542980        9.8543313663  W2        6431            0.0000000000
     11628      3876  TIP3      H2             20.3393612142       24.9283542980       10.7862513663  W2        6431            0.0000000000
     11629      3877  TIP3      OH2            25.1583612142       26.6872042980        9.3457713663  W2        6437            0.0000000000
     11630      3877  TIP3      H1             24.6158712142       26.3075842980        8.6545313663  W2        6437            0.0000000000
     11631      3877  TIP3      H2             25.9918512142       26.8816742980        8.9171813663  W2        6437            0.0000000000
     11632      3878  TIP3      OH2            32.3913212142       24.0667642980        9.4808413663  W2        6444            0.0000000000
     11633      3878  TIP3      H1             31.4527412142       24.1783242980        9.3297213663  W2        6444            0.0000000000
     11634      3878  TIP3      H2             32.6885312142       24.9234542980        9.7874113663  W2        6444            0.0000000000
     11635      3879  TIP3      OH2            33.1096712142       25.9340342980       11.1415813663  W2        6446            0.0000000000
     11636      3879  TIP3      H1             34.0015712142       25.7965342980       11.4607013663  W2        6446            0.0000000000
     11637      3879  TIP3      H2             33.1660312142       26.7246442980       10.6049313663  W2        6446            0.0000000000
     11638      3880  TIP3      OH2            30.6190512142       32.7112042980       10.3070413663  W2        6448            0.0000000000
     11639      3880  TIP3      H1             30.3238912142       33.5379942980       10.6885213663  W2        6448            0.0000000000
     11640      3880  TIP3      H2             29.9160512142       32.0918942980       10.5031813663  W2        6448            0.0000000000
     11641      3881  TIP3      OH2            21.7481812142       28.9280042980        9.0427613663  W2        6455            0.0000000000
     11642      3881  TIP3      H1             22.3641712142       29.5547242980        9.4222413663  W2        6455            0.0000000000
     11643      3881  TIP3      H2             20.8864412142       29.2439842980        9.3144113663  W2        6455            0.0000000000
     11644      3882  TIP3      OH2            33.6822712142       32.9060642980        9.1215213663  W2        6460            0.0000000000
     11645      3882  TIP3      H1             34.0355812142       32.5260442980        9.9258713663  W2        6460            0.0000000000
     11646      3882  TIP3      H2             32.7336212142       32.8125442980        9.2084513663  W2        6460            0.0000000000
     11647      3883  TIP3      OH2            27.7730512142       34.0176742980        7.5685213663  W2        6465            0.0000000000
     11648      3883  TIP3      H1             28.0120312142       33.2694842980        7.0214113663  W2        6465            0.0000000000
     11649      3883  TIP3      H2             27.5041812142       33.6298442980        8.4013013663  W2        6465            0.0000000000
     11650      3884  TIP3      OH2            26.7101112142       33.5880542980       10.0247813663  W2        6466            0.0000000000
     11651      3884  TIP3      H1             26.8569112142       33.0680342980       10.8148713663  W2        6466            0.0000000000
     11652      3884  TIP3      H2             26.7072812142       34.4948142980       10.3313713663  W2        6466            0.0000000000
     11653      3885  TIP3      OH2            23.1632212142       30.8403842980       10.5353213663  W2        6467            0.0000000000
     11654      3885  TIP3      H1             22.4771512142       31.1926342980       11.1022913663  W2        6467            0.0000000000
     11655      3885  TIP3      H2             23.6860112142       31.6033442980       10.2887513663  W2        6467            0.0000000000
     11656      3886  TIP3      OH2            29.4478312142       35.2854142980       10.7742013663  W2        6470            0.0000000000
     11657      3886  TIP3      H1             28.6314412142       35.7823842980       10.8266313663  W2        6470            0.0000000000
     11658      3886  TIP3      H2             29.9774612142       35.7607642980       10.1340813663  W2        6470            0.0000000000
     11659      3887  TIP3      OH2            26.7861412142       36.3291342980       10.7558913663  W2        6474            0.0000000000
     11660      3887  TIP3      H1             26.9470112142       37.1288842980       10.2551513663  W2        6474            0.0000000000
     11661      3887  TIP3      H2             26.5889212142       36.6357342980       11.6409513663  W2        6474            0.0000000000
     11662      3888  TIP3      OH2            25.5205812142       23.0270542980       10.3716513663  W2        6475            0.0000000000
     11663      3888  TIP3      H1             25.4370612142       23.9153642980       10.7182913663  W2        6475            0.0000000000
     11664      3888  TIP3      H2             26.4106112142       22.7617242980       10.6033313663  W2        6475            0.0000000000
     11665      3889  TIP3      OH2            23.7791112142       33.4542742980        9.4321013663  W2        6478            0.0000000000
     11666      3889  TIP3      H1             24.3712612142       34.1537542980        9.7083413663  W2        6478            0.0000000000
     11667      3889  TIP3      H2             24.2384112142       33.0212242980        8.7125613663  W2        6478            0.0000000000
     11668      3890  TIP3      OH2            22.0950312142       26.1185742980        8.5480413663  W2        6479            0.0000000000
     11669      3890  TIP3      H1             22.0502912142       27.0578842980        8.7267413663  W2        6479            0.0000000000
     11670      3890  TIP3      H2             21.2073512142       25.8830642980        8.2782513663  W2        6479            0.0000000000
     11671      3891  TIP3      OH2            29.8112312142       35.8808142980        7.7071213663  W2        6483            0.0000000000
     11672      3891  TIP3      H1             29.1673312142       35.2496742980        8.0284913663  W2        6483            0.0000000000
     11673      3891  TIP3      H2             30.5730612142       35.3496142980        7.4754713663  W2        6483            0.0000000000
     11674      3892  TIP3      OH2            34.4155212142       35.6978042980        7.9409213663  W2        6485            0.0000000000
     11675      3892  TIP3      H1             34.6985612142       34.9033242980        8.3936113663  W2        6485            0.0000000000
     11676      3892  TIP3      H2             35.1553112142       35.9309042980        7.3800313663  W2        6485            0.0000000000
     11677      3893  TIP3      OH2            25.3702512142       31.6072942980        7.7984113663  W2        6487            0.0000000000
     11678      3893  TIP3      H1             25.4346612142       30.8132542980        8.3290513663  W2        6487            0.0000000000
     11679      3893  TIP3      H2             26.0231712142       31.4885742980        7.1086113663  W2        6487            0.0000000000
     11680      3894  TIP3      OH2            30.7225912142       32.6544642980        7.5342113663  W2        6489            0.0000000000
     11681      3894  TIP3      H1             30.4540012142       32.8346742980        8.4351013663  W2        6489            0.0000000000
     11682      3894  TIP3      H2             30.5161512142       31.7290842980        7.4027913663  W2        6489            0.0000000000
     11683      3895  TIP3      OH2            26.5196312142       29.5799142980       10.1042113663  W2        6492            0.0000000000
     11684      3895  TIP3      H1             26.0598312142       29.0957442980       10.7900613663  W2        6492            0.0000000000
     11685      3895  TIP3      H2             26.7745012142       28.9114542980        9.4682613663  W2        6492            0.0000000000
     11686      3896  TIP3      OH2            27.5906712142       27.8230942980        8.3665313663  W2        6494            0.0000000000
     11687      3896  TIP3      H1             27.4101712142       27.6682142980        7.4393613663  W2        6494            0.0000000000
     11688      3896  TIP3      H2             28.5407212142       27.9309642980        8.4113213663  W2        6494            0.0000000000
     11689      3897  TIP3      OH2            21.0563312142       33.1498442980        8.8507013663  W2        6509            0.0000000000
     11690      3897  TIP3      H1             21.9702512142       33.2287342980        9.1240913663  W2        6509            0.0000000000
     11691      3897  TIP3      H2             21.0636412142       32.4628042980        8.1842613663  W2        6509            0.0000000000
     11692      3898  TIP3      OH2            36.4505512142       26.2404742980        8.5527913663  W2        6513            0.0000000000
     11693      3898  TIP3      H1             36.5469912142       26.9071742980        7.8727613663  W2        6513            0.0000000000
     11694      3898  TIP3      H2             36.3105112142       25.4251042980        8.0713413663  W2        6513            0.0000000000
     11695      3899  TIP3      OH2            35.6979312142       23.6484542980        7.6703413663  W2        6517            0.0000000000
     11696      3899  TIP3      H1             36.3085112142       23.2771342980        8.3071613663  W2        6517            0.0000000000
     11697      3899  TIP3      H2             34.8610812142       23.2271442980        7.8663413663  W2        6517            0.0000000000
     11698      3900  TIP3      OH2            21.3679312142       20.5815742980       10.3182913663  W2        6534            0.0000000000
     11699      3900  TIP3      H1             21.8070012142       21.1926242980        9.7266413663  W2        6534            0.0000000000
     11700      3900  TIP3      H2             20.7341712142       21.1199842980       10.7922913663  W2        6534            0.0000000000
     11701      3901  TIP3      OH2            23.2288412142       22.4977242980        8.7607013663  W2        6539            0.0000000000
     11702      3901  TIP3      H1             23.7201812142       21.8679642980        8.2332513663  W2        6539            0.0000000000
     11703      3901  TIP3      H2             23.8524712142       22.7936642980        9.4238213663  W2        6539            0.0000000000
