* GENERATED BY CHARMM-GUI (HTTP://WWW.CHARMM-GUI.ORG) V3.7 ON OCT, 22. 2024. JOB
* GET A DIFFERENT CONFORMATION FOR LIPIDS PENETRATING PROTEIN / CHOL
*  DATE:    10/22/24     10:26:21      CREATED BY USER: apache
*
       267  EXT
         1         1  TIP3      OH2             3.3696140847        4.3641094935       20.2856350000  TIP3      1               0.0000000000
         2         1  TIP3      H1              3.3218375223        5.2990971357       20.0862750000  TIP3      1               0.0000000000
         3         1  TIP3      H2              3.0568182030        3.9328774301       19.4903850000  TIP3      1               0.0000000000
         4         2  TIP3      OH2             1.3956285315        1.9582921084       21.3181650000  TIP3      2               0.0000000000
         5         2  TIP3      H1              1.8147967301        2.4828664537       20.6359950000  TIP3      2               0.0000000000
         6         2  TIP3      H2              1.6353178214        1.0557015994       21.1081050000  TIP3      2               0.0000000000
         7         3  TIP3      OH2            -5.4077834505        5.6072920091       20.6632200000  TIP3      3               0.0000000000
         8         3  TIP3      H1             -5.9263520820        5.4457431946       21.4513900000  TIP3      3               0.0000000000
         9         3  TIP3      H2             -5.6846016369        4.9263672486       20.0500800000  TIP3      3               0.0000000000
        10         4  TIP3      OH2            -6.6410242933        1.4298789215       20.3734100000  TIP3      4               1.4200000000
        11         4  TIP3      H1             -7.1737416784        0.9576261396       21.0132700000  TIP3      4               0.7600000000
        12         4  TIP3      H2             -5.9712541047        0.8000143649       20.1071500000  TIP3      4               1.6200000000
        13         5  TIP3      OH2            -1.6203428079       10.3863322316       21.2456350000  TIP3      5               0.0000000000
        14         5  TIP3      H1             -0.7445676335       10.0031632964       21.1963350000  TIP3      5               0.0000000000
        15         5  TIP3      H2             -1.9680157197       10.3054785533       20.3574750000  TIP3      5               0.0000000000
        16         6  TIP3      OH2             6.9763489730        8.5042676486       20.9438800000  TIP3      6               0.0000000000
        17         6  TIP3      H1              6.6687238806        7.8222466406       21.5409100000  TIP3      6               0.0000000000
        18         6  TIP3      H2              6.1827483346        8.8220837069       20.5132800000  TIP3      6               0.0000000000
        19         7  TIP3      OH2             7.7491396687       11.6024017744       18.7667000000  TIP3      7               0.0000000000
        20         7  TIP3      H1              7.7118616593       12.3861396666       18.2184400000  TIP3      7               0.0000000000
        21         7  TIP3      H2              8.5180977465       11.1264446993       18.4530400000  TIP3      7               0.0000000000
        22         8  TIP3      OH2             3.5214558268        8.7732956968       20.5866100000  TIP3      8               0.0000000000
        23         8  TIP3      H1              3.3060686519        9.4747827432       21.2012300000  TIP3      8               0.0000000000
        24         8  TIP3      H2              4.0292414200        9.2041464686       19.8990400000  TIP3      8               0.0000000000
        25         9  TIP3      OH2             7.6789337846       13.9042316344       17.4373100000  TIP3      9               0.0000000000
        26         9  TIP3      H1              8.4440189382       14.4053939105       17.7196500000  TIP3      9               0.0000000000
        27         9  TIP3      H2              7.0056357691       14.1080621768       18.0864200000  TIP3      9               0.0000000000
        28        10  TIP3      OH2            -8.2962876351      -12.4287818385       19.1454800000  TIP3      10              0.0000000000
        29        10  TIP3      H1             -9.1940079736      -12.7607282616       19.1569600000  TIP3      10              0.0000000000
        30        10  TIP3      H2             -7.7517888088      -13.2047128263       19.2784800000  TIP3      10              0.0000000000
        31        11  TIP3      OH2            -4.7912343442       -7.8885841863       19.2777200000  TIP3      11              0.0000000000
        32        11  TIP3      H1             -4.8566702047       -7.6806185731       20.2097600000  TIP3      11              0.0000000000
        33        11  TIP3      H2             -5.2164587735       -8.7418224170       19.1917800000  TIP3      11              0.0000000000
        34        12  TIP3      OH2            -8.9717124109       -9.3180927984       19.8670800000  TIP3      12              0.0000000000
        35        12  TIP3      H1             -8.5977851926       -8.4949713762       20.1815000000  TIP3      12              0.0000000000
        36        12  TIP3      H2             -8.3464888974       -9.6315760368       19.2135800000  TIP3      12              0.0000000000
        37        13  TIP3      OH2            11.5830138794       -9.3071138114       19.9328450000  TIP3      13              5.1400000000
        38        13  TIP3      H1             12.4837475695       -9.2113310387       20.2422550000  TIP3      13              6.0000000000
        39        13  TIP3      H2             11.0498415327       -9.2536624647       20.7260050000  TIP3      13              4.9300000000
        40        14  TIP3      OH2            11.4658139846      -12.6751460112       20.0902950000  TIP3      14              0.0000000000
        41        14  TIP3      H1             10.8158272984      -12.3523650959       19.4661550000  TIP3      14              0.0000000000
        42        14  TIP3      H2             11.5974821469      -11.9471701270       20.6977150000  TIP3      14              0.0000000000
        43        15  TIP3      OH2           -13.2260427985      -11.0835886889       20.5422600000  TIP3      15              0.0000000000
        44        15  TIP3      H1            -13.8627331952      -10.8200668817       19.8778600000  TIP3      15              0.0000000000
        45        15  TIP3      H2            -12.3796927226      -10.8187903137       20.1819900000  TIP3      15              0.0000000000
        46        16  TIP3      OH2            17.9276171694        0.5697996441       20.8361550000  TIP3      16              0.0000000000
        47        16  TIP3      H1             17.7541894940        1.0568074714       20.0305550000  TIP3      16              0.0000000000
        48        16  TIP3      H2             17.2031956138        0.8015174504       21.4173250000  TIP3      16              0.0000000000
        49        17  TIP3      OH2            20.2428127832        2.9125586547       19.4304750000  TIP3      17              0.0000000000
        50        17  TIP3      H1             20.1063735611        3.8538124956       19.5384350000  TIP3      17              0.0000000000
        51        17  TIP3      H2             19.4400228610        2.5999989793       19.0132750000  TIP3      17              0.0000000000
        52        18  TIP3      OH2            14.9082425554        2.2467651864       19.5674450000  TIP3      18              0.0000000000
        53        18  TIP3      H1             14.2832548124        1.5625629567       19.8072250000  TIP3      18              0.0000000000
        54        18  TIP3      H2             14.3691820862        2.9440220219       19.1939850000  TIP3      18              0.0000000000
        55        19  TIP3      OH2            10.4042461373       15.7068683065       20.4980350000  TIP3      19              0.0000000000
        56        19  TIP3      H1              9.8464836070       15.4001836959       21.2129250000  TIP3      19              0.0000000000
        57        19  TIP3      H2             11.0486900241       16.2732275946       20.9224850000  TIP3      19              0.0000000000
        58        20  TIP3      OH2            11.2980870336      -18.7409082265       20.7996100000  TIP3      20              0.0000000000
        59        20  TIP3      H1             11.5078470313      -17.8077608943       20.7615000000  TIP3      20              0.0000000000
        60        20  TIP3      H2             10.7157780841      -18.8866357950       20.0540100000  TIP3      20              0.0000000000
        61        21  TIP3      OH2             4.0409687956      -22.4554247031       18.8014800000  TIP3      21              0.0000000000
        62        21  TIP3      H1              4.6042287606      -23.2158574837       18.6575700000  TIP3      21              0.0000000000
        63        21  TIP3      H2              4.4423680467      -21.7579394186       18.2831800000  TIP3      21              0.0000000000
        64        22  TIP3      OH2            -9.5581594864       25.3290693333       21.6482300000  TIP3      22              0.0000000000
        65        22  TIP3      H1             -8.6339467124       25.4293491238       21.4202000000  TIP3      22              0.0000000000
        66        22  TIP3      H2             -9.5956809627       25.5167719567       22.5861000000  TIP3      22              0.0000000000
        67        23  TIP3      OH2           -12.1290049839       25.0073366230       20.0045400000  TIP3      23              0.0000000000
        68        23  TIP3      H1            -11.6347536811       25.1106701014       20.8177300000  TIP3      23              0.0000000000
        69        23  TIP3      H2            -11.7691171125       25.6732827969       19.4186900000  TIP3      23              0.0000000000
        70        24  TIP3      OH2           -21.8336131935       16.4775824084       20.6447550000  TIP3      24              0.0000000000
        71        24  TIP3      H1            -22.5373107662       15.8303980450       20.5978750000  TIP3      24              0.0000000000
        72        24  TIP3      H2            -21.9424878503       17.0080904403       19.8554850000  TIP3      24              0.0000000000
        73        25  TIP3      OH2           -24.3971995728       20.1947404378       19.9425250000  TIP3      25              0.0000000000
        74        25  TIP3      H1            -23.7384192341       20.7126473624       20.4051450000  TIP3      25              0.0000000000
        75        25  TIP3      H2            -25.2328115096       20.4939515102       20.3009350000  TIP3      25              0.0000000000
        76        26  TIP3      OH2           -16.1110949963       24.9091857211       19.7664550000  TIP3      26              0.0000000000
        77        26  TIP3      H1            -15.9241194154       24.6367504258       20.6648150000  TIP3      26              0.0000000000
        78        26  TIP3      H2            -15.2583371118       24.9040320529       19.3317050000  TIP3      26              0.0000000000
        79        27  TIP3      OH2           -19.7743578208       28.0165274796       20.0280250000  TIP3      27              0.0000000000
        80        27  TIP3      H1            -19.2514772886       27.3536390469       19.5770250000  TIP3      27              0.0000000000
        81        27  TIP3      H2            -20.6672778856       27.6722431300       20.0081750000  TIP3      27              0.0000000000
        82        28  TIP3      OH2             4.6278466146      -32.0070040760       21.6067750000  TIP3      28              0.0000000000
        83        28  TIP3      H1              4.4624352672      -31.4391693498       20.8541550000  TIP3      28              0.0000000000
        84        28  TIP3      H2              3.7640118984      -32.1511939507       21.9930550000  TIP3      28              0.0000000000
        85        29  TIP3      OH2             8.6849847710      -31.7351739575       19.6323850000  TIP3      29              0.0000000000
        86        29  TIP3      H1              8.3794026895      -32.1212645084       20.4532250000  TIP3      29              0.0000000000
        87        29  TIP3      H2              7.8852349259      -31.4594202649       19.1845050000  TIP3      29              0.0000000000
        88        30  TIP3      OH2           -12.2883073731      -33.0044501362       20.1693950000  TIP3      30              0.0000000000
        89        30  TIP3      H1            -11.8501116332      -33.6306369774       20.7456850000  TIP3      30              0.0000000000
        90        30  TIP3      H2            -12.6300764497      -32.3331976017       20.7600250000  TIP3      30              0.0000000000
        91        31  TIP3      OH2            -8.0133754168      -30.5372884852       20.1186950000  TIP3      31              0.0000000000
        92        31  TIP3      H1             -8.8018357421      -30.1180627532       20.4633850000  TIP3      31              0.0000000000
        93        31  TIP3      H2             -8.3362075462      -31.1463211827       19.4545350000  TIP3      31              0.0000000000
        94        32  TIP3      OH2           -14.6574763722      -30.6344402958       19.1378000000  TIP3      32              0.0000000000
        95        32  TIP3      H1            -14.0240422515      -29.9826712523       19.4381300000  TIP3      32              0.0000000000
        96        32  TIP3      H2            -14.3569400494      -31.4570131086       19.5241700000  TIP3      32              0.0000000000
        97        33  TIP3      OH2           -18.6823956778      -32.7775954580       19.3842700000  TIP3      33              0.0000000000
        98        33  TIP3      H1            -18.3618560155      -31.8811241191       19.4833300000  TIP3      33              0.0000000000
        99        33  TIP3      H2            -19.5492058222      -32.6803390010       18.9900400000  TIP3      33              0.0000000000
       100        34  TIP3      OH2           -19.2608246124      -28.7524950918       20.3937600000  TIP3      34              0.0000000000
       101        34  TIP3      H1            -19.1232657561      -29.2943937862       21.1707100000  TIP3      34              0.0000000000
       102        34  TIP3      H2            -18.7077095937      -29.1513209573       19.7220100000  TIP3      34              0.0000000000
       103        35  TIP3      OH2            33.0056943091      -11.9802369936       18.9134100000  TIP3      35              0.0000000000
       104        35  TIP3      H1             33.6599095869      -12.6430296505       19.1346400000  TIP3      35              0.0000000000
       105        35  TIP3      H2             33.5170229421      -11.1977733743       18.7071800000  TIP3      35              0.0000000000
       106        36  TIP3      OH2            35.8195567611      -11.1993400506       20.8040200000  TIP3      36              0.0000000000
       107        36  TIP3      H1             36.0851983748      -10.6397165711       20.0743100000  TIP3      36              0.0000000000
       108        36  TIP3      H2             35.5838018313      -12.0318044371       20.3945700000  TIP3      36              0.0000000000
       109        37  TIP3      OH2           -32.8355357346       14.2249340351       19.6453650000  TIP3      37              0.0000000000
       110        37  TIP3      H1            -32.2917572075       14.3626098130       20.4209750000  TIP3      37              0.0000000000
       111        37  TIP3      H2            -33.3500492969       13.4437738154       19.8485650000  TIP3      37              0.0000000000
       112        38  TIP3      OH2           -22.1428645207       30.0686647260       19.1694550000  TIP3      38              0.0000000000
       113        38  TIP3      H1            -21.8334276711       30.5657685021       19.9266650000  TIP3      38              0.0000000000
       114        38  TIP3      H2            -21.3834851584       30.0181452504       18.5889250000  TIP3      38              0.0000000000
       115        39  TIP3      OH2           -22.6685486486       27.4123959429       19.8219950000  TIP3      39              0.0000000000
       116        39  TIP3      H1            -21.9954252283       27.0172871039       19.2678850000  TIP3      39              0.0000000000
       117        39  TIP3      H2            -22.6561272871       28.3408702126       19.5896050000  TIP3      39              0.0000000000
       118        40  TIP3      OH2           -25.7351104060       27.4560633951       20.3378350000  TIP3      40              0.0000000000
       119        40  TIP3      H1            -24.8685988295       27.5675572347       19.9467150000  TIP3      40              0.0000000000
       120        40  TIP3      H2            -25.5598303226       27.2681256702       21.2598950000  TIP3      40              0.0000000000
       121        41  TIP3      OH2            36.7921643972      -20.6377085836       19.3590850000  TIP3      41              0.0000000000
       122        41  TIP3      H1             36.1419692924      -21.2724485287       19.0581250000  TIP3      41              0.0000000000
       123        41  TIP3      H2             37.6193282784      -20.9486931479       18.9912350000  TIP3      41              0.0000000000
       124        42  TIP3      OH2            32.1194067789      -22.3215442290       19.0844350000  TIP3      42              0.0000000000
       125        42  TIP3      H1             31.8330638341      -23.2302197872       19.1769450000  TIP3      42              0.0000000000
       126        42  TIP3      H2             32.9236392620      -22.3747453102       18.5680850000  TIP3      42              0.0000000000
       127        43  TIP3      OH2           -22.9754531686      -36.1664364170       20.7745850000  TIP3      43              0.0000000000
       128        43  TIP3      H1            -22.4792261104      -36.4908461074       20.0230950000  TIP3      43              0.0000000000
       129        43  TIP3      H2            -23.8030538340      -35.8619169616       20.4023150000  TIP3      43              0.0000000000
       130        44  TIP3      OH2           -32.7129632136       32.2599758707       20.7160950000  TIP3      44              0.0000000000
       131        44  TIP3      H1            -33.1411784534       33.1105818214       20.6194250000  TIP3      44              0.0000000000
       132        44  TIP3      H2            -32.9909334862       31.7625694504       19.9469650000  TIP3      44              0.0000000000
       133        45  TIP3      OH2           -35.4669712052       29.5019536975       20.5212850000  TIP3      45              0.0000000000
       134        45  TIP3      H1            -35.7519974448       29.4118253510       21.4306150000  TIP3      45              0.0000000000
       135        45  TIP3      H2            -36.1415117699       29.0519432661       20.0126350000  TIP3      45              0.0000000000
       136        46  TIP3      OH2           -32.9275828405       28.7694111919       21.5626250000  TIP3      46              0.0000000000
       137        46  TIP3      H1            -33.0022481063       29.5852172295       21.0675250000  TIP3      46              0.0000000000
       138        46  TIP3      H2            -33.0245500085       28.0801683878       20.9055250000  TIP3      46              0.0000000000
       139        47  TIP3      OH2           -36.6493585149      -30.7073925770       19.6975900000  TIP3      47              0.0000000000
       140        47  TIP3      H1            -35.7354064341      -30.4761048735       19.5319700000  TIP3      47              0.0000000000
       141        47  TIP3      H2            -36.7461679882      -31.5841632457       19.3259300000  TIP3      47              0.0000000000
       142        48  TIP3      OH2           -33.5611838846      -26.8235694589       19.4585000000  TIP3      48              0.0000000000
       143        48  TIP3      H1            -33.3450914433      -25.9647954161       19.0951300000  TIP3      48              0.0000000000
       144        48  TIP3      H2            -33.4003579567      -26.7340710157       20.3978400000  TIP3      48              0.0000000000
       145        49  TIP3      OH2           -32.8258922165      -31.0771776369       20.8184700000  TIP3      49              0.0000000000
       146        49  TIP3      H1            -33.0323979741      -30.5331018566       20.0584900000  TIP3      49              0.0000000000
       147        49  TIP3      H2            -31.9120395949      -31.3315293130       20.6903200000  TIP3      49              0.0000000000
       148        50  TIP3      OH2             1.9422483179       -1.5644256091      -18.2362050000  TIP3      50              0.0000000000
       149        50  TIP3      H1              2.8416142043       -1.2564184322      -18.1242950000  TIP3      50              0.0000000000
       150        50  TIP3      H2              2.0340087993       -2.4578996730      -18.5671350000  TIP3      50              0.0000000000
       151        51  TIP3      OH2             0.4325423906       -6.2983360336      -21.1146350000  TIP3      51              0.0000000000
       152        51  TIP3      H1              0.9562336094       -7.0430812145      -20.8191150000  TIP3      51              0.0000000000
       153        51  TIP3      H2              0.2456794010       -5.8044822349      -20.3162550000  TIP3      51              0.0000000000
       154        52  TIP3      OH2            -1.7629056348       -3.7160567856      -20.4154450000  TIP3      52              0.0000000000
       155        52  TIP3      H1             -2.4259353910       -4.3442394484      -20.1290650000  TIP3      52              0.0000000000
       156        52  TIP3      H2             -1.0395487346       -3.8330997608      -19.7995750000  TIP3      52              0.0000000000
       157        53  TIP3      OH2             3.7389297866        8.7608731183      -21.0491600000  TIP3      53              0.0000000000
       158        53  TIP3      H1              2.9231437653        8.6993255769      -21.5460900000  TIP3      53              0.0000000000
       159        53  TIP3      H2              3.4755185811        9.1100117584      -20.1977200000  TIP3      53              0.0000000000
       160        54  TIP3      OH2             1.4533041905       12.0490033723      -19.4314300000  TIP3      54              0.0000000000
       161        54  TIP3      H1              1.8906362804       12.5295457905      -20.1343200000  TIP3      54              0.0000000000
       162        54  TIP3      H2              0.6025777343       12.4782043063      -19.3405100000  TIP3      54              0.0000000000
       163        55  TIP3      OH2            -4.5489368698        8.0695909661      -19.6498300000  TIP3      55              0.0000000000
       164        55  TIP3      H1             -3.6491073100        7.7495859481      -19.7141400000  TIP3      55              0.0000000000
       165        55  TIP3      H2             -4.4771111817        8.8920775060      -19.1655000000  TIP3      55              0.0000000000
       166        56  TIP3      OH2            -6.7685836867       12.5400673225      -20.2670100000  TIP3      56              0.0000000000
       167        56  TIP3      H1             -7.3621168299       13.0484831515      -19.7143200000  TIP3      56              0.0000000000
       168        56  TIP3      H2             -7.0396484586       12.7446743701      -21.1619400000  TIP3      56              0.0000000000
       169        57  TIP3      OH2             3.9021201242       -9.8589459690      -19.3470800000  TIP3      57              0.0000000000
       170        57  TIP3      H1              3.2989350634       -9.3494071048      -19.8881600000  TIP3      57              0.0000000000
       171        57  TIP3      H2              3.3878696088      -10.6134278108      -19.0597600000  TIP3      57              0.0000000000
       172        58  TIP3      OH2             6.9200079833       16.5809708458      -19.4359150000  TIP3      58              0.0000000000
       173        58  TIP3      H1              6.0323323946       16.3560804714      -19.7146450000  TIP3      58              0.0000000000
       174        58  TIP3      H2              7.2894862385       15.7554839476      -19.1224050000  TIP3      58              0.0000000000
       175        59  TIP3      OH2            10.4592484399       15.8224057549      -20.2515350000  TIP3      59              0.0000000000
       176        59  TIP3      H1             10.1254064870       16.6059397979      -19.8146750000  TIP3      59              0.0000000000
       177        59  TIP3      H2             10.2188686797       15.1019765527      -19.6689250000  TIP3      59              0.0000000000
       178        60  TIP3      OH2           -11.7417031130       10.7913034003      -20.1098550000  TIP3      60              0.0000000000
       179        60  TIP3      H1            -11.3318997435       10.0311107432      -19.6970450000  TIP3      60              0.0000000000
       180        60  TIP3      H2            -11.6030984646       10.6589265630      -21.0476750000  TIP3      60              0.0000000000
       181        61  TIP3      OH2            -3.2513462639      -21.2795114155      -20.8472200000  TIP3      61              0.0000000000
       182        61  TIP3      H1             -4.1147919444      -21.3836158482      -21.2470300000  TIP3      61              0.0000000000
       183        61  TIP3      H2             -2.9333819772      -22.1742219540      -20.7263600000  TIP3      61              0.0000000000
       184        62  TIP3      OH2             0.1095184735      -18.2732459995      -19.1273800000  TIP3      62              0.0000000000
       185        62  TIP3      H1              0.2132902996      -19.1515324608      -19.4935400000  TIP3      62              0.0000000000
       186        62  TIP3      H2             -0.7761222430      -18.2677286242      -18.7642600000  TIP3      62              0.0000000000
       187        63  TIP3      OH2            -1.8740067920      -19.0275582748      -21.8068000000  TIP3      63              0.0000000000
       188        63  TIP3      H1             -2.0697355762      -19.9389898601      -21.5895000000  TIP3      63              0.0000000000
       189        63  TIP3      H2             -2.2051316487      -18.5266857703      -21.0613400000  TIP3      63              0.0000000000
       190        64  TIP3      OH2            17.7917967205        8.3858359228      -20.4064400000  TIP3      64              0.0000000000
       191        64  TIP3      H1             18.1128138226        8.3085664841      -21.3048900000  TIP3      64              0.0000000000
       192        64  TIP3      H2             17.2314807433        9.1618213051      -20.4177000000  TIP3      64              0.0000000000
       193        65  TIP3      OH2            -8.1702749762       21.6968542692      -19.0886550000  TIP3      65              0.0000000000
       194        65  TIP3      H1             -9.1048009193       21.5245894767      -18.9736250000  TIP3      65              0.0000000000
       195        65  TIP3      H2             -7.7408480791       21.1265101194      -18.4510550000  TIP3      65              0.0000000000
       196        66  TIP3      OH2            -5.3522955420       19.2707119829      -20.8559850000  TIP3      66              0.0000000000
       197        66  TIP3      H1             -4.9189459920       18.4386386042      -21.0459450000  TIP3      66              0.0000000000
       198        66  TIP3      H2             -5.2248123819       19.7938552223      -21.6473750000  TIP3      66              0.0000000000
       199        67  TIP3      OH2             8.0656007954       22.2939093792      -19.6849000000  TIP3      67              0.0000000000
       200        67  TIP3      H1              7.2685779013       22.5391757875      -19.2149900000  TIP3      67              0.0000000000
       201        67  TIP3      H2              8.5216704169       23.1224135330      -19.8326400000  TIP3      67              0.0000000000
       202        68  TIP3      OH2            21.3543863477       -9.7204235759      -20.0310750000  TIP3      68              0.0000000000
       203        68  TIP3      H1             20.9219982886       -8.8671638565      -19.9963350000  TIP3      68              0.0000000000
       204        68  TIP3      H2             22.2442891138       -9.5266972483      -20.3256250000  TIP3      68              0.0000000000
       205        69  TIP3      OH2            25.8107895911       -8.5769173951      -19.4603650000  TIP3      69              0.0000000000
       206        69  TIP3      H1             24.9668779112       -8.2114007371      -19.1949750000  TIP3      69              0.0000000000
       207        69  TIP3      H2             25.8254542555       -8.4801515741      -20.4125550000  TIP3      69              0.0000000000
       208        70  TIP3      OH2            22.5914452505       -4.0455322534      -18.7740050000  TIP3      70              0.0000000000
       209        70  TIP3      H1             21.8106139281       -3.5349276060      -18.9880450000  TIP3      70              0.0000000000
       210        70  TIP3      H2             22.3955715653       -4.9275022645      -19.0902250000  TIP3      70              0.0000000000
       211        71  TIP3      OH2            16.3212431547       20.6788518537      -19.5928150000  TIP3      71              0.0000000000
       212        71  TIP3      H1             16.9661119018       20.6946945503      -18.8856150000  TIP3      71              0.0000000000
       213        71  TIP3      H2             15.5560496719       21.1249117819      -19.2298750000  TIP3      71              0.0000000000
       214        72  TIP3      OH2            22.9573369446       15.1943698277      -20.0706800000  TIP3      72              0.0000000000
       215        72  TIP3      H1             23.0443605696       14.2686344472      -19.8433400000  TIP3      72              0.0000000000
       216        72  TIP3      H2             22.3103493594       15.5335870760      -19.4521500000  TIP3      72              0.0000000000
       217        73  TIP3      OH2            -8.7577024736       24.1821123793      -18.5762050000  TIP3      73              0.0000000000
       218        73  TIP3      H1             -9.1531269318       25.0483499972      -18.4786850000  TIP3      73              0.0000000000
       219        73  TIP3      H2             -8.4502941066       24.1592736202      -19.4824150000  TIP3      73              0.0000000000
       220        74  TIP3      OH2            20.2572467495       18.5728085042      -20.6488050000  TIP3      74              0.0000000000
       221        74  TIP3      H1             21.0644031551       18.3587426294      -21.1166750000  TIP3      74              0.0000000000
       222        74  TIP3      H2             19.5695994819       18.4996115250      -21.3106350000  TIP3      74              0.0000000000
       223        75  TIP3      OH2           -27.8902563964       16.8250639587      -20.3960600000  TIP3      75              0.0000000000
       224        75  TIP3      H1            -28.4583310145       16.1948314265      -20.8391500000  TIP3      75              0.0000000000
       225        75  TIP3      H2            -27.3947241808       16.3006523053      -19.7670400000  TIP3      75              0.0000000000
       226        76  TIP3      OH2            10.6726447794       28.8576545449      -21.1681550000  TIP3      76              0.0000000000
       227        76  TIP3      H1             10.7937576472       28.9068389963      -20.2199250000  TIP3      76              0.0000000000
       228        76  TIP3      H2              9.9780848389       29.4893918804      -21.3544750000  TIP3      76              0.0000000000
       229        77  TIP3      OH2            13.5174397698       27.7585955036      -18.7758850000  TIP3      77              0.0000000000
       230        77  TIP3      H1             13.1665470061       26.8704547195      -18.7102050000  TIP3      77              0.0000000000
       231        77  TIP3      H2             12.7986839217       28.3223605906      -18.4898950000  TIP3      77              0.0000000000
       232        78  TIP3      OH2           -24.5217053188      -19.4371976203      -20.7753250000  TIP3      78              0.0000000000
       233        78  TIP3      H1            -24.1435885949      -19.6568472812      -19.9238450000  TIP3      78              0.0000000000
       234        78  TIP3      H2            -23.7959416763      -19.5327927836      -21.3920550000  TIP3      78              0.0000000000
       235        79  TIP3      OH2           -21.4838093881      -22.3976313190      -20.2304650000  TIP3      79              0.0000000000
       236        79  TIP3      H1            -22.2425414426      -22.7534712526      -20.6930150000  TIP3      79              0.0000000000
       237        79  TIP3      H2            -20.9827131060      -21.9416245247      -20.9066250000  TIP3      79              0.0000000000
       238        80  TIP3      OH2            32.9200364361       -6.7521387702      -20.1424000000  TIP3      80              0.0000000000
       239        80  TIP3      H1             32.8421125323       -6.6579529850      -21.0917600000  TIP3      80              0.0000000000
       240        80  TIP3      H2             33.6971803311       -7.2969977638      -20.0182800000  TIP3      80              0.0000000000
       241        81  TIP3      OH2            18.6210734631       38.3652829870      -19.9251800000  TIP3      81              0.0000000000
       242        81  TIP3      H1             18.1391951599       39.1546036455      -20.1721300000  TIP3      81              0.0000000000
       243        81  TIP3      H2             19.4649863180       38.4506829556      -20.3687400000  TIP3      81              0.0000000000
       244        82  TIP3      OH2           -22.5551402943       30.9629051080      -19.7207550000  TIP3      82              0.0000000000
       245        82  TIP3      H1            -23.2201563674       30.5087082307      -19.2033550000  TIP3      82              0.0000000000
       246        82  TIP3      H2            -22.5448039475       30.4994998309      -20.5582350000  TIP3      82              0.0000000000
       247        83  TIP3      OH2            30.8104820597      -30.7445591257      -19.3470800000  TIP3      83              0.0000000000
       248        83  TIP3      H1             31.5566348803      -30.4862607711      -19.8881600000  TIP3      83              0.0000000000
       249        83  TIP3      H2             30.4245192357      -29.9170755062      -19.0597600000  TIP3      83              0.0000000000
       250        84  TIP3      OH2           -19.1150679793      -33.9411666735      -20.5254900000  TIP3      84              0.0000000000
       251        84  TIP3      H1            -18.9165079890      -33.0435296408      -20.2589300000  TIP3      84              0.0000000000
       252        84  TIP3      H2            -19.9680741220      -33.8806615280      -20.9555500000  TIP3      84              0.0000000000
       253        85  TIP3      OH2           -34.3588689332       30.7282564142      -19.8604250000  TIP3      85              0.0000000000
       254        85  TIP3      H1            -35.2906655056       30.8029078582      -20.0664050000  TIP3      85              0.0000000000
       255        85  TIP3      H2            -34.0407639445       31.6310458326      -19.8570150000  TIP3      85              0.0000000000
       256        86  TIP3      OH2           -31.4415691128       30.2256980034      -21.2622950000  TIP3      86              0.0000000000
       257        86  TIP3      H1            -30.5626022674       29.8468301887      -21.2524550000  TIP3      86              0.0000000000
       258        86  TIP3      H2            -32.0278063408       29.4706536926      -21.3119950000  TIP3      86              0.0000000000
       259        87  TIP3      OH2           -34.1970235811       28.9991674371      -21.9395350000  TIP3      87              0.0000000000
       260        87  TIP3      H1            -35.0476558062       28.6796858593      -22.2405250000  TIP3      87              0.0000000000
       261        87  TIP3      H2            -34.4048501425       29.5882332531      -21.2142550000  TIP3      87              0.0000000000
       262        88  TIP3      OH2            36.1782815342       31.8551321413      -19.4604900000  TIP3      88              0.0000000000
       263        88  TIP3      H1             36.1965250544       31.5359584731      -20.3627200000  TIP3      88              0.0000000000
       264        88  TIP3      H2             36.4933232851       32.7571260763      -19.5186000000  TIP3      88              0.0000000000
       265        89  TIP3      OH2            32.4121632298       30.1509082617      -21.2214200000  TIP3      89              0.0000000000
       266        89  TIP3      H1             32.0952783431       29.2540945053      -21.1140200000  TIP3      89              0.0000000000
       267        89  TIP3      H2             32.5348652631       30.4707381787      -20.3276200000  TIP3      89              0.0000000000
