* GENERATED BY CHARMM-GUI (HTTP://WWW.CHARMM-GUI.ORG) V3.7 ON OCT, 22. 2024. JOB
* GENERATES LIPID PACKING USING BIG SPHERES
*  DATE:    10/22/24     10:23:18      CREATED BY USER: apache
*
       192  EXT
         1         1  CHL1      POLO          -18.2560727399       26.1345967491       12.0148032777  HEAD      1               0.0000000000
         2         2  CHL1      POLO            9.4472680908      -10.6069172320       12.0147556349  HEAD      2               0.0000000000
         3         3  CHL1      POLO          -10.2385629090       26.5498387609       12.0660053180  HEAD      3               0.0000000000
         4         4  CHL1      POLO           13.7585121982      -17.3264724571       11.9159777583  HEAD      4               0.0000000000
         5         5  CHL1      POLO           -6.4898039156      -10.2269157478       12.0441082710  HEAD      5               0.0000000000
         6         6  CHL1      POLO            8.8221247061       16.7367108861       12.0998593041  HEAD      6               0.0000000000
         7         7  CHL1      POLO          -26.0952312178      -16.1339871680       11.9864226894  HEAD      7               0.0000000000
         8         8  CHL1      POLO            5.1536148922       10.0002994403       11.8660278356  HEAD      8               0.0000000000
         9         9  CHL1      POLO           35.4248503046      -22.9666470400       11.9274568729  HEAD      9               0.0000000000
        10        10  CHL1      POLO           -2.5688100599       -3.4787565569       11.9256254413  HEAD      10              0.0000000000
        11        11  CHL1      POLO          -10.1336722420      -16.9015124837       11.9499293931  HEAD      11              0.0000000000
        12        12  CHL1      POLO           35.0527914174       -9.5881735673       12.0121268928  HEAD      12              0.0000000000
        13        13  CHL1      POLO          -33.0077215440       30.3555154252       12.0105974798  HEAD      13              0.0000000000
        14        14  CHL1      POLO           -6.6481399654        3.5680385565       12.0811463488  HEAD      14              0.0000000000
        15        15  CHL1      POLO          -33.9882561241      -16.1032049318       12.0244992805  HEAD      15              0.0000000000
        16        16  CHL1      POLO          -17.5064145058      -30.0906755607       12.1424475324  HEAD      16              0.0000000000
        17        17  CHL1      POLO          -10.0221479515      -32.2959674232       12.0171798385  HEAD      17              0.0000000000
        18        18  CHL1      POLO            1.8300030797      -24.7164663463       11.9813950401  HEAD      18              0.0000000000
        19        19  CHL1      POLO            6.0206222125      -31.4603365810       11.9028726355  HEAD      19              0.0000000000
        20        20  CHL1      POLO           -2.9985078170       10.2363021144       11.9107724128  HEAD      20              0.0000000000
        21        21  CHL1      POLO          -32.2359278768       17.1545245764       11.9063403656  HEAD      21              0.0000000000
        22        22  CHL1      POLO          -14.4609200904       -9.6500667276       11.9280642701  HEAD      22              0.0000000000
        23        23  CHL1      POLO          -22.5817501684       18.7128401754       11.9722033139  HEAD      23              0.0000000000
        24        24  CHL1      POLO          -21.2054537869      -36.5937124868       12.0316131921  HEAD      24              0.0000000000
        25        25  CHL1      POLO            1.2552143654        3.1605037863       12.0145143680  HEAD      25              0.0000000000
        26        26  CHL1      POLO           17.4836961573        2.8412503611       12.0082934583  HEAD      26              0.0000000000
        27        27  CHL1      POLO          -24.9053135689       30.3666802444       11.9181985501  HEAD      27              0.0000000000
        28        28  CHL1      POLO          -33.6610804772      -29.7070281694       11.9604192445  HEAD      28              0.0000000000
        29        29  POPC      POLO           -6.2020891773      -25.0436110597       11.9622384973  HEAD      29              0.0000000000
        30        30  POPC      POLO           17.8381620066      -10.5700950160       11.9657056623  HEAD      30              0.0000000000
        31        31  POPC      POLO            2.0770624505       34.7573465690       11.9299206079  HEAD      31              0.0000000000
        32        32  POPC      POLO           11.5907388632      -36.6666175827       12.0742509330  HEAD      32              0.0000000000
        33        33  SLPC      POLO           21.1863532365        9.7661608518       11.9845110717  HEAD      33              0.0000000000
        34        34  SLPC      POLO            9.3919468746        2.9377404288       11.9895844905  HEAD      34              0.0000000000
        35        35  SLPC      POLO          -30.7932890772        4.3698787920       11.8858988045  HEAD      35              0.0000000000
        36        36  SLPC      POLO           19.7738044211      -36.4634121156       12.0928426428  HEAD      36              0.0000000000
        37        37  SLPC      POLO           30.2449901780       -3.2996493419       12.0106706277  HEAD      37              0.0000000000
        38        38  SLPC      POLO          -14.3891613305        4.7343029421       12.0501223212  HEAD      38              0.0000000000
        39        39  SLPC      POLO           -2.0984061565      -31.9273391976       12.0027603861  HEAD      39              0.0000000000
        40        40  SLPC      POLO           33.8786714713        3.5868688162       12.0297347193  HEAD      40              0.0000000000
        41        41  SOPE      POLO           24.0490463774       30.2065670334       12.0616392846  HEAD      41              0.0000000000
        42        42  SOPE      POLO           27.8359311611      -36.5201512718       12.0239840440  HEAD      42              0.0000000000
        43        43  SOPE      POLO           20.5672474621       23.3476361074       11.8972990350  HEAD      43              0.0000000000
        44        44  SOPE      POLO          -10.5466762418       -2.9824809196       11.9835800202  HEAD      44              0.0000000000
        45        45  SOPE      POLO           12.6353266838       23.2466957752       12.0145539277  HEAD      45              0.0000000000
        46        46  SOPE      POLO           23.4926834812      -29.7139401848       11.9215943625  HEAD      46              0.0000000000
        47        47  SAPI      POLO            9.8881336622      -24.2255514960       12.1315939067  HEAD      47              0.0000000000
        48        48  SAPI      POLO           15.1069129760      -29.9345479524       11.9275273769  HEAD      48              0.0000000000
        49        49  SAPC      POLO           29.3775541187        9.8832263324       11.9704316115  HEAD      49              0.0000000000
        50        50  SAPC      POLO          -30.3299522393       -9.1604450233       11.9416923447  HEAD      50              0.0000000000
        51        51  SAPC      POLO          -14.1544797286       33.6175063031       12.0187328203  HEAD      51              0.0000000000
        52        52  SAPC      POLO          -26.8608860169       11.5425093478       11.9860695053  HEAD      52              0.0000000000
        53        53  SAPC      POLO          -22.4850356355        4.6949930054       11.9901778046  HEAD      53              0.0000000000
        54        54  SAPC      POLO           -2.3555013117      -17.7507600045       12.1920500589  HEAD      54              0.0000000000
        55        55  SAPC      POLO            5.3166526893       -3.6706231257       12.0889552474  HEAD      55              0.0000000000
        56        56  SAPC      POLO          -25.4968657729      -29.8436711106       11.8875414668  HEAD      56              0.0000000000
        57        57  SAPE      POLO            1.4124213508      -10.8096747648       12.0431531866  HEAD      57              0.0000000000
        58        58  SAPE      POLO           13.6048219210       -4.0198907518       12.0118450554  HEAD      58              0.0000000000
        59        59  SAPE      POLO           18.8338684336      -23.2733113028       12.0522094581  HEAD      59              0.0000000000
        60        60  SAPE      POLO          -18.4497547349       -2.1745673998       12.0829650357  HEAD      60              0.0000000000
        61        61  SAPE      POLO          -26.5635454434       -2.2082995261       12.0596167893  HEAD      61              0.0000000000
        62        62  SAPE      POLO          -28.5390566282       23.7097778191       11.9809262080  HEAD      62              0.0000000000
        63        63  SAPE      POLO            4.5548950415       23.3142168716       11.8110383197  HEAD      63              0.0000000000
        64        64  SAPE      POLO           -2.1973741976       27.2199007041       11.9827831249  HEAD      64              0.0000000000
        65        65  SAPE      POLO           -6.6620744936       19.3606285778       12.0499821678  HEAD      65              0.0000000000
        66        66  SAPE      POLO          -29.7822673977      -23.0626205594       11.9703324535  HEAD      66              0.0000000000
        67        67  SAPE      POLO           26.4723279644      -10.0281956248       12.0734794247  HEAD      67              0.0000000000
        68        68  SAPE      POLO           21.9734651141       -3.7435670760       11.9032738004  HEAD      68              0.0000000000
        69        69  SAPE      POLO           31.4731529356      -29.5966353290       11.8202082832  HEAD      69              0.0000000000
        70        70  SAPE      POLO           16.1400205229       30.0984060844       11.9448682846  HEAD      70              0.0000000000
        71        71  SAPS      POLO           36.6906183113       23.5023819968       11.9585686507  HEAD      71              0.0000000000
        72        72  SAPS      POLO            8.1229168484       29.9353606283       12.0135570071  HEAD      72              0.0000000000
        73        73  SAPS      POLO           28.5507788997       23.5083956787       12.0907857819  HEAD      73              0.0000000000
        74        74  SAPS      POLO          -18.7217455634       11.7415555681       12.0396815943  HEAD      74              0.0000000000
        75        75  SAPS      POLO           31.1429555184      -16.3612928646       12.0211946648  HEAD      75              0.0000000000
        76        76  SAPS      POLO           32.4186327070       30.1843208727       12.0164582773  HEAD      76              0.0000000000
        77        77  SAPS      POLO           13.1398583994        9.6869573796       11.9764866763  HEAD      77              0.0000000000
        78        78  SAPS      POLO           -6.0321339303       34.2364905289       11.9051109262  HEAD      78              0.0000000000
        79        79  OSM       POLO           35.9283123767      -36.3252978084       11.9304872108  HEAD      79              0.0000000000
        80        80  OSM       POLO          -18.0539677833      -16.4544208748       11.9589233429  HEAD      80              0.0000000000
        81        81  OSM       POLO           33.0566777529       16.6886759338       11.9681673332  HEAD      81              0.0000000000
        82        82  OSM       POLO           25.0044445038       16.6152670311       11.8915318440  HEAD      82              0.0000000000
        83        83  OSM       POLO          -14.4438839918       19.0727023036       11.8970779059  HEAD      83              0.0000000000
        84        84  OSM       POLO          -35.7834038150       10.3171993496       11.8473269634  HEAD      84              0.0000000000
        85        85  OSM       POLO            0.7431295863       16.8229647342       11.9979335822  HEAD      85              0.0000000000
        86        86  OSM       POLO          -29.3227878518      -36.4393974029       12.0114708823  HEAD      86              0.0000000000
        87        87  OSM       POLO          -10.5894380763       12.0281012356       12.0302095057  HEAD      87              0.0000000000
        88        88  OSM       POLO           27.1779237405      -22.9897980195       12.0557122049  HEAD      88              0.0000000000
        89        89  OSM       POLO          -34.7305387315       -2.6099822376       11.8987264806  HEAD      89              0.0000000000
        90        90  OSM       POLO          -22.3680090434       -9.1959138102       12.1038246542  HEAD      90              0.0000000000
        91        91  OSM       POLO            5.6715798610      -17.6319196525       11.9016095778  HEAD      91              0.0000000000
        92        92  OSM       POLO           25.7097537257        3.1633356827       12.0022721076  HEAD      92              0.0000000000
        93        93  OSM       POLO           22.6193323118      -16.6618543694       11.9098146447  HEAD      93              0.0000000000
        94        94  OSM       POLO          -21.7417009776      -23.1032594530       11.9452025821  HEAD      94              0.0000000000
        95        95  OSM       POLO          -13.8383759257      -23.4910930658       12.0115024601  HEAD      95              0.0000000000
        96        96  OSM       POLO           16.8727959073       16.5557806338       12.0087189364  HEAD      96              0.0000000000
        97        97  CHL1      POLO           33.0346880654       30.4446813522      -12.0539976485  HEAD      97              0.0000000000
        98        98  CHL1      POLO          -25.2172743151       30.9756949271      -11.9480989702  HEAD      98              0.0000000000
        99        99  CHL1      POLO           -9.6703911898       27.2014547226      -11.8883932781  HEAD      99              0.0000000000
       100       100  CHL1      POLO          -12.4247076439       12.7301509167      -11.9367996061  HEAD      100             0.0000000000
       101       101  CHL1      POLO          -23.9010587148      -20.9256321498      -12.0842270120  HEAD      101             0.0000000000
       102       102  CHL1      POLO            5.7786936842       23.3883400066      -12.0116237571  HEAD      102             0.0000000000
       103       103  CHL1      POLO          -32.5848840979       28.7660047665      -12.1191125863  HEAD      103             0.0000000000
       104       104  CHL1      POLO          -15.1054705398       -1.2138054218      -12.0267276605  HEAD      104             0.0000000000
       105       105  CHL1      POLO           17.0007234862       35.3682228410      -11.9882971475  HEAD      105             0.0000000000
       106       106  CHL1      POLO           31.4047534210       -8.8496094872      -11.9265117416  HEAD      106             0.0000000000
       107       107  CHL1      POLO           21.2035838154       20.0881532037      -12.1268752957  HEAD      107             0.0000000000
       108       108  CHL1      POLO          -27.7545501456       14.7309828260      -12.1199817209  HEAD      108             0.0000000000
       109       109  CHL1      POLO          -30.3552821498       21.7133591530      -11.8808457496  HEAD      109             0.0000000000
       110       110  CHL1      POLO            8.0189679194       15.6252202540      -11.9349066870  HEAD      110             0.0000000000
       111       111  CHL1      POLO           13.4619738403       21.6581601388      -11.9053519779  HEAD      111             0.0000000000
       112       112  CHL1      POLO           23.7908413545       12.6497873996      -11.9731491233  HEAD      112             0.0000000000
       113       113  CHL1      POLO           11.1654314442       29.4295506504      -12.1389949649  HEAD      113             0.0000000000
       114       114  CHL1      POLO           -7.3125891456       19.1697095305      -11.9941795877  HEAD      114             0.0000000000
       115       115  CHL1      POLO           -4.7846942986       11.2831704226      -11.9970249048  HEAD      115             0.0000000000
       116       116  CHL1      POLO           18.2264896518        6.6958250785      -11.9472508786  HEAD      116             0.0000000000
       117       117  CHL1      POLO            0.2917041440       -4.6502350673      -12.0802380890  HEAD      117             0.0000000000
       118       118  CHL1      POLO            2.8459836743      -12.4140917341      -12.0511356893  HEAD      118             0.0000000000
       119       119  CHL1      POLO          -19.7835542015      -36.5593023314      -11.9624476147  HEAD      119             0.0000000000
       120       120  CHL1      POLO           -2.7335706035      -18.6697496999      -12.1250924258  HEAD      120             0.0000000000
       121       121  CHL1      POLO           29.1532607453      -28.5314591524      -12.0864643672  HEAD      121             0.0000000000
       122       122  CHL1      POLO            2.8001163128        9.6293490317      -12.1332807159  HEAD      122             0.0000000000
       123       123  CHL1      POLO           23.3052637143       -7.3013072202      -11.9802886210  HEAD      123             0.0000000000
       124       124  CHL1      POLO          -36.5508563676      -30.5006715527      -12.0273931661  HEAD      124             0.0000000000
       125       125  POPC      POLO           10.5683733919        7.9561312144      -12.0663269126  HEAD      125             0.0000000000
       126       126  POPC      POLO            8.0336947655       -6.2328718114      -12.0394250377  HEAD      126             0.0000000000
       127       127  POPC      POLO           28.8408455617       -1.7099478519      -11.9897555307  HEAD      127             0.0000000000
       128       128  POPC      POLO           12.8117044971      -22.2710817722      -12.0610343613  HEAD      128             0.0000000000
       129       129  SLPC      POLO           31.8655500898       10.9625495758      -12.0831559901  HEAD      129             0.0000000000
       130       130  SLPC      POLO            5.2733906442        1.6921376602      -11.9938405593  HEAD      130             0.0000000000
       131       131  SLPC      POLO           -7.4408938140       -3.0800471741      -11.9493699638  HEAD      131             0.0000000000
       132       132  SLPC      POLO            0.3858190363       17.3319287709      -12.0717534634  HEAD      132             0.0000000000
       133       133  SLPC      POLO           33.5876738304      -16.0628993256      -12.0177881159  HEAD      133             0.0000000000
       134       134  SLPC      POLO          -34.3280062033       35.8319071345      -11.9683455506  HEAD      134             0.0000000000
       135       135  SLPC      POLO          -36.2258057910       -3.6699331564      -11.7201459879  HEAD      135             0.0000000000
       136       136  SLPC      POLO          -26.0432761711      -13.0917688791      -11.9324942195  HEAD      136             0.0000000000
       137       137  SOPE      POLO           25.6614042820      -14.1795720675      -12.0444483360  HEAD      137             0.0000000000
       138       138  SOPE      POLO           15.7724432871       14.1087234909      -11.9950658078  HEAD      138             0.0000000000
       139       139  SOPE      POLO           -8.4558608838      -24.6264322171      -12.0191546435  HEAD      139             0.0000000000
       140       140  SOPE      POLO          -19.8963385601       14.4997042739      -12.0850606287  HEAD      140             0.0000000000
       141       141  SOPE      POLO          -31.7661781015      -18.6950875010      -11.9930519040  HEAD      141             0.0000000000
       142       142  SOPE      POLO            5.0610803219      -20.5208598378      -12.0984772565  HEAD      142             0.0000000000
       143       143  SAPI      POLO          -22.8486861897       22.5183998951      -12.0352971354  HEAD      143             0.0000000000
       144       144  SAPI      POLO           -6.4041603694      -32.3836406116      -11.8195420866  HEAD      144             0.0000000000
       145       145  SAPC      POLO           27.5902580915      -21.2746283723      -11.8664357101  HEAD      145             0.0000000000
       146       146  SAPC      POLO           34.5950150947        3.6319327080      -11.9217807824  HEAD      146             0.0000000000
       147       147  SAPC      POLO           20.7515890605       -0.3889277236      -11.9131758319  HEAD      147             0.0000000000
       148       148  SAPC      POLO            7.0510548563      -28.2092541921      -12.0686820619  HEAD      148             0.0000000000
       149       149  SAPC      POLO          -10.4346231803      -16.8861277073      -12.0100228569  HEAD      149             0.0000000000
       150       150  SAPC      POLO            3.3996342639       31.2922506655      -11.9548424165  HEAD      150             0.0000000000
       151       151  SAPC      POLO          -18.2877992775      -14.9588139080      -12.1178787998  HEAD      151             0.0000000000
       152       152  SAPC      POLO           22.4878064042      -32.3255233041      -11.9367456999  HEAD      152             0.0000000000
       153       153  SAPE      POLO           -9.9026154243        4.9415883717      -11.9509459733  HEAD      153             0.0000000000
       154       154  SAPE      POLO           20.5304681619      -24.3226043061      -11.9663583480  HEAD      154             0.0000000000
       155       155  SAPE      POLO          -30.6835249105        1.8798268260      -12.1489229195  HEAD      155             0.0000000000
       156       156  SAPE      POLO           29.1933443216       18.2098664995      -11.9924218356  HEAD      156             0.0000000000
       157       157  SAPE      POLO           26.3345280790        5.3553840160      -11.9902556069  HEAD      157             0.0000000000
       158       158  SAPE      POLO          -12.7228217028       -8.9951538296      -12.1075485557  HEAD      158             0.0000000000
       159       159  SAPE      POLO           -4.3896116038       33.2142238537      -11.9801721939  HEAD      159             0.0000000000
       160       160  SAPE      POLO           15.6307996737       -8.0647781126      -12.0627202307  HEAD      160             0.0000000000
       161       161  SAPE      POLO          -12.1622932443       35.0708193057      -12.1441726893  HEAD      161             0.0000000000
       162       162  SAPE      POLO           35.5319192539      -23.2781463113      -11.9959273122  HEAD      162             0.0000000000
       163       163  SAPE      POLO          -28.2603952340       -5.4802805935      -11.9935244251  HEAD      163             0.0000000000
       164       164  SAPE      POLO           35.1387785703       23.3131723730      -12.0588072911  HEAD      164             0.0000000000
       165       165  SAPE      POLO          -14.1644181049      -30.5107838052      -12.0477428941  HEAD      165             0.0000000000
       166       166  SAPE      POLO          -33.3675985215        9.1304666881      -12.0400850400  HEAD      166             0.0000000000
       167       167  SAPS      POLO            9.0979959719      -36.0820601021      -12.1162008797  HEAD      167             0.0000000000
       168       168  SAPS      POLO           31.0607398338      -35.7373768776      -11.9372949948  HEAD      168             0.0000000000
       169       169  SAPS      POLO           -0.6166919087      -26.4521248698      -12.0845456655  HEAD      169             0.0000000000
       170       170  SAPS      POLO          -20.5574736800       -7.2775686219      -11.9801590930  HEAD      170             0.0000000000
       171       171  SAPS      POLO           18.1510483078      -16.0233974812      -12.1218735125  HEAD      171             0.0000000000
       172       172  SAPS      POLO          -29.6007073332      -26.5337458296      -11.9852331915  HEAD      172             0.0000000000
       173       173  SAPS      POLO           12.9182324399        0.1117979436      -11.9399098187  HEAD      173             0.0000000000
       174       174  SAPS      POLO          -33.9392738377      -11.0947153961      -12.0245437586  HEAD      174             0.0000000000
       175       175  OSM       POLO          -16.0846253996      -22.6592129682      -12.0744904006  HEAD      175             0.0000000000
       176       176  OSM       POLO           -5.0273381428      -10.8691362000      -12.0484578539  HEAD      176             0.0000000000
       177       177  OSM       POLO            1.3609354303      -34.2633328244      -11.9356195364  HEAD      177             0.0000000000
       178       178  OSM       POLO           24.6694938033       33.2125328745      -12.0764589824  HEAD      178             0.0000000000
       179       179  OSM       POLO          -25.2904102743        7.6599778488      -12.0720948175  HEAD      179             0.0000000000
       180       180  OSM       POLO          -35.9977634733       16.1969629645      -12.0585846349  HEAD      180             0.0000000000
       181       181  OSM       POLO          -14.9038653371       21.0870890289      -12.0052617825  HEAD      181             0.0000000000
       182       182  OSM       POLO           26.9199490729       25.7013250659      -11.9474997754  HEAD      182             0.0000000000
       183       183  OSM       POLO          -21.7688839762      -28.5957798804      -12.0917775258  HEAD      183             0.0000000000
       184       184  OSM       POLO           19.0640246362       27.6360173759      -11.9893994463  HEAD      184             0.0000000000
       185       185  OSM       POLO           14.7503188709      -30.1798123332      -11.9179264336  HEAD      185             0.0000000000
       186       186  OSM       POLO           10.4401811598      -14.3769414701      -12.0005528554  HEAD      186             0.0000000000
       187       187  OSM       POLO          -22.7313265069        0.3562399866      -11.9899212574  HEAD      187             0.0000000000
       188       188  OSM       POLO           -2.0398678741       25.2917164211      -11.9388075859  HEAD      188             0.0000000000
       189       189  OSM       POLO          -17.5430695250       28.8969683598      -11.8235572101  HEAD      189             0.0000000000
       190       190  OSM       POLO          -17.3849310003        6.6077312266      -12.0651644627  HEAD      190             0.0000000000
       191       191  OSM       POLO           -2.3221588563        3.3303414437      -11.9617617073  HEAD      191             0.0000000000
       192       192  OSM       POLO          -27.4354039146      -34.2488575561      -12.1383376625  HEAD      192             0.0000000000
