PSF EXT CMAP XPLOR

         2 !NTITLE
* GENERATE LIGAND                                                               
*  DATE:     4/17/25      6:26:41      CREATED BY USER: charmm-gui              

        74 !NATOM
         1 LIG      1        LIG      O1       OG302   -0.487000       15.9994           0
         2 LIG      1        LIG      O2       OG2D1   -0.621000       15.9994           0
         3 LIG      1        LIG      O3       OG311   -0.650000       15.9994           0
         4 LIG      1        LIG      O4       OG301   -0.393000       15.9994           0
         5 LIG      1        LIG      N        NG3P0   -0.587000       14.0070           0
         6 LIG      1        LIG      C1       CG3RC1   0.314000       12.0110           0
         7 LIG      1        LIG      C2       CG3RC1   0.314000       12.0110           0
         8 LIG      1        LIG      C3       CG3C52  -0.181000       12.0110           0
         9 LIG      1        LIG      C4       CG3C52  -0.181000       12.0110           0
        10 LIG      1        LIG      C5       CG321   -0.194000       12.0110           0
        11 LIG      1        LIG      C6       CG321   -0.194000       12.0110           0
        12 LIG      1        LIG      C7       CG311    0.170000       12.0110           0
        13 LIG      1        LIG      C8       CG324   -0.111000       12.0110           0
        14 LIG      1        LIG      C9       CG334   -0.350000       12.0110           0
        15 LIG      1        LIG      C10      CG321   -0.177000       12.0110           0
        16 LIG      1        LIG      C11      CG2R61  -0.300000E-02   12.0110           0
        17 LIG      1        LIG      C12      CG2O2    0.908000       12.0110           0
        18 LIG      1        LIG      C13      CG2R61  -0.117000       12.0110           0
        19 LIG      1        LIG      C14      CG2R61  -0.117000       12.0110           0
        20 LIG      1        LIG      C15      CG311   -0.680000E-01   12.0110           0
        21 LIG      1        LIG      C16      CG2R61  -0.108000       12.0110           0
        22 LIG      1        LIG      C17      CG2R61  -0.108000       12.0110           0
        23 LIG      1        LIG      C18      CG321   -0.310000E-01   12.0110           0
        24 LIG      1        LIG      C19      CG2R61  -0.620000E-01   12.0110           0
        25 LIG      1        LIG      C20      CG2R61   0.222000       12.0110           0
        26 LIG      1        LIG      C21      CG2R61  -0.790000E-01   12.0110           0
        27 LIG      1        LIG      C22      CG2R61  -0.790000E-01   12.0110           0
        28 LIG      1        LIG      C23      CG2R61  -0.115000       12.0110           0
        29 LIG      1        LIG      C24      CG2R61  -0.115000       12.0110           0
        30 LIG      1        LIG      C25      CG321   -0.800000E-02   12.0110           0
        31 LIG      1        LIG      C26      CG2R61  -0.115000       12.0110           0
        32 LIG      1        LIG      C27      CG321   -0.181000       12.0110           0
        33 LIG      1        LIG      C28      CG321   -0.177000       12.0110           0
        34 LIG      1        LIG      C29      CG331   -0.273000       12.0110           0
        35 LIG      1        LIG      H1       HGP5     0.900000E-01   1.00800           0
        36 LIG      1        LIG      H2       HGP5     0.900000E-01   1.00800           0
        37 LIG      1        LIG      H3       HGA2     0.900000E-01   1.00800           0
        38 LIG      1        LIG      H4       HGA2     0.900000E-01   1.00800           0
        39 LIG      1        LIG      H5       HGA2     0.900000E-01   1.00800           0
        40 LIG      1        LIG      H6       HGA2     0.900000E-01   1.00800           0
        41 LIG      1        LIG      H7       HGA2     0.900000E-01   1.00800           0
        42 LIG      1        LIG      H8       HGA2     0.900000E-01   1.00800           0
        43 LIG      1        LIG      H9       HGA2     0.900000E-01   1.00800           0
        44 LIG      1        LIG      H10      HGA2     0.900000E-01   1.00800           0
        45 LIG      1        LIG      H11      HGA1     0.900000E-01   1.00800           0
        46 LIG      1        LIG      H12      HGP5     0.250000       1.00800           0
        47 LIG      1        LIG      H13      HGP5     0.250000       1.00800           0
        48 LIG      1        LIG      H14      HGP5     0.250000       1.00800           0
        49 LIG      1        LIG      H15      HGP5     0.250000       1.00800           0
        50 LIG      1        LIG      H16      HGP5     0.250000       1.00800           0
        51 LIG      1        LIG      H17      HGA2     0.900000E-01   1.00800           0
        52 LIG      1        LIG      H18      HGA2     0.900000E-01   1.00800           0
        53 LIG      1        LIG      H19      HGR61    0.115000       1.00800           0
        54 LIG      1        LIG      H20      HGR61    0.115000       1.00800           0
        55 LIG      1        LIG      H21      HGA1     0.900000E-01   1.00800           0
        56 LIG      1        LIG      H22      HGR61    0.115000       1.00800           0
        57 LIG      1        LIG      H23      HGR61    0.115000       1.00800           0
        58 LIG      1        LIG      H24      HGA2     0.900000E-01   1.00800           0
        59 LIG      1        LIG      H25      HGA2     0.900000E-01   1.00800           0
        60 LIG      1        LIG      H26      HGR61    0.115000       1.00800           0
        61 LIG      1        LIG      H27      HGR61    0.115000       1.00800           0
        62 LIG      1        LIG      H28      HGP1     0.419000       1.00800           0
        63 LIG      1        LIG      H29      HGR61    0.115000       1.00800           0
        64 LIG      1        LIG      H30      HGR61    0.115000       1.00800           0
        65 LIG      1        LIG      H31      HGA2     0.900000E-01   1.00800           0
        66 LIG      1        LIG      H32      HGA2     0.900000E-01   1.00800           0
        67 LIG      1        LIG      H33      HGR61    0.115000       1.00800           0
        68 LIG      1        LIG      H34      HGA2     0.900000E-01   1.00800           0
        69 LIG      1        LIG      H35      HGA2     0.900000E-01   1.00800           0
        70 LIG      1        LIG      H36      HGA2     0.900000E-01   1.00800           0
        71 LIG      1        LIG      H37      HGA2     0.900000E-01   1.00800           0
        72 LIG      1        LIG      H38      HGA3     0.900000E-01   1.00800           0
        73 LIG      1        LIG      H39      HGA3     0.900000E-01   1.00800           0
        74 LIG      1        LIG      H40      HGA3     0.900000E-01   1.00800           0

        77 !NBOND: bonds
        12         1         1        17         2        17         3        23
         3        62         4        25         4        30         5         6
         5         7         5        13         5        14         6         8
         6        10         6        35         7         9         7        11
         7        36         8         9         8        37         8        38
         9        39         9        40        10        12        10        41
        10        42        11        12        11        43        11        44
        12        45        13        15        13        46        13        47
        14        48        14        49        14        50        15        16
        15        51        15        52        16        18        16        19
        20        17        18        21        18        53        19        22
        19        54        20        23        20        24        20        55
        21        25        21        56        22        25        22        57
        23        58        23        59        24        26        24        27
        26        28        26        60        27        29        27        61
        28        31        28        63        29        31        29        64
        30        32        30        65        30        66        31        67
        32        33        32        68        32        69        33        34
        33        70        33        71        34        72        34        73
        34        74

       144 !NTHETA: angles
        12         1        17        23         3        62        25         4        30
         6         5         7         6         5        13         6         5        14
         7         5        13         7         5        14        13         5        14
         5         6         8         5         6        10         5         6        35
         8         6        10         8         6        35        10         6        35
         5         7         9         5         7        11         5         7        36
         9         7        11         9         7        36        11         7        36
         6         8         9         6         8        37         6         8        38
         9         8        37         9         8        38        37         8        38
         7         9         8         7         9        39         7         9        40
         8         9        39         8         9        40        39         9        40
         6        10        12         6        10        41         6        10        42
        12        10        41        12        10        42        41        10        42
         7        11        12         7        11        43         7        11        44
        12        11        43        12        11        44        43        11        44
         1        12        10         1        12        11         1        12        45
        10        12        11        10        12        45        11        12        45
         5        13        15         5        13        46         5        13        47
        15        13        46        15        13        47        46        13        47
         5        14        48         5        14        49         5        14        50
        48        14        49        48        14        50        49        14        50
        13        15        16        13        15        51        13        15        52
        16        15        51        16        15        52        51        15        52
        15        16        18        15        16        19        18        16        19
         1        17         2         1        17        20         2        17        20
        16        18        21        16        18        53        21        18        53
        16        19        22        16        19        54        22        19        54
        17        20        23        17        20        24        17        20        55
        23        20        24        23        20        55        24        20        55
        18        21        25        18        21        56        25        21        56
        19        22        25        19        22        57        25        22        57
         3        23        20         3        23        58         3        23        59
        20        23        58        20        23        59        58        23        59
        20        24        26        20        24        27        26        24        27
         4        25        21         4        25        22        21        25        22
        24        26        28        24        26        60        28        26        60
        24        27        29        24        27        61        29        27        61
        26        28        31        26        28        63        31        28        63
        27        29        31        27        29        64        31        29        64
         4        30        32         4        30        65         4        30        66
        32        30        65        32        30        66        65        30        66
        28        31        29        28        31        67        29        31        67
        30        32        33        30        32        68        30        32        69
        33        32        68        33        32        69        68        32        69
        32        33        34        32        33        70        32        33        71
        34        33        70        34        33        71        70        33        71
        33        34        72        33        34        73        33        34        74
        72        34        73        72        34        74        73        34        74

       223 !NPHI: dihedrals
         1        12        10         6         1        12        10        41
         1        12        10        42         1        12        11         7
         1        12        11        43         1        12        11        44
         1        17        20        23         1        17        20        24
         1        17        20        55         2        17         1        12
         2        17        20        23         2        17        20        24
         2        17        20        55         3        23        20        17
         3        23        20        24         3        23        20        55
         4        25        21        18         4        25        21        56
         4        25        22        19         4        25        22        57
         4        30        32        33         4        30        32        68
         4        30        32        69         5         6         8         9
         5         6         8        37         5         6         8        38
         5         6        10        12         5         6        10        41
         5         6        10        42         5         7         9         8
         5         7         9        39         5         7         9        40
         5         7        11        12         5         7        11        43
         5         7        11        44         5        13        15        16
         5        13        15        51         5        13        15        52
         6         5         7         9         6         5         7        11
         6         5         7        36         6         5        13        15
         6         5        13        46         6         5        13        47
         6         5        14        48         6         5        14        49
         6         5        14        50         6         8         9         7
         6         8         9        39         6         8         9        40
         6        10        12        11         6        10        12        45
         7         5         6         8         7         5         6        10
         7         5         6        35         7         5        13        15
         7         5        13        46         7         5        13        47
         7         5        14        48         7         5        14        49
         7         5        14        50         7         9         8        37
         7         9         8        38         7        11        12        10
         7        11        12        45         8         6         5        13
         8         6         5        14         8         6        10        12
         8         6        10        41         8         6        10        42
         8         9         7        11         8         9         7        36
         9         7         5        13         9         7         5        14
         9         7        11        12         9         7        11        43
         9         7        11        44         9         8         6        10
         9         8         6        35        10         6         5        13
        10         6         5        14        10         6         8        37
        10         6         8        38        10        12         1        17
        10        12        11        43        10        12        11        44
        11         7         5        13        11         7         5        14
        11         7         9        39        11         7         9        40
        11        12         1        17        11        12        10        41
        11        12        10        42        12         1        17        20
        12        10         6        35        12        11         7        36
        13         5         6        35        13         5         7        36
        13         5        14        48        13         5        14        49
        13         5        14        50        13        15        16        18
        13        15        16        19        14         5         6        35
        14         5         7        36        14         5        13        15
        14         5        13        46        14         5        13        47
        15        16        18        21        15        16        18        53
        15        16        19        22        15        16        19        54
        16        15        13        46        16        15        13        47
        16        18        21        25        16        18        21        56
        16        19        22        25        16        19        22        57
        17         1        12        45        17        20        23        58
        17        20        23        59        17        20        24        26
        17        20        24        27        18        16        15        51
        18        16        15        52        18        16        19        22
        18        16        19        54        18        21        25        22
        19        16        15        51        19        16        15        52
        19        16        18        21        19        16        18        53
        19        22        25        21        20        23         3        62
        20        24        26        28        20        24        26        60
        20        24        27        29        20        24        27        61
        21        25         4        30        21        25        22        57
        22        25         4        30        22        25        21        56
        23        20        24        26        23        20        24        27
        24        20        23        58        24        20        23        59
        24        26        28        31        24        26        28        63
        24        27        29        31        24        27        29        64
        25         4        30        32        25         4        30        65
        25         4        30        66        25        21        18        53
        25        22        19        54        26        24        20        55
        26        24        27        29        26        24        27        61
        26        28        31        29        26        28        31        67
        27        24        20        55        27        24        26        28
        27        24        26        60        27        29        31        28
        27        29        31        67        28        31        29        64
        29        31        28        63        30        32        33        34
        30        32        33        70        30        32        33        71
        31        28        26        60        31        29        27        61
        32        33        34        72        32        33        34        73
        32        33        34        74        33        32        30        65
        33        32        30        66        34        33        32        68
        34        33        32        69        35         6         8        37
        35         6         8        38        35         6        10        41
        35         6        10        42        36         7         9        39
        36         7         9        40        36         7        11        43
        36         7        11        44        37         8         9        39
        37         8         9        40        38         8         9        39
        38         8         9        40        41        10        12        45
        42        10        12        45        43        11        12        45
        44        11        12        45        46        13        15        51
        46        13        15        52        47        13        15        51
        47        13        15        52        53        18        21        56
        54        19        22        57        55        20        23        58
        55        20        23        59        58        23         3        62
        59        23         3        62        60        26        28        63
        61        27        29        64        63        28        31        67
        64        29        31        67        65        30        32        68
        65        30        32        69        66        30        32        68
        66        30        32        69        68        32        33        70
        68        32        33        71        69        32        33        70
        69        32        33        71        70        33        34        72
        70        33        34        73        70        33        34        74
        71        33        34        72        71        33        34        73
        71        33        34        74

         1 !NIMPHI: impropers
        17        20         2         1

         0 !NDON: donors


         0 !NACC: acceptors


         0 !NNB

         0         0         0         0         0         0         0         0
         0         0         0         0         0         0         0         0
         0         0         0         0         0         0         0         0
         0         0         0         0         0         0         0         0
         0         0         0         0         0         0         0         0
         0         0         0         0         0         0         0         0
         0         0         0         0         0         0         0         0
         0         0         0         0         0         0         0         0
         0         0         0         0         0         0         0         0
         0         0

         1         0 !NGRP NST2
         0         2         0

         0         0 !NUMLP NUMLPH

         0 !NCRTERM: cross-terms

