* GENERATE LIGAND
*  DATE:     4/17/25      6:26:41      CREATED BY USER: charmm-gui
*
        74  EXT
         1         1  LIG       O1             -2.0007739936       -1.2052257671       -0.9731609528  LIG       1               0.0000000000
         2         1  LIG       O2             -1.9856913255       -2.7851136212        0.6485401254  LIG       1               0.0000000000
         3         1  LIG       O3              1.2652735105       -3.0803883101       -2.7523479324  LIG       1               0.0000000000
         4         1  LIG       O4              4.0962824214        3.1292102154        0.4461715422  LIG       1               0.0000000000
         5         1  LIG       N              -3.7175996343        1.9870418266       -0.1282222419  LIG       1               0.0000000000
         6         1  LIG       C1             -4.4379606570        1.4104338046       -1.3133104254  LIG       1               0.0000000000
         7         1  LIG       C2             -4.1492279510        1.0376636342        0.9498989815  LIG       1               0.0000000000
         8         1  LIG       C3             -5.8601447126        1.2315639468       -0.7683136134  LIG       1               0.0000000000
         9         1  LIG       C4             -5.6715003904        1.0442246715        0.7468438310  LIG       1               0.0000000000
        10         1  LIG       C5             -3.8553173036        0.0730960687       -1.7826605339  LIG       1               0.0000000000
        11         1  LIG       C6             -3.4423769932       -0.3174943796        0.7843212286  LIG       1               0.0000000000
        12         1  LIG       C7             -3.3661472812       -0.8879445740       -0.6621921657  LIG       1               0.0000000000
        13         1  LIG       C8             -2.2039097990        2.0342588116       -0.2736925775  LIG       1               0.0000000000
        14         1  LIG       C9             -4.1746069061        3.4149248913        0.1742423969  LIG       1               0.0000000000
        15         1  LIG       C10            -1.5185739043        2.5179581995        1.0204675435  LIG       1               0.0000000000
        16         1  LIG       C11            -0.0551354067        2.6340484954        0.7991673450  LIG       1               0.0000000000
        17         1  LIG       C12            -1.4446517345       -2.1978726386       -0.2624636992  LIG       1               0.0000000000
        18         1  LIG       C13             0.7879005574        1.5649008302        1.1248686065  LIG       1               0.0000000000
        19         1  LIG       C14             0.4881718977        3.8598538787        0.3847279948  LIG       1               0.0000000000
        20         1  LIG       C15            -0.0098013374       -2.4330969891       -0.7679340442  LIG       1               0.0000000000
        21         1  LIG       C16             2.1746396136        1.7192313471        1.0320014972  LIG       1               0.0000000000
        22         1  LIG       C17             1.8748093468        4.0126918299        0.2984174888  LIG       1               0.0000000000
        23         1  LIG       C18            -0.0544110422       -2.9396178063       -2.2384709351  LIG       1               0.0000000000
        24         1  LIG       C19             0.7196188727       -3.4062074103        0.1525121272  LIG       1               0.0000000000
        25         1  LIG       C20             2.7235155938        2.9452792526        0.6036429255  LIG       1               0.0000000000
        26         1  LIG       C21             1.4970548543       -2.8994444708        1.2102605400  LIG       1               0.0000000000
        27         1  LIG       C22             0.6538275935       -4.8014340592       -0.0349776129  LIG       1               0.0000000000
        28         1  LIG       C23             2.1955822841       -3.7674453949        2.0598533855  LIG       1               0.0000000000
        29         1  LIG       C24             1.3612749939       -5.6667829433        0.8071623309  LIG       1               0.0000000000
        30         1  LIG       C25             4.8407615483        1.9475944437        0.1770924017  LIG       1               0.0000000000
        31         1  LIG       C26             2.1299940849       -5.1510821458        1.8559402646  LIG       1               0.0000000000
        32         1  LIG       C27             6.0966312122        2.3565275009       -0.5846661647  LIG       1               0.0000000000
        33         1  LIG       C28             6.9512499035        1.1530062788       -0.9876531194  LIG       1               0.0000000000
        34         1  LIG       C29             8.1814441433        1.5623995511       -1.7939442084  LIG       1               0.0000000000
        35         1  LIG       H1             -4.4315216490        2.1477033617       -2.1464579056  LIG       1               0.0000000000
        36         1  LIG       H2             -3.9002698718        1.4579404810        1.9500843608  LIG       1               0.0000000000
        37         1  LIG       H3             -6.3622364023        0.3704180414       -1.2319883321  LIG       1               0.0000000000
        38         1  LIG       H4             -6.4824044940        2.1084892003       -1.0071957542  LIG       1               0.0000000000
        39         1  LIG       H5             -6.1178625088        1.8894846102        1.2995973457  LIG       1               0.0000000000
        40         1  LIG       H6             -6.1699589427        0.1525840561        1.1444536231  LIG       1               0.0000000000
        41         1  LIG       H7             -3.0096564769        0.2878566772       -2.4718336434  LIG       1               0.0000000000
        42         1  LIG       H8             -4.6141512426       -0.4565093319       -2.4001230888  LIG       1               0.0000000000
        43         1  LIG       H9             -3.8869913599       -1.0776051140        1.4598015546  LIG       1               0.0000000000
        44         1  LIG       H10            -2.3998552271       -0.2031243265        1.1548603724  LIG       1               0.0000000000
        45         1  LIG       H11            -3.9925982422       -1.8139319030       -0.7075535665  LIG       1               0.0000000000
        46         1  LIG       H12            -1.9206680312        2.6817330517       -1.1004216287  LIG       1               0.0000000000
        47         1  LIG       H13            -1.8242053086        1.0428870848       -0.5354312176  LIG       1               0.0000000000
        48         1  LIG       H14            -5.2514639540        3.4910982983        0.2456781468  LIG       1               0.0000000000
        49         1  LIG       H15            -3.8180209078        4.1088256939       -0.5772806700  LIG       1               0.0000000000
        50         1  LIG       H16            -3.7563049970        3.7348813782        1.1265844430  LIG       1               0.0000000000
        51         1  LIG       H17            -1.6887327025        1.8105416972        1.8598828284  LIG       1               0.0000000000
        52         1  LIG       H18            -1.8489874236        3.5175468948        1.3654504435  LIG       1               0.0000000000
        53         1  LIG       H19             0.3736386018        0.6320311904        1.4780299737  LIG       1               0.0000000000
        54         1  LIG       H20            -0.1558979761        4.6975252270        0.1600309156  LIG       1               0.0000000000
        55         1  LIG       H21             0.5045286989       -1.4474971590       -0.7721238176  LIG       1               0.0000000000
        56         1  LIG       H22             2.8100395485        0.8956432595        1.3159552422  LIG       1               0.0000000000
        57         1  LIG       H23             2.3061237842        4.9525229664       -0.0153551369  LIG       1               0.0000000000
        58         1  LIG       H24            -0.6082185717       -3.8989562686       -2.3311884241  LIG       1               0.0000000000
        59         1  LIG       H25            -0.5817985224       -2.1968734637       -2.8775188176  LIG       1               0.0000000000
        60         1  LIG       H26             1.5623149584       -1.8341947541        1.3730318051  LIG       1               0.0000000000
        61         1  LIG       H27             0.0599264611       -5.2333327934       -0.8248642932  LIG       1               0.0000000000
        62         1  LIG       H28             1.7221327825       -3.7327148893       -2.2067665584  LIG       1               0.0000000000
        63         1  LIG       H29             2.7864290732       -3.3718256954        2.8735393763  LIG       1               0.0000000000
        64         1  LIG       H30             1.3081789097       -6.7345540104        0.6477554875  LIG       1               0.0000000000
        65         1  LIG       H31             4.2761047974        1.2395106962       -0.4771610323  LIG       1               0.0000000000
        66         1  LIG       H32             5.1117855129        1.4395782782        1.1292858326  LIG       1               0.0000000000
        67         1  LIG       H33             2.6680966596       -5.8226462414        2.5097668575  LIG       1               0.0000000000
        68         1  LIG       H34             6.6932297654        3.0541096110        0.0440059732  LIG       1               0.0000000000
        69         1  LIG       H35             5.7882840429        2.9099919790       -1.5012924927  LIG       1               0.0000000000
        70         1  LIG       H36             6.3296497949        0.4525531077       -1.5922471859  LIG       1               0.0000000000
        71         1  LIG       H37             7.2687710809        0.6110951502       -0.0675412964  LIG       1               0.0000000000
        72         1  LIG       H38             8.8155834628        2.2552007577       -1.1995094528  LIG       1               0.0000000000
        73         1  LIG       H39             7.8722779333        2.0847878884       -2.7254170171  LIG       1               0.0000000000
        74         1  LIG       H40             8.7852351763        0.6720069529       -2.0690454946  LIG       1               0.0000000000
