* GENERATED BY CHARMM-GUI (HTTP://WWW.CHARMM-GUI.ORG)
*
        34  EXT
         1         1  LIG       O1             -2.0149000000       -1.2739000000       -1.0563000000  LIG       1               0.0000000000
         2         1  LIG       O2             -1.8997000000       -2.7011000000        0.7475000000  LIG       1               0.0000000000
         3         1  LIG       O3              1.2768000000       -3.1172000000       -2.7144000000  LIG       1               0.0000000000
         4         1  LIG       O4              4.0669000000        3.1065000000        0.4988000000  LIG       1               0.0000000000
         5         1  LIG       N              -3.7163000000        1.9140000000       -0.1309000000  LIG       1               0.0000000000
         6         1  LIG       C1             -4.4904000000        1.4221000000       -1.3411000000  LIG       1               0.0000000000
         7         1  LIG       C2             -4.2944000000        0.8347000000        0.9757000000  LIG       1               0.0000000000
         8         1  LIG       C3             -5.9382000000        1.2984000000       -0.7867000000  LIG       1               0.0000000000
         9         1  LIG       C4             -5.8015000000        1.2016000000        0.7624000000  LIG       1               0.0000000000
        10         1  LIG       C5             -3.8629000000        0.0682000000       -1.7899000000  LIG       1               0.0000000000
        11         1  LIG       C6             -3.2926000000       -0.3534000000        0.7882000000  LIG       1               0.0000000000
        12         1  LIG       C7             -3.3535000000       -0.9165000000       -0.6817000000  LIG       1               0.0000000000
        13         1  LIG       C8             -2.1894000000        1.9911000000       -0.3210000000  LIG       1               0.0000000000
        14         1  LIG       C9             -4.0806000000        3.3840000000        0.2306000000  LIG       1               0.0000000000
        15         1  LIG       C10            -1.5229000000        2.4928000000        0.9555000000  LIG       1               0.0000000000
        16         1  LIG       C11            -0.0280000000        2.6567000000        0.8329000000  LIG       1               0.0000000000
        17         1  LIG       C12            -1.4021000000       -2.1850000000       -0.2451000000  LIG       1               0.0000000000
        18         1  LIG       C13             0.8008000000        1.5907000000        1.1457000000  LIG       1               0.0000000000
        19         1  LIG       C14             0.4900000000        3.8711000000        0.4106000000  LIG       1               0.0000000000
        20         1  LIG       C15             0.0067000000       -2.4580000000       -0.7644000000  LIG       1               0.0000000000
        21         1  LIG       C16             2.1829000000        1.7430000000        1.0331000000  LIG       1               0.0000000000
        22         1  LIG       C17             1.8719000000        4.0232000000        0.2979000000  LIG       1               0.0000000000
        23         1  LIG       C18            -0.0474000000       -2.9684000000       -2.2114000000  LIG       1               0.0000000000
        24         1  LIG       C19             0.7531000000       -3.4100000000        0.1568000000  LIG       1               0.0000000000
        25         1  LIG       C20             2.7184000000        2.9592000000        0.6092000000  LIG       1               0.0000000000
        26         1  LIG       C21             1.4976000000       -2.8884000000        1.1960000000  LIG       1               0.0000000000
        27         1  LIG       C22             0.6653000000       -4.7685000000       -0.0726000000  LIG       1               0.0000000000
        28         1  LIG       C23             2.1828000000       -3.7617000000        2.0408000000  LIG       1               0.0000000000
        29         1  LIG       C24             1.3503000000       -5.6418000000        0.7722000000  LIG       1               0.0000000000
        30         1  LIG       C25             4.8234000000        1.9402000000        0.1775000000  LIG       1               0.0000000000
        31         1  LIG       C26             2.1091000000       -5.1383000000        1.8289000000  LIG       1               0.0000000000
        32         1  LIG       C27             6.0711000000        2.3584000000       -0.5872000000  LIG       1               0.0000000000
        33         1  LIG       C28             6.9226000000        1.1539000000       -0.9784000000  LIG       1               0.0000000000
        34         1  LIG       C29             8.1452000000        1.5723000000       -1.7791000000  LIG       1               0.0000000000
